Control file title. For DL_FIELD 4.10
49456
    1MOL     C1    1   7.726   7.052   4.001  0.1617  0.1848  0.5422
    1MOL     C2    2   7.871   7.096   4.016  0.4854 -0.2729  0.1943
    1MOL     C3    3   7.965   6.999   4.048 -0.0670 -0.2689  0.1737
    1MOL     C4    4   8.090   7.035   4.096 -0.1581 -0.9818  0.0066
    1MOL     C5    5   8.134   7.172   4.105  0.1702  0.1212 -0.9399
    1MOL     C6    6   0.118   7.202   4.175 -0.1741 -0.1615  0.7778
    1MOL     N7    7   0.134   7.327   4.220  0.0806  0.1334  0.1260
    1MOL     C8    8   0.248   7.398   4.265  0.5086  0.0302 -0.4178
    1MOL     C9    9   0.227   7.534   4.290 -0.3294 -0.1695  0.3758
    1MOL    C10   10   0.338   7.619   4.303 -0.2726 -0.2154 -0.7627
    1MOL    C11   11   0.472   7.570   4.325  0.3363  0.2119 -0.0327
    1MOL    N12   12   0.590   7.647   4.352 -0.0560 -0.1216 -0.1722
    1MOL    C13   13   0.485   7.427   4.326  0.1307  0.0027  0.1845
    1MOL    C14   14   0.376   7.346   4.287 -0.4373 -0.2258 -0.3616
    1MOL    O15   15   0.196   7.111   4.193  0.0986  0.0911  0.6988
    1MOL    C16   16   8.035   7.269   4.072  0.7600 -0.3402 -0.4021
    1MOL    C17   17   7.904   7.232   4.028  0.5373  0.5927  0.3157
    1MOL    O18   18   7.634   7.133   3.990 -0.3805  0.4864 -0.0609
    1MOL    H19   19   7.940   6.896   4.026 -0.2199 -0.5390  1.5329
    1MOL    H20   20   0.012   6.955   4.119 -0.3392 -1.1948 -0.2023
    1MOL    H21   21   0.048   7.380   4.218 -0.7168 -1.1288  0.2502
    1MOL    H22   22   0.129   7.580   4.285 -1.0229 -1.6923 -0.6382
    1MOL    H23   23   0.320   7.725   4.311 -0.5862 -0.5059  3.5212
    1MOL    H24   24   0.665   7.591   4.389  0.5967  1.7287  1.3860
    1MOL    H25   25   0.580   7.377   4.339 -0.0806 -0.2501  0.7618
    1MOL    H26   26   0.396   7.240   4.276 -0.9268 -0.3762  0.1431
    1MOL    H27   27   8.052   7.375   4.087  0.1094 -0.0069 -1.9342
    1MOL    H28   28   7.827   7.307   4.015  0.5322  0.4800 -0.3362
    1MOL    H29   29   7.713   6.945   4.016 -1.6846 -0.0440 -2.3486
    1MOL    C30   30   0.620   7.771   4.317  0.8038 -0.1200 -0.2501
    1MOL    C31   31   0.758   7.810   4.363 -0.3000 -0.0474  0.3633
    1MOL    C32   32   0.794   7.943   4.401  0.2836  0.9746 -0.4025
    1MOL    C33   33   0.931   7.978   4.424 -0.5417  0.7107  0.3822
    1MOL    C34   34   1.032   7.875   4.420 -0.5269  0.4867  0.6518
    1MOL    C35   35   1.179   7.899   4.427 -1.3667 -0.1610 -0.3297
    1MOL    N36   36   1.210   8.012   4.487  0.1370  0.0472  0.5958
    1MOL    C37   37   1.333   8.082   4.483 -0.2888 -0.6901 -0.8405
    1MOL    C38   38   1.444   8.055   4.397 -0.4882  0.0200 -0.1416
    1MOL    C39   39   1.561   8.131   4.404  0.1190 -0.1571 -0.4405
    1MOL    C40   40   1.564   0.095   4.498 -0.7128  0.0963  0.8896
    1MOL    N41   41   1.675   0.184   4.509  0.2326 -0.2474 -0.6084
    1MOL    C42   42   1.459   0.119   4.583  0.3401  0.5344 -0.6292
    1MOL    C43   43   1.339   0.041   4.576  0.2458  0.5672 -0.4106
    1MOL    O44   44   1.261   7.815   4.382  0.4759 -0.2677 -0.2641
    1MOL    C45   45   0.993   7.743   4.388  0.6645  0.5668  0.6802
    1MOL    C46   46   0.861   7.716   4.357  0.6023  0.1788  0.3141
    1MOL    O47   47   0.556   7.851   4.247  0.1939 -0.5523  0.0561
    1MOL    H48   48   0.709   8.009   4.396 -2.0344 -1.9673 -1.3499
    1MOL    H49   49   0.961   8.080   4.443  1.7476  0.1025  0.2265
    1MOL    H50   50   1.140   8.048   4.550 -1.1363 -0.0445 -0.7073
    1MOL    H51   51   1.440   7.980   4.320  0.0329 -0.7124  0.5293
    1MOL    H52   52   1.643   8.096   4.343 -0.0963 -3.0383  0.8471
    1MOL    H53   53   1.650   0.281   4.524  0.7526 -0.2245  0.1335
    1MOL    H54   54   1.462   0.194   4.660 -0.3986  1.3560 -1.3860
    1MOL    H55   55   1.255   0.061   4.640  1.6883 -1.5627  2.2910
    1MOL    H56   56   1.074   7.673   4.371 -1.3698 -2.0130  1.3333
    1MOL    H57   57   0.841   7.618   4.317 -1.8706  1.0249 -0.6277
    1MOL    C58   58   1.806   0.162   4.490 -0.0761 -0.6021 -0.0795
    1MOL    C59   59   1.887   0.290   4.508 -0.1772 -0.3273 -0.2097
    1MOL    C60   60   2.018   0.283   4.553 -0.3210 -0.1853  0.4076
    1MOL    C61   61   2.094   0.405   4.571  0.1825 -0.0162  0.9513
    1MOL    C62   62   2.029   0.531   4.540 -0.7622  0.2270  0.1460
    1MOL    C63   63   2.099   0.665   4.557 -0.2597 -0.2481 -0.8867
    1MOL    N64   64   2.087   0.766   4.471 -0.1592  0.1962 -0.3224
    1MOL    C65   65   2.006   0.789   4.357 -0.0019 -0.2802 -0.2202
    1MOL    C66   66   1.957   0.919   4.357  0.4778  0.2203  0.1954
    1MOL    C67   67   1.862   0.957   4.261  0.1190  0.9415  0.4722
    1MOL    C68   68   1.812   0.862   4.171  0.0664  0.0170 -0.4612
    1MOL    N69   69   1.716   0.896   4.068  0.2563  0.1915 -0.7379
    1MOL    C70   70   1.861   0.728   4.175  0.1481 -0.0126 -0.6108
    1MOL    C71   71   1.962   0.695   4.264 -0.7923 -0.3635  0.1928
    1MOL    O72   72   2.178   0.683   4.651  0.1390  0.6803 -0.0964
    1MOL    C73   73   1.894   0.529   4.507 -0.3673  0.0925 -0.8943
    1MOL    C74   74   1.827   0.415   4.478 -0.4460  0.0744 -0.0121
    1MOL    O75   75   1.863   0.052   4.477 -0.7055  0.1589  0.3328
    1MOL    H76   76   2.069   0.194   4.587  1.5564  0.8607  0.4140
    1MOL    H77   77   2.192   0.409   4.617  0.4698 -1.7508  0.5453
    1MOL    H78   78   2.149   0.843   4.489 -0.0157  0.4739 -1.8810
    1MOL    H79   79   1.990   0.993   4.427  2.1640 -2.2018  2.0153
    1MOL    H80   80   1.823   1.057   4.253 -0.0174  1.0702  2.6959
    1MOL    H81   81   1.664   0.817   4.033  2.7110 -1.3778 -1.0416
    1MOL    H82   82   1.825   0.655   4.104  0.7191 -1.5681  0.6781
    1MOL    H83   83   1.989   0.591   4.253  1.6670  0.0868  1.7233
    1MOL    H84   84   1.835   0.620   4.506 -0.1661  0.2181 -1.6688
    1MOL    H85   85   1.727   0.424   4.438 -1.0769 -0.4101  1.3772
    1MOL    C86   86   1.696   1.007   3.989 -0.4430  0.0349 -0.0691
    1MOL    C87   87   1.584   1.000   3.882  0.0549 -0.1719 -0.0885
    1MOL    C88   88   1.456   0.936   3.916  0.0180 -0.6025 -0.8660
    1MOL    C89   89   1.361   0.928   3.811  0.8746  0.3893 -0.0941
    1MOL    C90   90   1.367   0.997   3.693 -0.1608 -0.4088  0.0671
    1MOL    C91   91   1.239   1.003   3.608  0.0208 -0.3204  0.2572
    1MOL    N92   92   1.188   0.883   3.570 -0.6484 -0.4659 -0.9200
    1MOL    C93   93   1.055   0.834   3.572  0.2042 -1.3851 -0.4265
    1MOL    C94   94   0.946   0.919   3.610 -0.1815 -0.0233 -0.0858
    1MOL    C95   95   0.821   0.855   3.611 -0.2742  0.2990  0.2550
    1MOL    C96   96   0.802   0.725   3.577  0.4545  0.2875 -0.0282
    1MOL    N97   97   0.666   0.679   3.564 -0.3913 -0.5736  0.0039
    1MOL    C98   98   0.910   0.638   3.541  0.7473  0.0057 -0.0168
    1MOL    C99   99   1.035   0.698   3.539  0.3665 -0.2363  0.8960
    1MOL   O100  100   1.184   1.110   3.587  0.1866 -0.3668  0.1619
    1MOL   C101  101   1.490   1.072   3.663  0.3890 -0.3376 -0.3280
    1MOL   C102  102   1.599   1.068   3.756 -0.2614  0.0293  0.1744
    1MOL   O103  103   1.753   1.115   4.002  0.0525 -0.1073  0.0108
    1MOL   H104  104   1.439   0.894   4.014  0.6129 -1.4185 -1.1082
    1MOL   H105  105   1.270   0.880   3.844  1.6969 -0.4462  0.9761
    1MOL   H106  106   1.262   0.815   3.556  0.6765  0.8088 -0.1830
    1MOL   H107  107   0.953   1.023   3.640  0.9187  0.8021 -2.9893
    1MOL   H108  108   0.744   0.925   3.639 -0.3035 -0.3866  1.9633
    1MOL   H109  109   0.598   0.751   3.543  0.4491 -0.1192 -1.1951
    1MOL   H110  110   0.901   0.537   3.504  1.6457 -1.0079  2.4231
    1MOL   H111  111   1.123   0.641   3.511  0.5169 -0.6496  2.1364
    1MOL   H112  112   1.488   1.131   3.572  2.1805  1.3787  0.7185
    1MOL   H113  113   1.688   1.122   3.729 -0.3431 -0.0818 -0.3233
    1MOL   C114  114   0.618   0.554   3.578  0.4642 -0.0291 -0.1371
    1MOL   C115  115   0.468   0.537   3.538  0.5871  0.5843 -0.6407
    1MOL   C116  116   0.397   0.428   3.582  0.0387  0.1066 -0.5698
    1MOL   C117  117   0.257   0.416   3.548 -0.6835 -0.2301  0.2973
    1MOL   C118  118   0.195   0.519   3.475 -0.1735  0.0553 -0.0695
    1MOL   C119  119   0.045   0.520   3.453 -0.1426  0.1979 -0.0499
    1MOL   N120  120   8.124   0.473   3.560  0.2787  0.0134  0.6419
    1MOL   C121  121   7.983   0.464   3.585  0.0425  0.4165 -0.2825
    1MOL   C122  122   7.943   0.390   3.699 -0.3371 -0.5366 -0.4409
    1MOL   C123  123   7.808   0.373   3.730 -0.5397 -0.1177  0.1030
    1MOL   C124  124   7.713   0.426   3.639  0.5860 -0.2685 -0.2972
    1MOL   N125  125   7.574   0.409   3.648  0.6150  0.0117 -0.1186
    1MOL   C126  126   7.760   0.494   3.525  0.6166  0.7716  0.3018
    1MOL   C127  127   7.892   0.522   3.500  0.3696  0.0428  0.0831
    1MOL   O128  128   8.138   0.551   3.347  0.0196 -0.1917  0.2768
    1MOL   C129  129   0.266   0.628   3.431 -0.2261 -0.6257 -0.2613
    1MOL   C130  130   0.401   0.638   3.458 -0.4942  0.0930 -0.0830
    1MOL   O131  131   0.678   0.462   3.636 -0.1463 -0.0605 -0.2460
    1MOL   H132  132   0.445   0.355   3.646 -2.7384 -0.0271  1.4209
    1MOL   H133  133   0.191   0.335   3.573 -1.1661  0.8672  2.7143
    1MOL   H134  134   0.022   0.475   3.651 -1.0271  1.2878  1.2582
    1MOL   H135  135   8.020   0.358   3.768 -0.7774  1.8440  1.2269
    1MOL   H136  136   7.784   0.325   3.824  0.4147  0.4034  0.6207
    1MOL   H137  137   7.531   0.394   3.558  1.6272  0.1426 -0.6362
    1MOL   H138  138   7.689   0.529   3.450 -0.8180 -0.3460  1.1181
    1MOL   H139  139   7.915   0.586   3.417  0.7570 -0.8907 -0.5321
    1MOL   H140  140   0.224   0.710   3.377  0.5973 -0.0986 -0.1189
    1MOL   H141  141   0.445   0.730   3.424  0.1805  0.0023  0.5331
    1MOL   C142  142   7.502   0.386   3.763 -0.7576  0.7451  0.0180
    1MOL   C143  143   7.364   0.325   3.743 -0.3558  0.2832 -0.1191
    1MOL   C144  144   7.291   0.355   3.627  0.2880  0.3668  0.6073
    1MOL   C145  145   7.162   0.307   3.612  0.0389 -0.1422  0.0102
    1MOL   C146  146   7.098   0.229   3.712 -0.5415 -0.1904 -0.1284
    1MOL   C147  147   6.962   0.170   3.677  0.1247 -0.0082  0.0492
    1MOL   N148  148   6.943   0.043   3.725  0.5827  0.1348  0.1227
    1MOL   C149  149   6.830   8.106   3.740 -0.2164 -0.1482  0.8000
    1MOL   C150  150   6.850   7.971   3.789 -0.1426  0.4374 -0.4449
    1MOL   C151  151   6.736   7.883   3.806 -0.6328 -0.1609  0.5799
    1MOL   C152  152   6.609   7.931   3.775 -0.1342 -0.7871  0.1089
    1MOL   N153  153   6.484   7.864   3.809  0.5293 -0.6350 -0.0806
    1MOL   C154  154   6.592   8.060   3.717 -0.2427  0.4177 -0.0726
    1MOL   C155  155   6.702   0.001   3.702  0.2127  0.0227 -0.2403
    1MOL   O156  156   6.873   0.243   3.629 -0.0992  0.0485 -0.1524
    1MOL   C157  157   7.174   0.201   3.830  0.2483 -0.7050  0.4142
    1MOL   C158  158   7.304   0.249   3.848 -0.3278  0.5377 -0.6780
    1MOL   O159  159   7.544   0.406   3.875 -0.1584 -0.6405 -0.3274
    1MOL   H160  160   7.331   0.415   3.547  1.3833 -0.4968  0.4883
    1MOL   H161  161   7.099   0.329   3.527 -0.5913  0.9175  0.7447
    1MOL   H162  162   7.019   8.144   3.775 -0.2296 -1.4681 -0.0811
    1MOL   H163  163   6.952   7.936   3.801 -0.0385  0.7002 -0.5634
    1MOL   H164  164   6.748   7.781   3.840 -0.0962 -0.1644  0.3865
    1MOL   H165  165   6.400   7.918   3.797  0.5662 -0.5362  0.1015
    1MOL   H166  166   6.491   8.086   3.688 -0.4067 -0.4347 -0.2573
    1MOL   H167  167   6.693   0.102   3.666 -0.5202  0.1652  0.3502
    1MOL   H168  168   7.128   0.135   3.903  1.4073 -0.9000  0.9849
    1MOL   H169  169   7.356   0.233   3.942 -0.6155 -0.8872 -0.7570
    1MOL   C170  170   6.467   7.743   3.876  0.3478 -0.2719  0.0518
    1MOL   C171  171   6.333   7.713   3.925  0.0478  0.0838  0.5231
    1MOL   C172  172   6.309   7.628   4.036  0.0109 -0.4424 -0.3470
    1MOL   C173  173   6.179   7.616   4.081 -0.1226 -0.5074  0.3497
    1MOL   C174  174   6.069   7.674   4.023 -0.0354 -0.0847  0.2826
    1MOL   C175  175   5.934   7.643   4.084  0.2884  0.7592  0.5566
    1MOL   N176  176   5.852   7.738   4.133 -0.3483  0.0925 -0.2242
    1MOL   C177  177   5.856   7.882   4.127 -0.4461 -0.1770  0.1535
    1MOL   C178  178   5.730   7.944   4.139 -0.3223 -0.4909 -0.1875
    1MOL   C179  179   5.721   8.088   4.141  0.0279 -0.2794  0.2421
    1MOL   C180  180   5.845   0.017   4.121  0.2047 -0.0239  0.1728
    1MOL   N181  181   5.843   0.158   4.117  0.2064 -0.4649 -0.9307
    1MOL   C182  182   5.966   8.096   4.117  0.2465  0.0194 -0.0452
    1MOL   C183  183   5.974   7.958   4.126  0.1149 -0.4754  0.0047
    1MOL   O184  184   5.905   7.525   4.090 -0.2702  0.3775  0.0022
    1MOL   C185  185   6.086   7.746   3.902  0.5325 -0.0164 -0.2561
    1MOL   C186  186   6.216   7.766   3.859 -0.5444  0.1232 -0.2708
    1MOL   O187  187   6.560   7.662   3.898  0.2131  0.4579  0.0660
    1MOL   H188  188   6.388   7.575   4.088 -0.3051 -1.6495 -1.0873
    1MOL   H189  189   6.160   7.556   4.169  0.7545 -1.4127 -0.0701
    1MOL   H190  190   5.769   7.695   4.173  0.1379 -1.1744 -0.5457
    1MOL   H191  191   5.641   7.882   4.146  0.0545 -0.9113  1.1054
    1MOL   H192  192   5.628   8.137   4.166 -0.0080  0.3097 -1.0317
    1MOL   H193  193   5.934   0.197   4.095 -0.4328  1.4299 -0.2820
    1MOL   H194  194   6.061   0.001   4.124 -0.0759  0.4652  1.2705
    1MOL   H195  195   6.073   7.915   4.126  0.1383 -0.4910  2.5774
    1MOL   H196  196   5.998   7.783   3.851  0.1542 -0.4071  0.1114
    1MOL   H197  197   6.228   7.832   3.775  0.2613  0.0188 -0.2410
    1MOL   C198  198   5.755   0.249   4.164 -0.2310  0.7047 -0.0195
    1MOL   C199  199   5.804   0.393   4.169 -0.0148  0.1094 -0.4874
    1MOL   C200  200   5.776   0.472   4.282  0.5584 -0.0446 -0.0219
    1MOL   C201  201   5.812   0.607   4.289 -0.1204 -0.3506  0.3302
    1MOL   C202  202   5.866   0.672   4.177  0.1967 -0.2375 -0.3752
    1MOL   C203  203   5.882   0.828   4.188  0.0796  0.1339 -0.0301
    1MOL   N204  204   5.969   0.877   4.098 -0.0571 -0.2429  0.0583
    1MOL   C205  205   6.016   1.008   4.064 -0.2571  0.8105  0.0024
    1MOL   C206  206   6.117   1.015   3.966 -0.2537  0.0188 -0.3813
    1MOL   C207  207   6.161   1.139   3.916  0.8906 -0.5341 -0.0165
    1MOL   C208  208   6.098   1.260   3.964 -0.0554  0.0391 -0.2469
    1MOL   N209  209   6.146   1.380   3.910  0.1628 -0.5956  0.1159
    1MOL   C210  210   5.991   1.252   4.060 -0.0453 -0.4531 -0.1007
    1MOL   C211  211   5.956   1.127   4.112 -0.2712 -0.4242  0.4600
    1MOL   O212  212   5.812   0.903   4.260  0.6118  0.0742 -0.0385
    1MOL   C213  213   5.895   0.598   4.060 -0.7544  0.6993  0.1611
    1MOL   C214  214   5.865   0.456   4.057  0.1073  0.6295 -0.0722
    1MOL   O215  215   5.643   0.221   4.202 -0.4279 -0.2853 -0.2907
    1MOL   H216  216   5.727   0.422   4.364 -0.6042 -0.1204 -0.7608
    1MOL   H217  217   5.775   0.664   4.373  1.6069  0.1108  0.8053
    1MOL   H218  218   6.016   0.806   4.042  0.3412  0.6500 -0.7507
    1MOL   H219  219   6.184   0.933   3.946 -0.1491  0.3652 -1.4286
    1MOL   H220  220   6.238   1.140   3.841  0.3328  0.9555 -0.6025
    1MOL   H221  221   6.243   1.391   3.884 -0.4578  1.3375 -1.6257
    1MOL   H222  222   5.935   1.336   4.100 -0.9007  0.0969 -2.3556
    1MOL   H223  223   5.884   1.123   4.192 -0.7935 -1.9292 -0.0648
    1MOL   H224  224   5.947   0.630   3.971 -0.7766  1.9580  0.5871
    1MOL   H225  225   5.864   0.409   3.960 -1.8363 -0.1725  0.3109
    1MOL   C226  226   6.072   1.470   3.852 -0.1540 -0.0491 -0.0032
    1MOL   C227  227   6.148   1.561   3.758 -0.2496 -0.0617 -0.1939
    1MOL   C228  228   6.102   1.580   3.622 -0.4833 -0.2064 -0.5000
    1MOL   C229  229   6.172   1.657   3.529  0.1358  0.3450  1.0736
    1MOL   C230  230   6.291   1.719   3.569 -0.0053  0.6711  0.2763
    1MOL   C231  231   6.380   1.772   3.467  0.1672 -0.8836 -0.1586
    1MOL   N232  232   6.478   1.855   3.513  0.9498  0.2259  0.2029
    1MOL   C233  233   6.602   1.895   3.458  0.0649  0.0053 -0.3351
    1MOL   C234  234   6.679   1.986   3.539  0.5109 -0.4641  0.3238
    1MOL   C235  235   6.813   2.015   3.508 -0.9665 -0.0410 -0.4233
    1MOL   C236  236   6.863   1.970   3.386  0.0990 -0.5663  0.2100
    1MOL   N237  237   6.998   2.008   3.358  0.1582  0.5336  0.3829
    1MOL   C238  238   6.794   1.875   3.306 -0.6430 -0.3160  0.8504
    1MOL   C239  239   6.662   1.843   3.341  0.9691  0.0855  0.1417
    1MOL   O240  240   6.365   1.743   3.349  0.0841 -0.2268 -0.2158
    1MOL   C241  241   6.344   1.698   3.702  0.3768 -0.4537 -0.1238
    1MOL   C242  242   6.269   1.621   3.796 -0.9925 -0.4483 -0.2614
    1MOL   O243  243   5.951   1.484   3.855 -0.6643 -0.2875  0.4404
    1MOL   H244  244   6.015   1.527   3.588 -0.4853 -2.0897  2.3008
    1MOL   H245  245   6.142   1.671   3.426  0.6382  0.5780  0.9565
    1MOL   H246  246   6.467   1.897   3.604  0.4186  0.5655 -0.0135
    1MOL   H247  247   6.631   2.026   3.627  0.6200 -0.9510  0.6053
    1MOL   H248  248   6.876   2.075   3.573 -0.2764 -3.6448  2.3725
    1MOL   H249  249   7.046   2.056   3.432 -0.3634 -1.7212  2.2620
    1MOL   H250  250   6.831   1.832   3.214 -1.0053  1.1147  0.0330
    1MOL   H251  251   6.601   1.785   3.274  1.3122  0.0081 -0.1013
    1MOL   H252  252   6.432   1.755   3.731 -2.0499  2.7106  1.2731
    1MOL   H253  253   6.306   1.616   3.897 -1.1808  0.4057 -0.1419
    1MOL   C254  254   7.086   1.985   3.260  0.2677 -0.1694  0.4650
    1MOL   C255  255   7.037   1.938   3.124 -0.2509  0.1461  0.4030
    1MOL   C256  256   6.933   2.004   3.063 -0.2985  0.0560 -0.3271
    1MOL   C257  257   6.884   1.962   2.939  0.2993  0.0483  0.1855
    1MOL   C258  258   6.961   1.871   2.863 -0.9135 -0.2759  0.1059
    1MOL   C259  259   6.913   1.832   2.727  0.0769  0.4717  0.5091
    1MOL   N260  260   7.020   1.814   2.646  0.5485  0.4323 -0.5080
    1MOL   C261  261   7.027   1.762   2.520 -0.1546  0.1806  0.7764
    1MOL   C262  262   6.913   1.741   2.442  0.0491  0.0435  0.7684
    1MOL   C263  263   6.919   1.672   2.321  0.7244  0.8838  0.0369
    1MOL   C264  264   7.041   1.629   2.265 -0.1440 -0.0725  0.6289
    1MOL   N265  265   7.056   1.548   2.152  0.2808 -0.2926  0.2468
    1MOL   C266  266   7.149   1.643   2.354  0.5567 -0.0619  0.1923
    1MOL   C267  267   7.144   1.706   2.474 -0.3099 -0.1203 -0.6273
    1MOL   O268  268   6.790   1.834   2.706 -0.2018  0.6472 -0.1103
    1MOL   C269  269   7.074   1.809   2.922  0.2570  0.8145  0.0211
    1MOL   C270  270   7.116   1.847   3.052 -0.2107  0.7120 -0.1742
    1MOL   O271  271   7.207   1.992   3.277 -0.5534 -0.3348 -0.8423
    1MOL   H272  272   6.874   2.084   3.106  0.3217 -0.8825  2.3798
    1MOL   H273  273   6.798   2.012   2.897  2.3715  1.9251 -1.9430
    1MOL   H274  274   7.108   1.840   2.688  1.4673 -0.1033 -2.0477
    1MOL   H275  275   6.820   1.779   2.483  0.7470  3.3811 -0.5326
    1MOL   H276  276   6.824   1.670   2.269 -0.6861  2.4547  2.4534
    1MOL   H277  277   7.154   1.541   2.128  0.3398 -0.0008  0.4014
    1MOL   H278  278   7.248   1.621   2.317  0.2544  1.0589 -1.3186
    1MOL   H279  279   7.234   1.712   2.534 -0.9374 -2.1445  0.5714
    1MOL   H280  280   7.129   1.735   2.867 -0.4837 -0.4203  0.9247
    1MOL   H281  281   7.196   1.790   3.097 -1.0492 -0.2868  0.0705
    1MOL   C282  282   6.975   1.458   2.094 -0.4772  0.0427 -0.1127
    1MOL   C283  283   7.045   1.366   1.995  0.3033 -0.2053 -0.0089
    1MOL   C284  284   7.159   1.403   1.918 -0.4080 -0.2958  0.2522
    1MOL   C285  285   7.222   1.316   1.823 -0.2445  0.6090  0.8568
    1MOL   C286  286   7.169   1.186   1.808 -0.3247  0.2589  0.1244
    1MOL   C287  287   7.219   1.097   1.700 -0.0428 -0.1446 -0.3739
    1MOL   N288  288   7.339   1.129   1.652  0.9308 -0.5397  0.1890
    1MOL   C289  289   7.392   1.092   1.528  0.1418  0.1391  0.0227
    1MOL   C290  290   7.308   1.077   1.416 -0.3107  0.3253 -0.9083
    1MOL   C291  291   7.365   1.073   1.287  0.0983  0.7474 -0.2888
    1MOL   C292  292   7.503   1.040   1.277 -0.0004 -0.2350 -0.6779
    1MOL   N293  293   7.554   1.042   1.147 -0.0571 -0.1929 -0.1414
    1MOL   C294  294   7.582   1.033   1.391 -0.1132  0.1553 -0.6443
    1MOL   C295  295   7.532   1.074   1.515  0.0894  0.3320 -0.1333
    1MOL   O296  296   7.166   0.990   1.671 -1.1491 -1.0073 -0.2243
    1MOL   C297  297   7.062   1.141   1.890 -0.1328 -0.3293  0.3600
    1MOL   C298  298   7.004   1.232   1.983 -0.0823  0.0711  0.1641
    1MOL   O299  299   6.857   1.435   2.125  0.5721 -0.1430 -0.2494
    1MOL   H300  300   7.199   1.503   1.916 -0.3197 -0.3406 -0.7347
    1MOL   H301  301   7.303   1.349   1.760 -0.1582 -1.0955  0.0639
    1MOL   H302  302   7.401   1.172   1.720 -0.3035  0.3534  0.7756
    1MOL   H303  303   7.201   1.091   1.426 -0.2420  0.3078 -0.0702
    1MOL   H304  304   7.302   1.078   1.200 -2.1538  2.3141  1.3544
    1MOL   H305  305   7.495   1.091   1.081  0.1817 -0.4763 -0.5688
    1MOL   H306  306   7.690   1.032   1.390 -0.0905  1.3921 -0.7973
    1MOL   H307  307   7.596   1.094   1.599 -2.8924 -0.8229  2.4938
    1MOL   H308  308   7.025   1.040   1.877  0.4162 -0.2788 -1.7071
    1MOL   H309  309   6.922   1.191   2.040 -0.0429 -1.1390 -0.6314
    1MOL   C310  310   7.677   1.005   1.097  0.1041  0.2392 -0.0287
    1MOL   C311  311   7.703   1.049   0.959  0.0710 -0.5449 -0.0610
    1MOL   C312  312   7.838   1.062   0.920 -0.7858 -0.5256 -0.0607
    1MOL   C313  313   7.875   1.134   0.805  0.0939 -0.1681  0.1071
    1MOL   C314  314   7.772   1.188   0.728  0.3358 -0.0612  0.8136
    1MOL   C315  315   7.808   1.264   0.608  0.4690 -0.5595  0.8433
    1MOL   N316  316   7.817   1.388   0.652  0.3075 -1.3745  0.3114
    1MOL   C317  317   7.855   1.507   0.580  0.2347  0.2908 -0.3911
    1MOL   C318  318   7.845   1.516   0.440 -0.0245  0.3814 -0.0724
    1MOL   C319  319   7.875   1.640   0.382  0.0321  0.0531  0.4005
    1MOL   C320  320   7.903   1.753   0.461  0.1991 -0.7965  0.3397
    1MOL   N321  321   7.915   1.884   0.403  0.0540 -0.3300 -0.1361
    1MOL   C322  322   7.898   1.742   0.599  0.3091 -0.2942 -0.2218
    1MOL   C323  323   7.886   1.614   0.659 -0.1833 -0.1107  0.2814
    1MOL   O324  324   7.849   1.217   0.505  0.4827  0.4196 -0.1010
    1MOL   C325  325   7.636   1.176   0.767 -0.6733 -0.3645 -0.1597
    1MOL   C326  326   7.598   1.099   0.875 -0.4459 -0.4245 -0.5540
    1MOL   O327  327   7.755   0.931   1.157  0.3374  0.4001 -0.1382
    1MOL   H328  328   7.920   1.024   0.979  0.6872  0.2461 -1.5738
    1MOL   H329  329   7.979   1.152   0.782  0.0146  0.6102  0.3302
    1MOL   H330  330   7.807   1.406   0.751  1.1333  0.5329  0.0768
    1MOL   H331  331   7.816   1.434   0.376 -0.4493 -1.0630  1.9329
    1MOL   H332  332   7.858   1.651   0.276  0.4816  0.0821  0.3300
    1MOL   H333  333   7.860   1.899   0.320  0.4578 -0.7144 -0.4760
    1MOL   H334  334   7.913   1.825   0.666  0.1147  0.9850 -1.7468
    1MOL   H335  335   7.901   1.600   0.765  0.0331 -0.6367  0.1859
    1MOL   H336  336   7.561   1.217   0.702  1.4046  1.5298 -1.4382
    1MOL   H337  337   7.491   1.103   0.892  0.2156  0.9949  4.1052
    1MOL   C338  338   7.955   2.002   0.455  0.0663  0.1207  0.6192
    1MOL   C339  339   7.908   2.128   0.387 -0.6117 -0.3252  0.5329
    1MOL   C340  340   7.946   2.153   0.251 -0.0943 -0.6129  0.2120
    1MOL   C341  341   7.914   2.273   0.184  0.1112 -0.8236 -0.4131
    1MOL   C342  342   7.850   2.373   0.259  0.3223 -0.2151 -0.2103
    1MOL   C343  343   7.809   2.506   0.196 -0.7870 -0.0545 -0.0769
    1MOL   N344  344   7.768   2.608   0.276 -0.0968  0.1459  0.2102
    1MOL   C345  345   7.676   2.712   0.240 -0.3057  0.1135 -0.1160
    1MOL   C346  346   7.685   2.827   0.316  0.3490  0.2453  0.3167
    1MOL   C347  347   7.604   2.940   0.283 -0.3071 -0.2287  0.4175
    1MOL   C348  348   7.510   2.925   0.181  0.4912 -0.0881  0.5771
    1MOL   N349  349   7.415   3.025   0.153  0.2967 -0.6736 -0.2518
    1MOL   C350  350   7.488   2.800   0.115 -0.3315  0.4863 -0.4101
    1MOL   C351  351   7.579   2.697   0.139  0.0069  0.2114 -0.4893
    1MOL   O352  352   7.812   2.518   0.071  0.2714 -0.3913  0.1326
    1MOL   C353  353   7.812   2.356   0.398 -0.2646  0.5267 -0.0639
    1MOL   C354  354   7.840   2.231   0.459  0.6642 -0.1141  0.6115
    1MOL   O355  355   8.018   2.014   0.561 -0.8412  0.3518 -0.2252
    1MOL   H356  356   8.009   2.090   0.191 -2.0724 -1.2780 -1.2393
    1MOL   H357  357   7.935   2.295   0.080  0.2195 -0.1345 -0.2482
    1MOL   H358  358   7.792   2.604   0.374  0.0063 -0.7698  0.1491
    1MOL   H359  359   7.754   2.841   0.398  1.1146  0.9643 -0.4287
    1MOL   H360  360   7.620   3.034   0.334  0.3843  0.8160 -1.6928
    1MOL   H361  361   7.321   3.005   0.123  0.5194  0.7275 -1.9067
    1MOL   H362  362   7.411   2.782   0.040 -0.3423  2.2512 -0.8290
    1MOL   H363  363   7.588   2.601   0.092  1.3908 -0.9222  1.9716
    1MOL   H364  364   7.760   2.438   0.445  1.3621  0.9462  1.0551
    1MOL   H365  365   7.817   2.216   0.563 -2.0240 -0.9889 -0.0626
    1MOL   C366  366   7.441   3.159   0.156 -0.2546 -0.1894 -0.5908
    1MOL   C367  367   7.323   3.255   0.129 -0.1378 -0.4926  0.9342
    1MOL   C368  368   7.319   3.377   0.201  0.6193  0.5796 -0.8830
    1MOL   C369  369   7.206   3.462   0.191 -0.4497  0.2968  0.4522
    1MOL   C370  370   7.103   3.428   0.103  0.1112 -0.1954 -0.1751
    1MOL   C371  371   6.982   3.517   0.097 -0.2862  0.1561 -0.5187
    1MOL   N372  372   6.858   3.463   0.095  0.3044 -0.3636  0.8013
    1MOL   C373  373   6.841   3.331   0.141  0.0774 -0.0046  0.0009
    1MOL   C374  374   6.864   3.300   0.278 -0.3214 -0.2915 -1.2385
    1MOL   C375  375   6.853   3.166   0.316  0.1105  0.6402 -0.6477
    1MOL   C376  376   6.838   3.058   0.225 -0.8920  0.2604 -0.3019
    1MOL   N377  377   6.864   2.924   0.265 -0.0494  0.2424 -0.1507
    1MOL   C378  378   6.811   3.093   0.095  0.5067 -0.3929 -0.0101
    1MOL   C379  379   6.807   3.225   0.052  0.2211 -0.3019  0.5956
    1MOL   O380  380   7.001   3.636   0.078  0.2440  0.0604 -0.4340
    1MOL   C381  381   7.110   3.311   0.021  0.4520  0.7440 -0.1800
    1MOL   C382  382   7.221   3.219   0.044 -0.1841  0.6600  0.6296
    1MOL   O383  383   7.552   3.207   0.168 -0.2000 -0.0544 -0.3014
    1MOL   H384  384   7.407   3.400   0.259  0.7279 -0.4175 -0.6517
    1MOL   H385  385   7.200   3.554   0.246  0.3506  2.8143 -3.4463
    1MOL   H386  386   6.781   3.519   0.061  0.8444  0.2741  0.6268
    1MOL   H387  387   6.895   3.383   0.341  2.1086 -2.7574  0.9588
    1MOL   H388  388   6.863   3.139   0.420  1.3123  0.2022 -0.8701
    1MOL   H389  389   6.828   2.884   0.350  1.2410 -0.0117  0.2824
    1MOL   H390  390   6.805   3.020   0.016  0.6975  0.8120 -1.1658
    1MOL   H391  391   6.782   3.237   8.094  1.0315  1.3696  0.5726
    1MOL   H392  392   7.037   3.288   8.091 -1.1636 -1.7739  2.0418
    1MOL   H393  393   7.227   3.127   8.133  1.4238  0.7595  0.6387
    1MOL   C394  394   6.961   2.846   0.217 -0.1893  0.5415 -0.3982
    1MOL   C395  395   6.978   2.715   0.300  0.2608 -0.5277  0.3104
    1MOL   C396  396   6.873   2.662   0.385 -0.7172 -0.9874 -0.3983
    1MOL   C397  397   6.886   2.545   0.463  0.0991 -0.1419 -0.1468
    1MOL   C398  398   7.016   2.482   0.458  0.3352 -0.0895  0.0444
    1MOL   C399  399   7.046   2.367   0.550  0.0513 -0.5041 -0.1801
    1MOL   N400  400   6.940   2.327   0.627  0.9231 -0.0321 -0.6624
    1MOL   C401  401   6.937   2.243   0.746  0.0686  0.4470 -0.7035
    1MOL   C402  402   7.034   2.148   0.791 -0.3929 -0.1835 -0.4881
    1MOL   C403  403   7.012   2.073   0.908 -1.0296  0.9387  0.5660
    1MOL   C404  404   6.895   2.087   0.982  0.3081  0.0862  0.3263
    1MOL   N405  405   6.867   2.027   1.108  0.3199  0.8873  0.1615
    1MOL   C406  406   6.799   2.180   0.932  0.0826  0.3530  0.3282
    1MOL   C407  407   6.811   2.253   0.810  0.6792  0.1773  0.4523
    1MOL   O408  408   7.155   2.309   0.551 -0.6830 -0.3748 -0.2337
    1MOL   C409  409   7.112   2.529   0.365 -0.0213  0.5002  0.4070
    1MOL   C410  410   7.092   2.645   0.283 -0.6910 -0.2593  0.4657
    1MOL   O411  411   7.028   2.877   0.117  0.3366  0.1034  0.4610
    1MOL   H412  412   6.783   2.719   0.398  0.8254  0.9970  2.0813
    1MOL   H413  413   6.807   2.511   0.528  0.2780 -2.3656 -1.0489
    1MOL   H414  414   6.854   2.378   0.614  0.3785 -1.0611 -1.1943
    1MOL   H415  415   7.121   2.129   0.729 -1.6540 -0.3261 -2.2480
    1MOL   H416  416   7.089   2.012   0.953 -2.2534  0.3884  1.9742
    1MOL   H417  417   6.770   2.038   1.136  0.8298  3.0095  1.2536
    1MOL   H418  418   6.719   2.198   1.003  0.5704  3.3216  0.2100
    1MOL   H419  419   6.731   2.313   0.770  1.0467  0.2433 -0.1927
    1MOL   H420  420   7.208   2.478   0.366  0.2448  1.0137  2.3876
    1MOL   H421  421   7.173   2.671   0.216  0.4487 -1.5275  1.3233
    1MOL   C422  422   6.953   2.005   1.210  0.2750 -0.1402  0.0429
    1MOL   C423  423   6.879   2.002   1.341 -0.1723 -0.8382 -0.3085
    1MOL   C424  424   6.848   2.124   1.403  0.7013  0.0164 -0.1208
    1MOL   C425  425   6.767   2.130   1.517  0.0715  0.0795 -0.1778
    1MOL   C426  426   6.728   2.011   1.580  0.0302  0.2621  0.2790
    1MOL   C427  427   6.635   2.013   1.693  0.4091  0.5060  0.0643
    1MOL   N428  428   6.652   2.127   1.762  0.3728  0.9141 -0.6927
    1MOL   C429  429   6.579   2.186   1.862 -0.0377 -0.5252 -0.2016
    1MOL   C430  430   6.609   2.322   1.893 -0.0762  0.4481 -0.1916
    1MOL   C431  431   6.525   2.383   1.991  0.2322 -0.4116 -0.4324
    1MOL   C432  432   6.424   2.314   2.061 -0.2490 -0.7227  0.1079
    1MOL   N433  433   6.347   2.381   2.153 -0.1859  0.2150  0.2127
    1MOL   C434  434   6.411   2.174   2.042  0.0308  0.0456 -0.0655
    1MOL   C435  435   6.479   2.115   1.931 -0.0007  0.4425 -0.2574
    1MOL   O436  436   6.556   1.919   1.725  0.2714  0.2555  0.3947
    1MOL   C437  437   6.771   1.891   1.523  0.9919 -0.3978 -0.6235
    1MOL   C438  438   6.844   1.885   1.406  0.2305  0.4489 -0.2433
    1MOL   O439  439   7.073   1.980   1.199 -0.3902  0.0520  0.2068
    1MOL   H440  440   6.872   2.217   1.354  0.2657 -0.6841 -1.6974
    1MOL   H441  441   6.733   2.228   1.549 -3.0313 -0.8728 -0.3428
    1MOL   H442  442   6.729   2.183   1.726  0.2074  2.2809  1.0339
    1MOL   H443  443   6.685   2.377   1.840  0.5580  1.2124  1.4725
    1MOL   H444  444   6.546   2.489   2.002 -1.8114  0.1560 -1.6354
    1MOL   H445  445   6.246   2.370   2.152 -0.6270  3.4368  2.1743
    1MOL   H446  446   6.335   2.119   2.095  0.4640  0.6891  1.2639
    1MOL   H447  447   6.453   2.013   1.904 -0.2849  1.3028 -3.4550
    1MOL   H448  448   6.735   1.795   1.558 -0.7902  0.6103  0.3606
    1MOL   H449  449   6.861   1.787   1.363 -0.2472 -0.0601  0.6905
    1MOL   C450  450   6.380   2.478   2.239  0.2904 -0.2098  0.2287
    1MOL   C451  451   6.265   2.542   2.310 -0.2229  0.0659  0.1118
    1MOL   C452  452   6.158   2.461   2.354  0.1140 -0.3752  0.3216
    1MOL   C453  453   6.051   2.523   2.424 -0.0070  0.6181  0.1116
    1MOL   C454  454   6.060   2.659   2.452  0.0713  0.1189 -0.5160
    1MOL   C455  455   5.949   2.724   2.535  0.6572  0.2918  0.1850
    1MOL   N456  456   5.992   2.799   2.638 -0.1391  0.0261  0.0913
    1MOL   C457  457   5.911   2.853   2.744 -0.1191  0.3809 -0.6912
    1MOL   C458  458   5.791   2.919   2.718 -1.4842 -0.0151 -0.3512
    1MOL   C459  459   5.731   2.990   2.821 -0.5301  0.7976  1.0814
    1MOL   C460  460   5.785   3.005   2.948  0.2213  0.2837  0.3203
    1MOL   N461  461   5.715   3.064   3.057 -0.0521 -0.3918 -0.3281
    1MOL   C462  462   5.910   2.944   2.973  0.1614 -0.0329 -0.1084
    1MOL   C463  463   5.967   2.857   2.875 -0.2521 -0.1242 -0.3548
    1MOL   O464  464   5.830   2.701   2.516 -0.4512  0.0885 -0.0650
    1MOL   C465  465   6.159   2.743   2.395 -0.4360  0.3761 -0.2513
    1MOL   C466  466   6.260   2.682   2.320  0.2425  0.7275  0.0242
    1MOL   O467  467   6.480   2.537   2.248  0.6978  0.4364 -0.0081
    1MOL   H468  468   6.148   2.354   2.345 -0.4430 -0.3227  0.2926
    1MOL   H469  469   5.966   2.468   2.463  0.4880  0.7483  1.4030
    1MOL   H470  470   6.085   2.837   2.637  0.1933 -0.6413  2.0154
    1MOL   H471  471   5.742   2.929   2.622 -0.4307  0.8228 -0.8115
    1MOL   H472  472   5.635   3.038   2.810 -0.9320 -0.7125 -2.4057
    1MOL   H473  473   5.708   2.999   3.134  3.0033  0.2804  0.5736
    1MOL   H474  474   5.955   2.956   3.071  0.9934 -1.9074 -0.2573
    1MOL   H475  475   6.064   2.810   2.888 -0.1175 -0.3125 -1.9990
    1MOL   H476  476   6.155   2.850   2.404  0.0893  0.4114 -0.4198
    1MOL   H477  477   6.342   2.740   2.281  1.4311  0.0041  1.3933
    1MOL   C478  478   5.668   3.184   3.068  0.7265  0.2772  0.3156
    1MOL   C479  479   5.713   3.290   2.979 -0.1475  0.3224 -0.1986
    1MOL   C480  480   5.612   3.371   2.918  0.5599 -0.3636  0.0512
    1MOL   C481  481   5.652   3.467   2.824 -0.1965  0.3928  0.1600
    1MOL   C482  482   5.785   3.473   2.781 -0.2256 -0.5214 -0.8232
    1MOL   C483  483   5.820   3.559   2.667  0.2556 -0.0234  0.1750
    1MOL   N484  484   5.927   3.534   2.594 -0.3791 -0.2378  0.4424
    1MOL   C485  485   5.996   3.415   2.569 -0.4765  0.3760  0.3737
    1MOL   C486  486   6.121   3.432   2.509 -0.3893  0.2327 -0.2808
    1MOL   C487  487   6.210   3.323   2.481  0.6473  0.1266  0.2103
    1MOL   C488  488   6.178   3.199   2.538  0.7655  0.3586  0.4907
    1MOL   N489  489   6.268   3.095   2.511  0.3541  0.1182 -0.2169
    1MOL   C490  490   6.051   3.179   2.602  0.6950  0.3827 -0.1267
    1MOL   C491  491   5.954   3.286   2.610 -0.2126 -0.1341  0.9572
    1MOL   O492  492   5.747   3.652   2.630  0.1904  0.4616  0.7886
    1MOL   C493  493   5.884   3.410   2.856 -0.0019 -0.2992  0.7648
    1MOL   C494  494   5.849   3.316   2.954  0.3607  0.5396  0.2495
    1MOL   O495  495   5.583   3.207   3.156  0.0194  0.6552  0.4046
    1MOL   H496  496   5.512   3.346   2.949 -0.1371 -0.2466 -2.0542
    1MOL   H497  497   5.587   3.529   2.763  0.3524  0.0155 -0.8206
    1MOL   H498  498   5.947   3.601   2.521  0.2323  0.3271  1.1116
    1MOL   H499  499   6.143   3.532   2.477 -0.4070  0.1102 -0.6811
    1MOL   H500  500   6.303   3.335   2.428  1.2308  0.3479  1.2730
    1MOL   H501  501   6.332   3.113   2.435 -1.8382  0.0814 -2.1225
    1MOL   H502  502   6.018   3.082   2.636  1.8616  0.0948  0.2236
    1MOL   H503  503   5.852   3.275   2.642  0.1122 -0.0028  2.0639
    1MOL   H504  504   5.989   3.433   2.846  0.1676 -1.3425  0.1702
    1MOL   H505  505   5.932   3.260   2.995  0.7246 -1.3324 -2.9340
    1MOL   C506  506   6.297   2.982   2.572 -0.1466  0.0017 -0.2670
    1MOL   C507  507   6.422   2.916   2.524  0.0509  0.2740  0.4342
    1MOL   C508  508   6.512   2.990   2.443  0.2987  0.4890  0.1629
    1MOL   C509  509   6.630   2.935   2.401  0.3120 -0.4540  0.1635
    1MOL   C510  510   6.655   2.799   2.424  0.0801 -0.3341  0.0020
    1MOL   C511  511   6.768   2.741   2.356  0.3379  0.3571 -0.3631
    1MOL   N512  512   6.746   2.634   2.282  0.2330  0.4155  0.1011
    1MOL   C513  513   6.841   2.570   2.196  0.6211 -0.3463 -0.4884
    1MOL   C514  514   6.811   2.438   2.157 -0.2679  0.0969 -0.5313
    1MOL   C515  515   6.896   2.383   2.060 -0.1258 -0.1673  0.5023
    1MOL   C516  516   7.004   2.455   1.996  0.5114 -0.4945  0.1940
    1MOL   N517  517   7.084   2.402   1.890 -0.4824  0.5690  0.4617
    1MOL   C518  518   7.034   2.580   2.039  0.0269  0.3892 -0.9842
    1MOL   C519  519   6.956   2.639   2.144  0.4049  0.4822 -0.4897
    1MOL   O520  520   6.877   2.795   2.382  0.7464  0.2095 -0.0562
    1MOL   C521  521   6.570   2.722   2.502  0.6323 -0.2354 -0.1099
    1MOL   C522  522   6.456   2.787   2.565 -0.1087 -0.4393  0.4060
    1MOL   O523  523   6.228   2.930   2.662  0.5982  0.4560 -0.0934
    1MOL   H524  524   6.495   3.087   2.399 -0.5232 -0.8373 -2.5790
    1MOL   H525  525   6.693   2.998   2.341  1.8587 -1.0574  1.1214
    1MOL   H526  526   6.654   2.593   2.291  0.5452 -0.2026  0.4550
    1MOL   H527  527   6.724   2.379   2.183 -1.2572  1.8033  0.1140
    1MOL   H528  528   6.875   2.283   2.024 -1.6380  0.3829 -0.1711
    1MOL   H529  529   7.177   2.438   1.873 -0.4493  0.4242  0.3257
    1MOL   H530  530   7.105   2.642   1.987  0.4969  1.3757  0.7921
    1MOL   H531  531   6.972   2.741   2.173  1.4828 -0.5614  2.8846
    1MOL   H532  532   6.599   2.620   2.522 -2.4947 -1.4645 -1.5773
    1MOL   H533  533   6.390   2.732   2.630 -0.9192  0.3126  0.2348
    1MOL   C534  534   7.052   2.310   1.795 -0.3011  0.0056 -0.2222
    1MOL   C535  535   7.153   2.265   1.694  0.2217 -0.4301 -0.2890
    1MOL   C536  536   7.276   2.331   1.678  0.7487 -0.2108  0.8636
    1MOL   C537  537   7.366   2.294   1.576 -1.1386 -0.0853 -0.4949
    1MOL   C538  538   7.339   2.183   1.498  0.2433 -0.6725  0.6950
    1MOL   C539  539   7.444   2.134   1.397  0.7067  0.1548  0.5880
    1MOL   N540  540   7.407   2.029   1.319 -0.1927 -0.4067 -0.0271
    1MOL   C541  541   7.491   1.955   1.234 -0.1942  0.2394  0.0438
    1MOL   C542  542   7.629   1.935   1.259 -0.6733 -0.0269  0.4655
    1MOL   C543  543   7.701   1.844   1.178  0.4136 -0.6591  0.2304
    1MOL   C544  544   7.640   1.780   1.066  0.3431 -0.5407  0.0379
    1MOL   N545  545   7.711   1.685   0.996 -0.0885 -0.3458 -0.4083
    1MOL   C546  546   7.506   1.807   1.039 -0.1195 -0.5515  0.2170
    1MOL   C547  547   7.435   1.894   1.126  0.1487  0.2573  0.3122
    1MOL   O548  548   7.556   2.182   1.391 -0.3146  0.0900 -0.2447
    1MOL   C549  549   7.214   2.110   1.514 -0.0084  0.1456 -0.0883
    1MOL   C550  550   7.125   2.156   1.609  0.3975 -0.0050  1.1403
    1MOL   O551  551   6.938   2.266   1.781  0.0424 -0.2170 -0.5319
    1MOL   H552  552   7.297   2.418   1.738 -0.0625  1.4076 -1.1315
    1MOL   H553  553   7.463   2.340   1.570 -0.7445 -1.0310 -1.4718
    1MOL   H554  554   7.309   2.011   1.333 -0.2817  1.3310  1.8175
    1MOL   H555  555   7.679   1.971   1.348 -0.5597  1.3529 -0.1418
    1MOL   H556  556   7.801   1.825   1.215  1.0086 -0.1319 -1.0797
    1MOL   H557  557   7.786   1.633   1.039  0.1084  0.0807 -0.2408
    1MOL   H558  558   7.455   1.756   0.959 -1.1573  0.0123  0.5068
    1MOL   H559  559   7.329   1.908   1.116  0.3826  0.9622 -1.2507
    1MOL   H560  560   7.204   2.022   1.452  0.1700  0.7346 -0.9640
    1MOL   H561  561   7.033   2.101   1.618  0.7119 -0.5804  0.8873
    1MOL   H562  562   7.654   1.628   0.935 -1.4435  0.1573  0.3425
    2MOL     C1  563   1.698   4.636   4.465 -0.4384 -0.0876  0.0004
    2MOL     C2  564   1.598   4.732   4.508  0.1447  0.5600 -0.1914
    2MOL     C3  565   1.552   4.733   4.639 -0.7465  0.0734 -0.3782
    2MOL     C4  566   1.454   4.830   4.677 -0.3123 -0.2539  0.0382
    2MOL     C5  567   1.404   4.918   4.580 -0.9595 -0.3351  0.0778
    2MOL     C6  568   1.309   5.028   4.623  0.4678 -0.2470 -0.3496
    2MOL     N7  569   1.340   5.147   4.572 -0.2330 -0.0446  0.2210
    2MOL     C8  570   1.283   5.275   4.601 -0.0135  0.2130 -0.0670
    2MOL     C9  571   1.301   5.384   4.516  0.3897 -0.3254 -0.9810
    2MOL    C10  572   1.243   5.510   4.543  0.6064  0.4162 -0.1256
    2MOL    C11  573   1.174   5.533   4.667 -0.2440 -0.2279  0.1004
    2MOL    N12  574   1.099   5.649   4.681  0.4106 -0.1329  0.7945
    2MOL    C13  575   1.175   5.430   4.759  0.5334  0.1105 -0.4298
    2MOL    C14  576   1.224   5.302   4.727 -0.8642  0.2463 -0.1761
    2MOL    O15  577   1.215   5.011   4.704  0.1792 -0.0290  0.4604
    2MOL    C16  578   1.448   4.908   4.446 -0.1043  0.2947  0.4170
    2MOL    C17  579   1.547   4.818   4.409  0.1902  0.9594  0.6842
    2MOL    O18  580   1.744   4.550   4.545 -0.2656 -0.2427 -0.3419
    2MOL    H19  581   1.587   4.670   4.720 -0.0654  0.4087 -0.4025
    2MOL    H20  582   1.417   4.837   4.778 -0.7990 -1.2859 -0.0556
    2MOL    H21  583   1.413   5.148   4.502  0.1706 -0.2834  0.6406
    2MOL    H22  584   1.339   5.364   4.417  0.9735  0.0937 -0.8433
    2MOL    H23  585   1.245   5.583   4.463  0.2247  0.4876 -0.0738
    2MOL    H24  586   1.082   5.707   4.600  0.7580 -0.1034  0.7400
    2MOL    H25  587   1.122   5.437   4.852  1.4213  0.1483  0.0808
    2MOL    H26  588   1.226   5.226   4.804  0.4665  0.3468 -0.1088
    2MOL    H27  589   1.399   4.964   4.368  2.0921 -1.3466 -2.1944
    2MOL    H28  590   1.567   4.817   4.302 -0.0952  0.5956  0.6323
    2MOL    H29  591   1.730   4.654   4.362 -1.2719 -0.4669 -0.3270
    2MOL    C30  592   1.062   5.711   4.796  0.3501  0.0588  0.2588
    2MOL    C31  593   0.977   5.833   4.776 -0.5451  0.2512  0.2241
    2MOL    C32  594   0.869   5.867   4.866  0.0777 -0.0719 -0.1141
    2MOL    C33  595   0.773   5.964   4.835 -0.1915 -0.2155 -0.4390
    2MOL    C34  596   0.787   6.036   4.713 -0.3527 -0.0043  0.0381
    2MOL    C35  597   0.678   6.128   4.666 -0.9109 -0.1950 -0.3083
    2MOL    N36  598   0.650   6.227   4.755  0.0511  0.7024 -0.4029
    2MOL    C37  599   0.559   6.340   4.743 -0.0074 -0.0094  0.0933
    2MOL    C38  600   0.576   6.435   4.846 -0.8795  0.1605 -0.3525
    2MOL    C39  601   0.482   6.533   4.866  0.1536  0.4837  0.1324
    2MOL    C40  602   0.371   6.542   4.785 -0.0638  0.3693 -0.2400
    2MOL    N41  603   0.275   6.647   4.806  0.7319  0.4564 -0.2681
    2MOL    C42  604   0.357   6.452   4.670  0.1830  0.7212 -0.6181
    2MOL    C43  605   0.452   6.352   4.652  0.0386 -0.0351 -0.1580
    2MOL    O44  606   0.637   6.118   4.555 -0.5913  0.4846 -0.0666
    2MOL    C45  607   0.905   6.017   4.639  0.3146  0.5255  0.4330
    2MOL    C46  608   1.002   5.918   4.665 -0.7186  0.8046 -0.0572
    2MOL    O47  609   1.093   5.665   4.907 -0.4722  0.0199  0.4133
    2MOL    H48  610   0.870   5.826   4.966 -0.8089  1.2089  0.4328
    2MOL    H49  611   0.689   5.985   4.899 -0.4558 -1.6552 -0.2831
    2MOL    H50  612   0.711   6.233   4.835 -2.0416  0.5495  1.2333
    2MOL    H51  613   0.659   6.438   4.915 -2.0543 -0.0871  1.0880
    2MOL    H52  614   0.506   6.602   4.945  1.2548 -0.2489  0.4396
    2MOL    H53  615   0.318   6.736   4.829  0.9819  0.3803 -0.4373
    2MOL    H54  616   0.269   6.473   4.611 -2.3832 -2.3040  1.9229
    2MOL    H55  617   0.452   6.280   4.572  0.4063 -0.4329  0.1945
    2MOL    H56  618   0.913   6.072   4.547 -2.2360 -0.6796 -0.5418
    2MOL    H57  619   1.083   5.898   4.596 -0.6042 -1.3464  0.6384
    2MOL    C58  620   0.141   6.636   4.811 -0.1023 -0.3197  0.6441
    2MOL    C59  621   0.078   6.498   4.821  0.3029 -0.2276 -0.4365
    2MOL    C60  622   8.124   6.471   4.731  0.0964  0.6133  0.3402
    2MOL    C61  623   8.066   6.343   4.712  0.7458 -0.8484  0.2446
    2MOL    C62  624   8.121   6.232   4.779  0.3090 -0.1929  0.7304
    2MOL    C63  625   8.061   6.100   4.739  0.5992  0.2739 -0.0781
    2MOL    N64  626   8.143   5.996   4.739  0.3553 -0.2042  0.2409
    2MOL    C65  627   8.109   5.867   4.691 -0.1201 -0.2057  0.1767
    2MOL    C66  628   8.132   5.757   4.779 -0.0837 -0.9154  0.0883
    2MOL    C67  629   0.002   5.624   4.728  0.4669  0.3835  0.7132
    2MOL    C68  630   8.121   5.602   4.589  0.2680 -0.4772 -0.5573
    2MOL    N69  631   8.132   5.482   4.518 -0.5372  0.3718  0.2464
    2MOL    C70  632   8.096   5.711   4.503  0.6840  0.2601  0.2946
    2MOL    C71  633   8.087   5.847   4.554 -0.0498  0.0989 -0.1542
    2MOL    O72  634   7.941   6.099   4.713  0.2679  0.5092 -0.4928
    2MOL    C73  635   0.073   6.261   4.879  1.0763 -0.6247  0.0277
    2MOL    C74  636   0.124   6.393   4.898  0.2960  0.3870 -0.4980
    2MOL    O75  637   0.072   6.738   4.823  0.3873  0.1554  0.0461
    2MOL    H76  638   8.093   6.549   4.664  0.8857  0.5653 -0.0824
    2MOL    H77  639   7.992   6.345   4.632  0.0862 -0.7664  0.8542
    2MOL    H78  640   0.092   6.008   4.771  0.7730  0.0337 -1.0571
    2MOL    H79  641   0.010   5.765   4.884 -2.2404 -2.6712  0.7683
    2MOL    H80  642   0.037   5.543   4.792 -1.8551 -1.4729 -0.3018
    2MOL    H81  643   8.054   5.473   4.453  1.1569 -0.8248 -1.6887
    2MOL    H82  644   8.074   5.701   4.398 -1.9577 -1.6850  0.9714
    2MOL    H83  645   8.076   5.929   4.485 -1.0694 -0.3426 -0.5215
    2MOL    H84  646   0.103   6.184   4.949 -1.9422  0.1120  2.2646
    2MOL    H85  647   0.213   6.393   4.960  0.7242 -0.8740 -1.0987
    2MOL    C86  648   0.060   5.374   4.545 -0.5837 -0.0780  0.1229
    2MOL    C87  649   0.049   5.273   4.434 -0.1165  0.1196  0.0785
    2MOL    C88  650   8.077   5.258   4.356  0.4284 -0.1596 -0.2897
    2MOL    C89  651   8.066   5.159   4.258 -0.0262  0.0465  0.0639
    2MOL    C90  652   0.032   5.079   4.227 -0.0773  0.7746 -0.3830
    2MOL    C91  653   0.030   4.971   4.119 -0.0399 -0.5071  0.5074
    2MOL    N92  654   0.142   4.975   4.042  0.3108 -0.2302  0.7173
    2MOL    C93  655   0.186   4.871   3.954 -0.1606 -0.3405 -0.8637
    2MOL    C94  656   0.263   4.903   3.844  0.0979  0.7964  0.1166
    2MOL    C95  657   0.310   4.804   3.752 -0.2088 -0.2422  0.0837
    2MOL    C96  658   0.296   4.669   3.785  0.8117  0.3655  0.3586
    2MOL    N97  659   0.365   4.572   3.705  0.1791 -0.2239 -0.3660
    2MOL    C98  660   0.215   4.629   3.894 -0.4861  0.1468 -0.0378
    2MOL    C99  661   0.161   4.731   3.981  0.4905 -0.2251  1.1994
    2MOL   O100  662   8.079   4.896   4.103 -0.6937 -0.0037 -0.6701
    2MOL   C101  663   0.146   5.093   4.303 -0.1518 -0.4790  0.2562
    2MOL   C102  664   0.153   5.186   4.409  0.2589  0.6397  0.4924
    2MOL   O103  665   0.144   5.369   4.639 -0.5466 -0.3929  0.4523
    2MOL   H104  666   7.992   5.314   4.392  0.9511 -0.2432  1.0893
    2MOL   H105  667   7.974   5.141   4.204  0.5250 -2.1233 -0.1906
    2MOL   H106  668   0.209   5.047   4.066  0.1466 -0.0128  0.5202
    2MOL   H107  669   0.298   5.001   3.817  1.6386  0.6621  1.5474
    2MOL   H108  670   0.371   4.829   3.666  0.0526  3.0318  1.1655
    2MOL   H109  671   0.367   4.596   3.606  0.8838  0.8473 -0.1018
    2MOL   H110  672   0.200   4.526   3.922  3.5245 -0.3062  0.8169
    2MOL   H111  673   0.091   4.708   4.060 -0.8294  0.0092  0.1155
    2MOL   H112  674   0.231   5.028   4.290 -0.3277 -0.3864 -1.4026
    2MOL   H113  675   0.243   5.185   4.469  0.8691  1.3366 -0.4038
    2MOL   C114  676   0.435   4.465   3.736  0.2306  0.5466 -0.0657
    2MOL   C115  677   0.421   4.408   3.872 -0.6102  0.1994  0.3654
    2MOL   C116  678   0.354   4.287   3.891  0.1733  0.3225 -0.5050
    2MOL   C117  679   0.337   4.232   4.020 -0.1753 -0.1602  1.0630
    2MOL   C118  680   0.384   4.302   4.132 -1.0043  0.4621  0.1809
    2MOL   C119  681   0.355   4.254   4.270 -0.2349  0.1409  0.1052
    2MOL   N120  682   0.237   4.195   4.282  1.1315  0.8308 -0.4199
    2MOL   C121  683   0.165   4.156   4.395  0.8754  0.8966  0.2350
    2MOL   C122  684   0.074   4.047   4.379  0.2133 -0.3498 -0.4109
    2MOL   C123  685   8.143   4.004   4.490 -0.7000 -0.2359  0.0546
    2MOL   C124  686   0.006   4.071   4.614 -0.0876 -0.3622 -0.9454
    2MOL   N125  687   8.067   4.027   4.713  0.3417 -0.3746 -0.1333
    2MOL   C126  688   0.095   4.182   4.629  0.5855 -0.2017 -0.4834
    2MOL   C127  689   0.188   4.211   4.523  0.6354  0.4511 -0.4284
    2MOL   O128  690   0.435   4.277   4.355  0.4091  0.1870  0.1059
    2MOL   C129  691   0.467   4.410   4.110  0.0707 -0.7925  0.2080
    2MOL   C130  692   0.475   4.467   3.986 -0.4858 -0.0739 -0.6583
    2MOL   O131  693   0.505   4.410   3.652  0.1780  0.2588  0.2390
    2MOL   H132  694   0.319   4.236   3.803 -2.1756  2.5597 -0.9353
    2MOL   H133  695   0.282   4.140   4.032 -0.7538 -0.1033 -0.8861
    2MOL   H134  696   0.185   4.170   4.199 -0.6698  0.7906  0.6984
    2MOL   H135  697   0.048   4.011   4.281 -1.2269  0.6610 -0.4154
    2MOL   H136  698   8.069   3.925   4.481 -1.1898  0.4450 -2.3489
    2MOL   H137  699   8.025   3.936   4.699 -2.0257  0.5379  0.8242
    2MOL   H138  700   0.106   4.245   4.715 -0.8967  0.9111 -1.0968
    2MOL   H139  701   0.265   4.285   4.537  0.3261  0.7342 -0.2109
    2MOL   H140  702   0.509   4.460   4.195 -0.0122 -1.2034  0.4930
    2MOL   H141  703   0.529   4.560   3.972 -1.1675  0.3997 -0.1643
    2MOL   C142  704   8.035   4.094   4.824  0.0360  0.1325  0.4238
    2MOL   C143  705   7.965   4.009   4.928  0.4098  0.0176 -0.0736
    2MOL   C144  706   7.999   3.874   4.955  0.1063  0.0528  1.0332
    2MOL   C145  707   7.922   3.792   5.035 -0.4243  0.2396  0.1941
    2MOL   C146  708   7.812   3.849   5.108 -0.2355  0.0732 -0.7333
    2MOL   C147  709   7.717   3.771   5.189  0.3341 -1.0145  0.0732
    2MOL   N148  710   7.741   3.640   5.201 -0.9272  0.2632 -1.0083
    2MOL   C149  711   7.684   3.545   5.292  0.1636  0.2580  0.3247
    2MOL   C150  712   7.623   3.575   5.419  0.1036  0.0503  0.2299
    2MOL   C151  713   7.569   3.471   5.491 -0.6038  0.3281 -0.3225
    2MOL   C152  714   7.581   3.336   5.453 -0.3031  0.2644  0.1785
    2MOL   N153  715   7.549   3.236   5.551  0.2684  0.2299 -0.2864
    2MOL   C154  716   7.642   3.303   5.335  0.5398 -0.1367  0.1031
    2MOL   C155  717   7.689   3.409   5.253  0.3649 -0.3190 -0.0673
    2MOL   O156  718   7.618   3.823   5.240 -0.5452 -0.3351  0.1195
    2MOL   C157  719   7.793   3.987   5.096  0.5877 -0.1767 -0.1692
    2MOL   C158  720   7.861   4.069   5.006 -0.0197 -0.0176 -0.4624
    2MOL   O159  721   8.042   4.217   4.831 -0.2119  0.3518  0.0637
    2MOL   H160  722   8.075   3.824   4.897  0.4150 -0.2272  1.6753
    2MOL   H161  723   7.941   3.686   5.038 -1.9514 -0.1129 -1.5610
    2MOL   H162  724   7.826   3.607   5.157  0.2039 -0.2869  1.5034
    2MOL   H163  725   7.614   3.679   5.449  2.0368 -0.2262  1.9023
    2MOL   H164  726   7.505   3.492   5.576 -0.5459  0.3327 -0.2799
    2MOL   H165  727   7.543   3.266   5.647  0.1013  1.7334 -0.7516
    2MOL   H166  728   7.666   3.201   5.307  1.5597 -0.3165  1.5773
    2MOL   H167  729   7.736   3.398   5.156 -0.6232  3.1448 -0.9966
    2MOL   H168  730   7.711   4.034   5.148 -0.9062 -4.0281  1.1756
    2MOL   H169  731   7.828   4.170   4.984 -1.0663  0.3741  2.6194
    2MOL   C170  732   7.512   3.107   5.534 -0.2045  0.1136 -0.2918
    2MOL   C171  733   7.489   3.060   5.392 -0.6133 -0.2451 -0.7010
    2MOL   C172  734   7.571   2.960   5.335 -1.1859  0.4925  0.1094
    2MOL   C173  735   7.572   2.942   5.197  0.4343 -0.2123 -0.2025
    2MOL   C174  736   7.493   3.029   5.115  0.3656  0.9953  0.3942
    2MOL   C175  737   7.509   3.026   4.966  0.1921  0.6489 -0.7201
    2MOL   N176  738   7.555   3.144   4.916 -0.0125 -0.9463 -0.3609
    2MOL   C177  739   7.602   3.173   4.784 -0.5252 -0.1061  0.1425
    2MOL   C178  740   7.577   3.097   4.671  0.2096 -0.0908 -0.4227
    2MOL   C179  741   7.623   3.134   4.545  0.0411 -0.2145 -0.0024
    2MOL   C180  742   7.681   3.260   4.531 -0.0537 -0.1731  0.2734
    2MOL   N181  743   7.708   3.315   4.404 -0.3627  0.1369 -0.0602
    2MOL   C182  744   7.704   3.345   4.640  0.2323 -0.0994  0.1482
    2MOL   C183  745   7.669   3.300   4.769  0.2449  0.1188  0.1810
    2MOL   O184  746   7.488   2.920   4.907  0.3350  0.2853  0.1453
    2MOL   C185  747   7.395   3.111   5.171 -0.2514  0.1031 -0.5762
    2MOL   C186  748   7.390   3.123   5.310  0.2510 -0.3067 -0.2358
    2MOL   O187  749   7.508   3.024   5.623 -0.0198 -0.6601  0.5996
    2MOL   H188  750   7.647   2.911   5.393 -1.6761 -1.5865 -0.9769
    2MOL   H189  751   7.641   2.875   5.148 -0.5055 -0.1916 -1.6073
    2MOL   H190  752   7.576   3.210   4.990 -2.1851 -0.0843 -0.4677
    2MOL   H191  753   7.515   3.011   4.688 -0.0695 -0.4267 -2.9479
    2MOL   H192  754   7.593   3.065   4.467  3.0798 -0.6180 -0.8430
    2MOL   H193  755   7.704   3.415   4.390  0.0071  0.2145  0.3554
    2MOL   H194  756   7.764   3.434   4.626  1.1375 -0.7332 -0.1125
    2MOL   H195  757   7.667   3.368   4.853  0.0821 -0.0825  0.3409
    2MOL   H196  758   7.328   3.171   5.111  0.4390  1.5857  0.1098
    2MOL   H197  759   7.317   3.189   5.355  1.0079  0.2006  0.2689
    2MOL   C198  760   7.759   3.244   4.296  0.9712 -0.5578  0.6546
    2MOL   C199  761   7.776   3.324   4.167  0.2422  0.6658  0.0489
    2MOL   C200  762   7.735   3.462   4.165 -0.2058  0.4267  0.1535
    2MOL   C201  763   7.751   3.548   4.053 -1.2029  0.0784 -0.5692
    2MOL   C202  764   7.810   3.486   3.932 -0.2864 -0.2609  0.5080
    2MOL   C203  765   7.841   3.577   3.806 -0.0255 -1.0944  0.1508
    2MOL   N204  766   7.835   3.709   3.830  0.3741 -0.0678  0.0899
    2MOL   C205  767   7.871   3.812   3.739  0.1920 -0.1215  0.1463
    2MOL   C206  768   7.947   3.804   3.617 -0.4148 -0.6115 -0.4662
    2MOL   C207  769   7.946   3.902   3.523 -0.5002 -0.0053  0.8740
    2MOL   C208  770   7.901   4.029   3.560  0.1361 -0.3829  0.3993
    2MOL   N209  771   7.933   4.135   3.474 -0.3974  0.0422 -0.0857
    2MOL   C210  772   7.841   4.043   3.690  0.1548  0.2333 -0.8717
    2MOL   C211  773   7.814   3.935   3.771 -0.1772  0.3634 -0.4161
    2MOL   O212  774   7.863   3.529   3.696 -0.2058  0.1325  0.0812
    2MOL   C213  775   7.845   3.352   3.930  0.2898 -0.1327 -0.4328
    2MOL   C214  776   7.822   3.266   4.043  0.6083 -0.2788  0.1327
    2MOL   O215  777   7.789   3.126   4.304 -0.8137  0.2026 -0.3457
    2MOL   H216  778   7.695   3.511   4.252 -2.0969  0.9815 -0.9872
    2MOL   H217  779   7.731   3.652   4.073  1.7259  0.5541  0.0084
    2MOL   H218  780   7.808   3.732   3.925 -2.6373  1.6117 -1.1280
    2MOL   H219  781   8.000   3.713   3.593  1.0415 -0.1257  0.8680
    2MOL   H220  782   8.001   3.881   3.433 -0.3605  0.8049  0.7749
    2MOL   H221  783   7.954   4.223   3.520 -2.3768  0.4365  0.0925
    2MOL   H222  784   7.814   4.142   3.723  0.4837  0.1185 -0.2344
    2MOL   H223  785   7.767   3.950   3.867 -2.0517  0.0385 -1.2514
    2MOL   H224  786   7.892   3.315   3.840 -2.9513 -0.6027 -2.0072
    2MOL   H225  787   7.848   3.162   4.046 -0.9344 -0.6584  0.8931
    2MOL   C226  788   7.916   4.144   3.343  0.4099  0.2123  0.1487
    2MOL   C227  789   7.938   4.278   3.276 -0.6146 -0.0652 -0.7638
    2MOL   C228  790   7.913   4.398   3.343 -0.1925 -0.1167  0.2165
    2MOL   C229  791   7.946   4.523   3.283  0.0376  0.5009  1.2192
    2MOL   C230  792   8.016   4.531   3.153  0.3914  0.3089 -0.1714
    2MOL   C231  793   8.047   4.666   3.093 -0.1804 -0.1671 -0.0552
    2MOL   N232  794   7.965   4.768   3.128 -0.2541  1.2113 -0.4036
    2MOL   C233  795   8.000   4.902   3.130  0.1023 -0.0969  0.0576
    2MOL   C234  796   8.132   4.961   3.115  0.1560  0.2631 -0.0019
    2MOL   C235  797   0.011   5.099   3.125  0.4827  0.3669 -0.7674
    2MOL   C236  798   8.047   5.187   3.148  0.9081 -0.3803  0.0593
    2MOL   N237  799   8.066   5.328   3.165 -0.2990 -0.3330 -0.0949
    2MOL   C238  800   7.915   5.131   3.159 -0.1208  0.2255  0.3710
    2MOL   C239  801   7.894   4.991   3.170 -0.1343  0.1034  0.6235
    2MOL   O240  802   8.129   4.670   3.006  0.2961 -0.3139  0.3534
    2MOL   C241  803   8.027   4.411   3.087 -0.3312 -0.1816  0.1971
    2MOL   C242  804   7.993   4.287   3.148  0.2278  0.0380  1.1414
    2MOL   O243  805   7.881   4.052   3.274 -0.4262  0.4031 -0.3024
    2MOL   H244  806   7.873   4.397   3.443 -0.3783  1.4986  0.1762
    2MOL   H245  807   7.938   4.617   3.334  2.4188  0.8394  1.0559
    2MOL   H246  808   7.883   4.746   3.183  0.6227 -0.0413  0.4335
    2MOL   H247  809   0.072   4.897   3.101 -0.5407 -0.8262  0.6500
    2MOL   H248  810   0.112   5.136   3.119  0.2301  0.9256 -1.8114
    2MOL   H249  811   8.107   5.352   3.254 -0.5412 -1.3764  0.2987
    2MOL   H250  812   7.831   5.197   3.176  0.5342  1.4146 -1.0028
    2MOL   H251  813   7.793   4.959   3.191 -0.1569 -0.1188  0.1956
    2MOL   H252  814   8.063   4.399   2.986  0.8401  2.1778  0.3127
    2MOL   H253  815   8.014   4.196   3.095  0.3655  1.3378 -1.1083
    2MOL   C254  816   8.017   5.420   3.082  0.3845  0.2628 -0.3502
    2MOL   C255  817   8.038   5.561   3.112  0.1721  0.1696 -0.9671
    2MOL   C256  818   7.936   5.652   3.078 -0.0297  1.2718  0.5611
    2MOL   C257  819   7.960   5.788   3.103  0.4771  0.5038  0.0329
    2MOL   C258  820   8.073   5.830   3.176  0.3171  0.3026  0.2551
    2MOL   C259  821   8.094   5.979   3.196 -0.0395  0.6857  0.8477
    2MOL   N260  822   7.986   6.043   3.235 -0.1518 -0.1870  0.5779
    2MOL   C261  823   7.953   6.178   3.202 -0.0251 -0.4450  0.0379
    2MOL   C262  824   7.821   6.211   3.171 -0.1227 -0.3947  0.2966
    2MOL   C263  825   7.781   6.341   3.135 -0.4785 -0.3534 -0.1438
    2MOL   C264  826   7.879   6.445   3.122  0.3044  0.3607 -0.1070
    2MOL   N265  827   7.847   6.580   3.108 -0.0134 -0.0671  0.1926
    2MOL   C266  828   8.014   6.414   3.150 -0.1372  0.0274 -0.1159
    2MOL   C267  829   8.050   6.281   3.192  0.1918 -0.8243 -0.1826
    2MOL   O268  830   0.062   6.022   3.181  0.0617  0.4541  0.3886
    2MOL   C269  831   0.035   5.735   3.213  0.0481 -0.3982 -0.4657
    2MOL   C270  832   0.014   5.601   3.171  0.3409 -0.2406 -0.5827
    2MOL   O271  833   7.941   5.396   2.988  0.0077 -0.5362 -0.1807
    2MOL   H272  834   7.847   5.622   3.024  0.3343 -0.8413  1.1006
    2MOL   H273  835   7.894   5.863   3.063  0.1113 -0.8196 -1.9335
    2MOL   H274  836   7.908   5.991   3.272 -0.9484  0.8110  0.3245
    2MOL   H275  837   7.743   6.137   3.172  1.4543 -2.2618 -3.4646
    2MOL   H276  838   7.678   6.368   3.123 -0.5001  0.3987  1.5909
    2MOL   H277  839   7.917   6.637   3.062  0.6527  0.6378  2.0251
    2MOL   H278  840   8.085   6.494   3.142  1.3524 -1.3162 -0.6415
    2MOL   H279  841   0.009   6.255   3.188  0.9141  2.0833 -1.9530
    2MOL   H280  842   0.129   5.765   3.257 -0.8017  1.6202  0.0438
    2MOL   H281  843   0.091   5.526   3.180  0.7413  0.2851  0.3901
    2MOL   C282  844   7.744   6.643   3.164  0.4321  0.1214 -0.8865
    2MOL   C283  845   7.749   6.794   3.160 -0.7503 -0.0625 -0.1601
    2MOL   C284  846   7.867   6.872   3.207  0.3202 -0.0648  0.4299
    2MOL   C285  847   7.862   7.015   3.201  0.7247  0.0191 -0.0575
    2MOL   C286  848   7.747   7.081   3.163 -0.6666 -0.2076  0.4849
    2MOL   C287  849   7.738   7.228   3.172  0.5277 -0.5015 -0.8219
    2MOL   N288  850   7.615   7.281   3.159 -0.5725  0.0610 -0.0479
    2MOL   C289  851   7.566   7.415   3.169 -0.3910 -0.1867 -0.1036
    2MOL   C290  852   7.423   7.430   3.184 -0.1339  0.3112 -0.2467
    2MOL   C291  853   7.366   7.558   3.193  0.7028  0.1452  0.6772
    2MOL   C292  854   7.446   7.672   3.173 -0.0080 -0.5448 -0.4083
    2MOL   N293  855   7.384   7.796   3.173  0.8191  0.4050 -0.0556
    2MOL   C294  856   7.589   7.662   3.170  0.2252 -0.5724 -0.1189
    2MOL   C295  857   7.649   7.532   3.170  0.7687 -1.2057  0.2383
    2MOL   O296  858   7.835   7.297   3.194 -0.1194  0.5113 -0.8600
    2MOL   C297  859   7.642   7.004   3.108  0.2015 -1.2450 -0.3090
    2MOL   C298  860   7.642   6.865   3.108  0.0245  0.1447 -0.3250
    2MOL   O299  861   7.650   6.585   3.225 -0.2236  0.9169  0.0688
    2MOL   H300  862   7.956   6.814   3.223 -1.5572 -3.3371 -0.5154
    2MOL   H301  863   7.944   7.074   3.239 -1.0852  1.2204  2.1143
    2MOL   H302  864   7.538   7.220   3.135 -1.1933  1.3554 -1.5006
    2MOL   H303  865   7.366   7.339   3.193  1.4052 -0.9094 -2.3149
    2MOL   H304  866   7.262   7.568   3.221  1.0531  2.0631  1.4048
    2MOL   H305  867   7.303   7.799   3.113  0.8078  0.5234 -0.0333
    2MOL   H306  868   7.651   7.750   3.160 -0.3414 -0.3566 -2.0158
    2MOL   H307  869   7.754   7.528   3.148  0.4628 -0.3640 -1.4661
    2MOL   H308  870   7.552   7.050   3.071 -0.3657 -0.0513  2.4502
    2MOL   H309  871   7.558   6.803   3.080  0.8622 -1.1789  0.0130
    2MOL   C310  872   7.382   7.877   3.277 -0.2796 -0.4841  0.2690
    2MOL   C311  873   7.259   7.962   3.274 -0.7177 -0.4986  0.1322
    2MOL   C312  874   7.214   8.030   3.165 -0.5598 -0.4531  0.3058
    2MOL   C313  875   7.085   8.078   3.152  0.4762 -0.2116 -0.2012
    2MOL   C314  876   6.992   8.056   3.256  0.2581  0.3726  0.3813
    2MOL   C315  877   6.849   8.102   3.238 -0.0980  0.8038 -0.0764
    2MOL   N316  878   6.754   8.043   3.316 -0.6060  0.1720  0.0885
    2MOL   C317  879   6.622   8.008   3.286  0.0202  0.2391  0.4258
    2MOL   C318  880   6.548   7.947   3.388  0.4836 -0.1337  0.8959
    2MOL   C319  881   6.427   7.882   3.360 -0.3711  0.3131  0.4973
    2MOL   C320  882   6.375   7.885   3.228  0.6684  0.8821 -0.2428
    2MOL   N321  883   6.253   7.818   3.208  0.1549 -0.5100  0.1171
    2MOL   C322  884   6.443   7.957   3.124  0.5461  0.4694  0.3805
    2MOL   C323  885   6.568   8.015   3.156 -0.0140 -0.5223  0.4086
    2MOL   O324  886   6.829   0.051   3.158  0.6659  0.4679  0.6395
    2MOL   C325  887   7.042   8.002   3.374 -0.1916  0.2173 -0.2906
    2MOL   C326  888   7.174   7.952   3.381 -0.0699 -0.0295 -0.5076
    2MOL   O327  889   7.462   7.880   3.374 -0.0280 -0.3020 -0.2207
    2MOL   H328  890   7.280   8.043   3.081 -1.5138  0.2882 -0.3318
    2MOL   H329  891   7.057   8.127   3.060 -0.0718 -0.0014  0.0775
    2MOL   H330  892   6.793   7.995   3.396 -1.5010  0.3871  0.6526
    2MOL   H331  893   6.599   7.935   3.483 -1.6447  0.5795  2.1565
    2MOL   H332  894   6.372   7.837   3.442 -4.4397  0.5794 -1.9631
    2MOL   H333  895   6.233   7.752   3.282 -1.3352  1.8350  1.9123
    2MOL   H334  896   6.411   7.943   3.022  2.9865  0.2742 -0.3922
    2MOL   H335  897   6.621   8.064   3.076 -1.1264 -2.3378 -1.4886
    2MOL   H336  898   6.972   7.978   3.452  1.7197  1.0307  1.7209
    2MOL   H337  899   7.217   7.906   3.469 -0.4735  0.9220  0.2035
    2MOL   C338  900   6.168   7.815   3.104  0.4453 -0.6680 -0.7784
    2MOL   C339  901   6.096   7.688   3.086 -0.5222 -0.3354  0.0853
    2MOL   C340  902   6.107   7.609   2.968  0.2227 -0.4558 -0.0419
    2MOL   C341  903   6.051   7.475   2.964  0.4278  0.2388  0.2133
    2MOL   C342  904   5.994   7.420   3.080 -0.3851 -0.4699 -0.6836
    2MOL   C343  905   5.984   7.271   3.105 -0.2717 -0.2672 -0.1075
    2MOL   N344  906   6.090   7.208   3.160 -0.2539  0.7842 -0.3253
    2MOL   C345  907   6.117   7.077   3.203 -0.6671  0.0963 -0.3782
    2MOL   C346  908   6.203   7.056   3.313 -0.2914  0.3303 -0.4276
    2MOL   C347  909   6.238   6.926   3.361  0.0116 -0.1112 -0.2565
    2MOL   C348  910   6.175   6.815   3.295 -0.5422 -0.1246  0.5362
    2MOL   N349  911   6.213   6.688   3.341  0.2114 -0.3041 -0.4566
    2MOL   C350  912   6.089   6.831   3.180  0.4577 -0.2394 -0.1494
    2MOL   C351  913   6.064   6.965   3.139 -0.1948  0.6716  0.7592
    2MOL   O352  914   5.877   7.214   3.079 -0.4000  0.6099 -0.1699
    2MOL   C353  915   5.957   7.513   3.182 -0.6553  0.9177 -0.5958
    2MOL   C354  916   6.012   7.643   3.188  0.3212  0.5594 -0.1119
    2MOL   O355  917   6.149   7.906   3.023  0.4701 -0.0309 -0.0703
    2MOL   H356  918   6.169   7.641   2.887 -0.1080 -1.3905 -0.6767
    2MOL   H357  919   6.076   7.406   2.885 -1.5829  1.1119 -1.2135
    2MOL   H358  920   6.161   7.274   3.190  0.4812 -0.6102  1.1230
    2MOL   H359  921   6.238   7.140   3.371  1.2764  0.2546 -1.2629
    2MOL   H360  922   6.316   6.923   3.435  2.7340  1.2201 -2.9197
    2MOL   H361  923   6.250   6.689   3.435  1.2994 -1.3209 -0.8730
    2MOL   H362  924   6.050   6.750   3.119  0.9211 -0.9443  0.4760
    2MOL   H363  925   6.000   6.986   3.055 -0.7463 -0.7174  0.8240
    2MOL   H364  926   5.891   7.477   3.259 -0.0209 -0.3602 -0.6197
    2MOL   H365  927   5.989   7.704   3.274  1.6004 -0.7572  1.2059
    2MOL   C366  928   6.220   6.575   3.276 -1.1578 -0.3691  0.3225
    2MOL   C367  929   6.265   6.454   3.351 -0.3092 -0.2732 -0.1285
    2MOL   C368  930   6.244   6.442   3.496 -0.1734 -0.1824  0.0977
    2MOL   C369  931   6.282   6.323   3.564  0.1749  0.0675 -0.0261
    2MOL   C370  932   6.359   6.226   3.494  0.1440  0.0262  0.6426
    2MOL   C371  933   6.417   6.105   3.569 -0.1476 -0.1472 -0.1972
    2MOL   N372  934   6.342   6.058   3.673 -0.7751  0.0897 -0.2005
    2MOL   C373  935   6.366   5.957   3.769 -0.0625  0.2030 -0.9537
    2MOL   C374  936   6.258   5.891   3.829  0.7809 -0.0138  0.4090
    2MOL   C375  937   6.280   5.795   3.926 -0.1218  0.2613  0.5273
    2MOL   C376  938   6.403   5.789   3.992  0.1130  0.0918 -0.1603
    2MOL   N377  939   6.412   5.713   4.113 -0.1828 -0.0938  0.5525
    2MOL   C378  940   6.511   5.865   3.946 -0.1436 -0.4029  0.0534
    2MOL   C379  941   6.488   5.944   3.832  0.3183 -0.1741  0.2815
    2MOL   O380  942   6.533   6.065   3.536  0.4198 -0.3471  0.5201
    2MOL   C381  943   6.371   6.231   3.355 -0.1861 -0.7322  0.2941
    2MOL   C382  944   6.335   6.345   3.283  0.2128 -0.0389 -0.7499
    2MOL   O383  945   6.199   6.562   3.152  0.0587  0.4630 -0.1414
    2MOL   H384  946   6.186   6.516   3.550 -0.3914 -0.9434  0.9022
    2MOL   H385  947   6.259   6.299   3.667 -0.5928 -1.4498 -0.5358
    2MOL   H386  948   6.247   6.092   3.678 -0.5241  0.7120  0.3923
    2MOL   H387  949   6.159   5.905   3.789 -0.0797  1.2250  2.8574
    2MOL   H388  950   6.193   5.737   3.956 -1.0003  0.5800 -1.2939
    2MOL   H389  951   6.329   5.701   4.170 -0.5229 -1.8590 -0.2672
    2MOL   H390  952   6.607   5.874   3.995  0.2369  1.2571 -0.9565
    2MOL   H391  953   6.567   6.003   3.788 -0.7650  0.6339 -0.6091
    2MOL   H392  954   6.412   6.152   3.294  1.5625 -0.6946  1.3686
    2MOL   H393  955   6.353   6.347   3.177  1.5335  2.3934 -0.5270
    2MOL   C394  956   6.517   5.636   4.156 -0.3002 -0.2118 -0.5445
    2MOL   C395  957   6.494   5.565   4.288 -0.3036  0.6583 -0.1093
    2MOL   C396  958   6.566   5.444   4.314  0.2778 -0.1256 -0.6577
    2MOL   C397  959   6.534   5.373   4.435 -0.3385  0.1715 -0.2948
    2MOL   C398  960   6.447   5.420   4.529  0.1561 -0.4449 -0.3622
    2MOL   C399  961   6.408   5.331   4.646 -0.6696  0.6280 -0.2359
    2MOL   N400  962   6.487   5.225   4.671 -0.1240  0.5810  0.4646
    2MOL   C401  963   6.479   5.128   4.774 -0.1423  0.5637  0.0569
    2MOL   C402  964   6.589   5.043   4.806 -0.6024 -0.3214  0.0350
    2MOL   C403  965   6.580   4.955   4.913  0.2125  0.2025 -0.3764
    2MOL   C404  966   6.465   4.946   4.999 -0.2241  0.1823  0.5546
    2MOL   N405  967   6.464   4.865   5.116 -0.1743 -0.3291  0.4477
    2MOL   C406  968   6.356   5.030   4.966 -0.9182 -0.3243 -0.1546
    2MOL   C407  969   6.361   5.113   4.853 -0.0197 -0.2371  0.1411
    2MOL   O408  970   6.311   5.363   4.715 -0.6090  0.0250  0.2459
    2MOL   C409  971   6.385   5.546   4.506  0.1408 -0.5548  0.7162
    2MOL   C410  972   6.402   5.613   4.385  0.3722 -0.0395  0.6630
    2MOL   O411  973   6.620   5.618   4.085  1.1545 -0.1424 -0.2807
    2MOL   H412  974   6.637   5.406   4.243  0.2115 -1.8437  0.1762
    2MOL   H413  975   6.588   5.281   4.451  0.3853  0.3077 -1.8766
    2MOL   H414  976   6.570   5.212   4.614  0.8962  0.5132  1.9392
    2MOL   H415  977   6.675   5.038   4.741 -0.8690  4.0144 -0.7881
    2MOL   H416  978   6.669   4.898   4.933  1.3875  1.8344 -0.8668
    2MOL   H417  979   6.391   4.893   5.181 -0.6593  0.9807 -0.6374
    2MOL   H418  980   6.266   5.037   5.025  0.5868  0.4259  2.1281
    2MOL   H419  981   6.274   5.175   4.844  2.9316  4.1845  0.5485
    2MOL   H420  982   6.319   5.591   4.579 -0.3414  1.4984 -0.9406
    2MOL   H421  983   6.343   5.701   4.364 -1.2221 -1.2273 -0.0210
    2MOL   C422  984   6.531   4.751   5.142  0.0706  0.1541  0.1638
    2MOL   C423  985   6.512   4.690   5.284  0.0039  0.3415  0.0861
    2MOL   C424  986   6.586   4.573   5.322  0.0935 -0.4295  1.1443
    2MOL   C425  987   6.563   4.502   5.440  0.3316  0.0328  0.1066
    2MOL   C426  988   6.468   4.549   5.532 -0.1268 -0.2351 -0.0329
    2MOL   C427  989   6.446   4.479   5.666  0.1636  0.1549  0.1738
    2MOL   N428  990   6.328   4.474   5.722  0.3592 -0.2326  0.3288
    2MOL   C429  991   6.205   4.527   5.671  0.0855 -0.1137  0.4778
    2MOL   C430  992   6.132   4.632   5.736  0.1003  0.0444  0.1443
    2MOL   C431  993   6.011   4.679   5.678 -0.2682  0.9154 -0.1072
    2MOL   C432  994   5.973   4.632   5.555  0.0491  0.0294  0.4013
    2MOL   N433  995   5.859   4.685   5.487 -0.1657  0.6656  0.6898
    2MOL   C434  996   6.040   4.533   5.491 -0.7257 -0.3834  0.3975
    2MOL   C435  997   6.161   4.483   5.543 -0.0017  0.0704  0.1826
    2MOL   O436  998   6.544   4.423   5.711 -0.6152  0.2113 -0.3072
    2MOL   C437  999   6.406   4.676   5.507  0.0308  0.0194  0.2858
    2MOL   C438 1000   6.424   4.735   5.377  0.1638  0.4618 -0.2143
    2MOL   O439 1001   6.607   4.691   5.063  0.3283 -0.3889  0.2945
    2MOL   H440 1002   6.660   4.532   5.255 -0.6666 -0.2071  0.1484
    2MOL   H441 1003   6.618   4.412   5.464  0.7110  0.4747  0.8872
    2MOL   H442 1004   6.321   4.426   5.811  1.9040 -1.6508 -0.2870
    2MOL   H443 1005   6.171   4.669   5.830 -1.2570 -0.1584  0.7950
    2MOL   H444 1006   5.963   4.766   5.721 -0.2587  0.6051  0.5326
    2MOL   H445 1007   5.820   4.624   5.417 -0.7637 -1.8917  3.1485
    2MOL   H446 1008   6.006   4.503   5.392 -3.6161  1.5537  0.7408
    2MOL   H447 1009   6.206   4.401   5.489  0.7274  1.0270 -0.6928
    2MOL   H448 1010   6.349   4.734   5.579 -0.1682 -0.0968  0.2232
    2MOL   H449 1011   6.383   4.829   5.343  2.1762  0.6806 -2.1328
    2MOL   C450 1012   5.789   4.797   5.501  0.5955 -0.8689  0.0516
    2MOL   C451 1013   5.678   4.805   5.401  0.4571 -0.0703 -0.0053
    2MOL   C452 1014   5.681   4.892   5.286  0.5559 -0.5457 -0.2006
    2MOL   C453 1015   5.578   4.904   5.192  0.0670 -0.5407  0.8452
    2MOL   C454 1016   5.463   4.826   5.217 -0.4189  0.1840 -0.2411
    2MOL   C455 1017   5.346   4.831   5.116  0.3119 -0.0937  0.2123
    2MOL   N456 1018   5.332   4.948   5.046 -0.3882  0.5235 -0.3238
    2MOL   C457 1019   5.248   4.964   4.939  0.3690  0.2067  0.1948
    2MOL   C458 1020   5.234   4.876   4.835  0.0365 -0.1832 -0.0344
    2MOL   C459 1021   5.142   4.899   4.726  0.1599  0.1823 -0.0475
    2MOL   C460 1022   5.066   5.018   4.716 -0.7027  0.3284  0.2425
    2MOL   N461 1023   4.974   5.038   4.602  0.2532  0.3789  0.0381
    2MOL   C462 1024   5.085   5.114   4.818 -0.4646 -0.0360  0.0905
    2MOL   C463 1025   5.168   5.082   4.933  0.6792  0.3963  0.5226
    2MOL   O464 1026   5.265   4.738   5.109 -0.2190  0.2995  0.4302
    2MOL   C465 1027   5.447   4.745   5.335  0.6425 -0.3673  0.3405
    2MOL   C466 1028   5.559   4.730   5.423 -0.3135  0.0198  0.0137
    2MOL   O467 1029   5.816   4.901   5.563 -0.0349 -0.0496 -0.4428
    2MOL   H468 1030   5.778   4.937   5.269  1.4480 -2.9568 -1.7570
    2MOL   H469 1031   5.592   4.972   5.110 -0.9420 -0.4592  0.7396
    2MOL   H470 1032   5.396   5.025   5.062 -1.5083  1.5869 -0.8845
    2MOL   H471 1033   5.286   4.781   4.831 -1.2711 -0.9125  0.1206
    2MOL   H472 1034   5.132   4.815   4.659  2.5677  0.7192 -1.1160
    2MOL   H473 1035   4.936   4.956   4.556  0.9262  0.2890 -0.3574
    2MOL   H474 1036   5.024   5.202   4.824 -2.2953 -1.3425  1.2085
    2MOL   H475 1037   5.167   5.152   5.015  1.6782  0.1203  0.7824
    2MOL   H476 1038   5.352   4.696   5.350  0.0784  1.2447  2.3570
    2MOL   H477 1039   5.550   4.672   5.514 -2.0760 -1.1530 -0.8803
    2MOL   C478 1040   4.931   5.149   4.538 -0.5125 -1.2099 -0.6498
    2MOL   C479 1041   4.823   5.127   4.437  0.2562 -0.0785 -0.4836
    2MOL   C480 1042   4.704   5.212   4.440  0.2239 -0.2088  0.4702
    2MOL   C481 1043   4.597   5.172   4.356  0.6122 -0.0460  0.6253
    2MOL   C482 1044   4.611   5.073   4.261  0.0729  0.6801 -0.4594
    2MOL   C483 1045   4.501   5.035   4.159 -0.1136 -0.0107 -0.2432
    2MOL   N484 1046   4.389   5.108   4.163  0.4123  0.2551  0.1853
    2MOL   C485 1047   4.266   5.084   4.094  0.0397 -0.0314  0.1703
    2MOL   C486 1048   4.249   5.027   3.968 -0.6261  0.5327  0.4161
    2MOL   C487 1049   4.123   5.027   3.910  0.5483  0.6669  1.0077
    2MOL   C488 1050   4.005   5.081   3.971  0.2410  0.9960  0.3895
    2MOL   N489 1051   3.880   5.097   3.907  0.4039 -0.1393 -0.3455
    2MOL   C490 1052   4.024   5.134   4.101  1.0216  0.6987  0.3504
    2MOL   C491 1053   4.151   5.126   4.160  0.0314 -0.1662 -0.0713
    2MOL   O492 1054   4.511   4.937   4.084 -0.1621 -0.1619  0.7990
    2MOL   C493 1055   4.727   4.997   4.254  0.3948 -0.3723  0.0177
    2MOL   C494 1056   4.832   5.024   4.345  0.5158 -0.1944  0.7094
    2MOL   O495 1057   4.966   5.260   4.567  0.3880 -0.2949 -0.0165
    2MOL   H496 1058   4.709   5.303   4.497  2.7862  0.3879 -0.6207
    2MOL   H497 1059   4.505   5.229   4.366  1.6084  1.6123  0.4683
    2MOL   H498 1060   4.389   5.197   4.211 -0.7846  0.0647  0.5522
    2MOL   H499 1061   4.335   4.995   3.912 -0.2580  0.7039  0.8838
    2MOL   H500 1062   4.118   4.993   3.808 -1.0152  0.7844  1.0252
    2MOL   H501 1063   3.821   5.177   3.927  0.5156 -0.0597 -0.3302
    2MOL   H502 1064   3.941   5.185   4.147 -1.3583 -0.2991 -2.6567
    2MOL   H503 1065   4.162   5.154   4.264 -1.2723 -0.9756  0.3039
    2MOL   H504 1066   4.742   4.912   4.189 -1.0633 -0.2644 -0.4666
    2MOL   H505 1067   4.920   4.961   4.343 -0.0010 -0.9420  1.1184
    2MOL   C506 1068   3.827   5.018   3.815 -0.3949 -0.2818  0.2482
    2MOL   C507 1069   3.707   5.072   3.750 -0.2983  0.1906  0.4578
    2MOL   C508 1070   3.584   5.006   3.751 -0.5843  0.1878  0.2998
    2MOL   C509 1071   3.480   5.044   3.662  0.3195 -0.1880  0.0524
    2MOL   C510 1072   3.498   5.157   3.577 -0.4447 -0.0516 -0.0044
    2MOL   C511 1073   3.394   5.200   3.474 -0.2185 -0.4922 -0.3923
    2MOL   N512 1074   3.287   5.121   3.462  0.1333  1.0339  0.7948
    2MOL   C513 1075   3.192   5.118   3.350  0.2414  0.0480 -0.5758
    2MOL   C514 1076   3.060   5.059   3.371  0.3060 -0.4139 -0.2872
    2MOL   C515 1077   2.962   5.052   3.268 -0.4850 -0.0083 -0.6860
    2MOL   C516 1078   2.991   5.113   3.142 -0.4671 -0.5874  0.4618
    2MOL   N517 1079   2.904   5.116   3.028 -0.2441 -0.2041 -0.1705
    2MOL   C518 1080   3.120   5.164   3.122 -0.0324 -0.6106  0.0232
    2MOL   C519 1081   3.216   5.167   3.224  0.0136 -0.1949  0.3506
    2MOL   O520 1082   3.401   5.303   3.416  0.1563 -0.3402 -0.3442
    2MOL   C521 1083   3.616   5.235   3.592  0.6557 -0.5833 -0.0277
    2MOL   C522 1084   3.724   5.186   3.674  0.1744  0.0425  0.2021
    2MOL   O523 1085   3.865   4.903   3.789  0.1750 -1.1766 -0.2519
    2MOL   H524 1086   3.564   4.920   3.812  0.4431  1.1013  1.9742
    2MOL   H525 1087   3.390   4.985   3.652  0.5798 -0.5581 -0.1166
    2MOL   H526 1088   3.260   5.070   3.545 -0.8603 -0.1098 -0.2185
    2MOL   H527 1089   3.044   5.003   3.462 -2.8323 -0.2913 -0.7024
    2MOL   H528 1090   2.874   5.001   3.302  1.7988 -2.7568  1.4044
    2MOL   H529 1091   2.947   5.104   2.937 -0.3921 -0.6196 -0.1887
    2MOL   H530 1092   3.153   5.219   3.035  1.2758 -1.3512  0.0293
    2MOL   H531 1093   3.308   5.221   3.204 -1.6516  1.7551 -2.3195
    2MOL   H532 1094   3.628   5.311   3.517  0.7779 -0.3382  0.2387
    2MOL   H533 1095   3.824   5.226   3.666  0.3896 -0.6308 -0.5780
    2MOL   C534 1096   2.773   5.095   3.022  0.0144  0.1615  0.0285
    2MOL   C535 1097   2.724   5.099   2.882  0.2533  0.0630  0.1066
    2MOL   C536 1098   2.603   5.156   2.845 -0.2964 -0.6847  0.0850
    2MOL   C537 1099   2.561   5.165   2.708  0.3301  0.4293 -0.5552
    2MOL   C538 1100   2.642   5.106   2.611  0.1441 -0.9363 -0.6248
    2MOL   C539 1101   2.602   5.122   2.470  0.2826  0.0365  0.1914
    2MOL   N540 1102   2.664   5.039   2.382 -0.8224  0.5833 -0.2446
    2MOL   C541 1103   2.655   5.031   2.239  0.0365 -0.0225 -0.5130
    2MOL   C542 1104   2.772   5.007   2.168 -0.2556  0.4626 -0.0204
    2MOL   C543 1105   2.768   4.998   2.031  0.5550 -0.0567 -0.4992
    2MOL   C544 1106   2.653   5.017   1.958  0.1300  0.5964  0.0946
    2MOL   N545 1107   2.655   5.015   1.820 -0.3237 -0.0815 -0.8938
    2MOL   C546 1108   2.533   5.036   2.032 -0.3603 -0.4330  0.5316
    2MOL   C547 1109   2.529   5.042   2.172  0.6914  0.4257  0.1749
    2MOL   O548 1110   2.525   5.211   2.436 -0.1065 -0.0047  0.3206
    2MOL   C549 1111   2.758   5.031   2.650  0.0295 -0.3857  0.1887
    2MOL   C550 1112   2.800   5.032   2.785 -0.0006 -0.0076 -0.1688
    2MOL   O551 1113   2.698   5.100   3.117  0.3560 -0.3092 -0.2966
    2MOL   H552 1114   2.552   5.216   2.919 -0.3514  1.6846 -1.7994
    2MOL   H553 1115   2.473   5.221   2.679  1.6700  1.9596 -1.8234
    2MOL   H554 1116   2.741   4.986   2.420 -0.7082 -0.2683 -1.6148
    2MOL   H555 1117   2.870   5.004   2.213  0.8082  2.4871 -2.0967
    2MOL   H556 1118   2.863   4.979   1.983  0.4932  0.4021 -0.8128
    2MOL   H557 1119   2.743   5.008   1.770 -0.7874 -0.4036 -1.6846
    2MOL   H558 1120   2.447   5.056   1.971  0.8148  1.5471 -0.5293
    2MOL   H559 1121   2.435   5.063   2.222  0.7360  1.7241 -0.2730
    2MOL   H560 1122   2.820   4.984   2.575  1.6949  0.6831  0.8488
    2MOL   H561 1123   2.883   4.969   2.813 -0.1166 -0.2119 -0.2838
    2MOL   H562 1124   2.563   5.022   1.779 -0.7535  1.3412  0.2992
    3MOL     C1 1125   0.370   5.328   3.290  0.1825  0.0273 -0.0600
    3MOL     C2 1126   0.408   5.190   3.313 -0.2899  0.3541 -0.1752
    3MOL     C3 1127   0.525   5.139   3.262 -0.8005  0.2639 -0.5380
    3MOL     C4 1128   0.556   5.002   3.267  0.3916  0.7768  0.0937
    3MOL     C5 1129   0.464   4.916   3.331  1.0140  0.1110  0.1467
    3MOL     C6 1130   0.499   4.769   3.358 -0.3454  0.4132 -0.9247
    3MOL     N7 1131   0.574   4.705   3.271  0.0959  0.2507  0.1764
    3MOL     C8 1132   0.638   4.576   3.276  0.6822 -0.0460  0.0813
    3MOL     C9 1133   0.684   4.513   3.155 -0.2984  0.0161 -0.3924
    3MOL    C10 1134   0.748   4.385   3.166  0.2905 -0.3753 -0.4372
    3MOL    C11 1135   0.789   4.327   3.288 -0.1054  0.6812 -0.0260
    3MOL    N12 1136   0.861   4.210   3.314  0.6531  0.9416  0.1956
    3MOL    C13 1137   0.754   4.396   3.405 -0.4778  0.3091  1.1397
    3MOL    C14 1138   0.677   4.515   3.397 -0.1316  1.0769 -0.7508
    3MOL    O15 1139   0.433   4.711   3.451  0.2142 -0.0359  0.3675
    3MOL    C16 1140   0.340   4.965   3.384  0.2371 -0.4131  0.1124
    3MOL    C17 1141   0.315   5.105   3.378  0.0242  0.0638  0.2140
    3MOL    O18 1142   0.258   5.375   3.315  0.6695  0.3095 -0.3428
    3MOL    H19 1143   0.598   5.202   3.215  1.2248 -0.3626  1.6409
    3MOL    H20 1144   0.648   4.971   3.222 -0.6724  0.4344 -1.8821
    3MOL    H21 1145   0.570   4.754   3.183  1.4461 -2.5559 -1.5361
    3MOL    H22 1146   0.665   4.551   3.055  1.1036 -0.6733 -0.9345
    3MOL    H23 1147   0.777   4.334   3.076  1.9486  0.2315 -0.2638
    3MOL    H24 1148   0.868   4.181   3.411 -2.4553  0.5456  0.3548
    3MOL    H25 1149   0.777   4.349   3.500  0.1683  0.7985  1.2321
    3MOL    H26 1150   0.651   4.560   3.492  1.1061 -0.8703  0.5491
    3MOL    H27 1151   0.273   4.889   3.421 -0.5830 -0.2550 -1.0148
    3MOL    H28 1152   0.221   5.147   3.411 -0.1534 -1.3916  1.6356
    3MOL    H29 1153   0.453   5.394   3.264 -1.8731  1.5910 -3.0483
    3MOL    C30 1154   0.941   4.149   3.231  0.1916 -0.6258 -1.1657
    3MOL    C31 1155   1.000   4.021   3.285  0.9700 -0.2398  0.0650
    3MOL    C32 1156   1.085   3.940   3.208  0.5580  0.5866  0.3962
    3MOL    C33 1157   1.140   3.824   3.257 -0.1214  0.4549 -0.1464
    3MOL    C34 1158   1.111   3.778   3.388 -0.1060 -0.6322 -0.2091
    3MOL    C35 1159   1.191   3.659   3.438 -0.0451  0.2826 -0.8499
    3MOL    N36 1160   1.216   3.653   3.574  0.4836  0.1453 -0.0453
    3MOL    C37 1161   1.328   3.609   3.646 -0.1065  0.1516 -0.6865
    3MOL    C38 1162   1.426   3.517   3.597  0.3971 -0.0810  0.0801
    3MOL    C39 1163   1.540   3.491   3.679 -0.5940  0.2384 -0.3018
    3MOL    C40 1164   1.551   3.550   3.806  0.1170 -1.9930 -0.3928
    3MOL    N41 1165   1.666   3.529   3.883 -0.4002  0.0775 -0.9023
    3MOL    C42 1166   1.455   3.642   3.855 -0.8388 -0.3535 -0.2933
    3MOL    C43 1167   1.344   3.671   3.773  0.0191 -0.2049  0.3182
    3MOL    O44 1168   1.239   3.580   3.357 -0.1026 -0.0516 -0.1392
    3MOL    C45 1169   1.025   3.852   3.467  0.1145  0.3652  0.9630
    3MOL    C46 1170   0.965   3.971   3.415  0.1424  0.2001  0.1947
    3MOL    O47 1171   0.962   4.186   3.118 -0.3159 -0.0278 -0.4717
    3MOL    H48 1172   1.104   3.983   3.111 -1.3379 -1.1945 -0.7976
    3MOL    H49 1173   1.211   3.763   3.202 -0.2020 -1.0110  1.3397
    3MOL    H50 1174   1.163   3.721   3.625 -0.6455 -0.2934 -0.6241
    3MOL    H51 1175   1.435   3.475   3.498  2.0082  2.5325 -0.9329
    3MOL    H52 1176   1.616   3.422   3.644 -0.9677 -0.2647 -0.1338
    3MOL    H53 1177   1.649   3.526   3.983 -1.1927 -0.1110 -1.0358
    3MOL    H54 1178   1.478   3.703   3.942 -1.4572 -1.3951  0.5988
    3MOL    H55 1179   1.265   3.735   3.809 -1.0278 -2.2513  1.7933
    3MOL    H56 1180   1.001   3.822   3.567 -1.5877  1.8325  1.0187
    3MOL    H57 1181   0.899   4.025   3.481 -0.2803 -0.0093 -0.0628
    3MOL    C58 1182   1.790   3.549   3.848 -0.2631  0.6903  0.1088
    3MOL    C59 1183   1.892   3.535   3.960  0.1049  0.5697 -0.1680
    3MOL    C60 1184   2.031   3.523   3.936 -0.2935  0.0941 -0.6038
    3MOL    C61 1185   2.120   3.512   4.045  0.2082 -0.0495 -0.2481
    3MOL    C62 1186   2.074   3.506   4.177 -0.4085 -0.8638 -0.6222
    3MOL    C63 1187   2.165   3.492   4.295  0.1876 -0.6276 -0.2091
    3MOL    N64 1188   2.296   3.493   4.275  0.6556 -0.2638  0.7952
    3MOL    C65 1189   2.406   3.460   4.352  0.1365  0.3850  0.2892
    3MOL    C66 1190   2.397   3.395   4.482  0.0171  0.0355 -0.7434
    3MOL    C67 1191   2.518   3.359   4.549 -0.4869  0.5675 -0.3990
    3MOL    C68 1192   2.637   3.394   4.491 -0.9212 -0.1899 -0.7549
    3MOL    N69 1193   2.759   3.359   4.564  0.0334  0.2165 -0.3035
    3MOL    C70 1194   2.644   3.450   4.367  0.3974 -0.6684  0.2358
    3MOL    C71 1195   2.528   3.482   4.295 -0.1854  0.4957 -0.4214
    3MOL    O72 1196   2.116   3.477   4.407  0.3762  0.5121 -0.2474
    3MOL    C73 1197   1.933   3.519   4.203  0.0647  0.7268  0.1657
    3MOL    C74 1198   1.845   3.529   4.093 -0.1940 -0.5989 -0.5434
    3MOL    O75 1199   1.823   3.572   3.732 -1.0497  0.3082 -0.3374
    3MOL    H76 1200   2.073   3.532   3.837  0.3147  0.4427 -0.3153
    3MOL    H77 1201   2.226   3.515   4.024  0.0307  2.4098 -0.9846
    3MOL    H78 1202   2.314   3.508   4.176  1.4800  0.0083  0.9822
    3MOL    H79 1203   2.307   3.378   4.540 -0.4858 -2.0179 -2.0941
    3MOL    H80 1204   2.521   3.306   4.643  1.5127  0.2227 -0.6260
    3MOL    H81 1205   2.762   3.278   4.625  0.9599  0.7208  0.3235
    3MOL    H82 1206   2.733   3.477   4.312  0.1167  0.9015  0.5154
    3MOL    H83 1207   2.535   3.536   4.202  0.3522  0.9028 -0.1493
    3MOL    H84 1208   1.902   3.507   4.306 -0.9326 -1.8206 -0.4009
    3MOL    H85 1209   1.742   3.542   4.121 -0.0929 -1.6826  0.3778
    3MOL    C86 1210   2.882   3.412   4.548 -1.4649  0.2979  0.3795
    3MOL    C87 1211   2.988   3.337   4.620 -0.6906  0.0215  0.4015
    3MOL    C88 1212   3.100   3.289   4.548  0.3256  0.5817  0.0537
    3MOL    C89 1213   3.187   3.200   4.608 -0.7182  0.1343 -0.6031
    3MOL    C90 1214   3.178   3.167   4.748 -0.6337  0.1546 -0.0901
    3MOL    C91 1215   3.273   3.061   4.811  0.1785  0.3978 -0.1326
    3MOL    N92 1216   3.331   3.105   4.921 -0.6189 -0.3542  0.1658
    3MOL    C93 1217   3.393   3.034   5.025  0.2347 -0.3235  0.9795
    3MOL    C94 1218   3.393   2.892   5.039 -0.2292 -0.1877 -0.1613
    3MOL    C95 1219   3.459   2.834   5.149 -0.6586  0.3060 -0.0710
    3MOL    C96 1220   3.546   2.911   5.229 -0.3005 -0.3050  0.5951
    3MOL    N97 1221   3.611   2.844   5.335  0.0032 -0.1545 -0.0980
    3MOL    C98 1222   3.553   3.049   5.212  0.3676  0.0100 -0.0197
    3MOL    C99 1223   3.474   3.111   5.112  0.1977 -0.2306 -0.1064
    3MOL   O100 1224   3.297   2.957   4.749  0.1776  0.1564 -0.3191
    3MOL   C101 1225   3.075   3.228   4.822  0.5435  0.7282 -0.1500
    3MOL   C102 1226   2.980   3.310   4.756  0.0577 -0.5108 -0.5420
    3MOL   O103 1227   2.913   3.499   4.466  0.4428 -0.3336 -0.5259
    3MOL   H104 1228   3.112   3.314   4.444  1.0724 -0.1488 -0.0439
    3MOL   H105 1229   3.262   3.150   4.550  0.1720  1.1010 -0.3053
    3MOL   H106 1230   3.285   3.192   4.943 -1.1770 -0.3868 -0.8742
    3MOL   H107 1231   3.335   2.826   4.977 -0.5887 -2.1499  2.1810
    3MOL   H108 1232   3.444   2.728   5.156 -1.4899  0.4667  0.5262
    3MOL   H109 1233   3.584   2.750   5.360  2.0689 -0.8534 -0.3533
    3MOL   H110 1234   3.620   3.116   5.264  0.6329  0.2465 -0.6545
    3MOL   H111 1235   3.465   3.219   5.106 -0.5589 -0.1692  1.7756
    3MOL   H112 1236   3.056   3.217   4.928 -0.8972  0.8226 -0.3867
    3MOL   H113 1237   2.890   3.339   4.810 -0.9932 -1.9619 -1.4834
    3MOL   C114 1238   3.726   2.869   5.396  0.0893 -0.3718  0.4439
    3MOL   C115 1239   3.757   2.766   5.502 -0.1860 -0.8230  0.1547
    3MOL   C116 1240   3.879   2.704   5.505  0.6091 -0.2267 -0.2443
    3MOL   C117 1241   3.912   2.613   5.611 -0.0303  0.3640  1.4848
    3MOL   C118 1242   3.810   2.564   5.695 -0.7789  0.2359  0.0768
    3MOL   C119 1243   3.836   2.450   5.791 -0.1539  0.2274 -0.3450
    3MOL   N120 1244   3.910   2.493   5.893  0.0995  0.4396 -0.2686
    3MOL   C121 1245   3.977   2.422   5.996 -0.2089  0.9864 -0.3470
    3MOL   C122 1246   3.961   2.279   6.027  0.1880 -0.1393 -0.3938
    3MOL   C123 1247   4.033   2.224   6.139 -0.8075 -0.2182  0.1877
    3MOL   C124 1248   4.117   2.312   6.218 -0.8685 -0.3181  0.3987
    3MOL   N125 1249   4.177   2.259   6.329  0.2304 -0.0381  0.5960
    3MOL   C126 1250   4.141   2.443   6.172 -0.7562 -0.2496  0.5133
    3MOL   C127 1251   4.071   2.502   6.070  0.6832  0.0807  0.0440
    3MOL   O128 1252   3.790   2.339   5.784  0.2085  0.2337 -0.3244
    3MOL   C129 1253   3.682   2.621   5.689 -0.4317 -0.3498  0.0766
    3MOL   C130 1254   3.658   2.720   5.590 -0.2450 -0.3013 -0.3577
    3MOL   O131 1255   3.796   2.969   5.381  0.2262 -0.6943  0.0947
    3MOL   H132 1256   3.947   2.722   5.422 -0.4764 -4.7562 -2.2734
    3MOL   H133 1257   4.004   2.557   5.621 -0.4498 -0.3169  1.5691
    3MOL   H134 1258   3.918   2.593   5.903  2.6965  0.1103  1.4465
    3MOL   H135 1259   3.900   2.215   5.965  1.2950 -0.7743 -0.8271
    3MOL   H136 1260   4.028   2.118   6.157  0.4315 -0.1835  0.7575
    3MOL   H137 1261   4.251   2.194   6.307  0.1963  0.0074  0.3540
    3MOL   H138 1262   4.199   2.511   6.232  2.4371 -1.1590 -1.4569
    3MOL   H139 1263   4.086   2.605   6.040  0.8104 -0.0540 -0.3594
    3MOL   H140 1264   3.605   2.586   5.756  0.2915 -0.6956  0.7355
    3MOL   H141 1265   3.562   2.769   5.594  0.2878  0.5783  3.7979
    3MOL   C142 1266   4.186   2.323   6.445 -0.8712  0.0999  0.5010
    3MOL   C143 1267   4.272   2.266   6.547  0.0307 -0.2590 -0.9747
    3MOL   C144 1268   4.214   2.238   6.670  0.2280 -0.8260  0.0113
    3MOL   C145 1269   4.289   2.175   6.768 -0.2148  0.1974 -0.7419
    3MOL   C146 1270   4.426   2.155   6.754 -0.0221 -0.1226 -0.0981
    3MOL   C147 1271   4.512   2.096   6.861  0.1385 -0.6394 -0.5678
    3MOL   N148 1272   4.461   1.996   6.930  0.0525 -0.0151  0.1105
    3MOL   C149 1273   4.490   1.963   7.067 -0.6896  0.8738 -0.3277
    3MOL   C150 1274   4.609   1.990   7.134  0.0177  0.2830  0.0523
    3MOL   C151 1275   4.622   1.954   7.274  0.2361  0.3795 -0.5721
    3MOL   C152 1276   4.507   1.912   7.345 -0.0552 -0.0923 -0.1352
    3MOL   N153 1277   4.522   1.903   7.486  0.3684 -0.0420  0.1420
    3MOL   C154 1278   4.389   1.888   7.278  0.3095 -0.2044 -0.6570
    3MOL   C155 1279   4.381   1.909   7.142  0.0441  0.6972  0.3192
    3MOL   O156 1280   4.631   2.128   6.864 -0.2262 -0.1060 -0.4313
    3MOL   C157 1281   4.487   2.193   6.633 -0.6030  0.0682  0.4052
    3MOL   C158 1282   4.411   2.244   6.524  0.6057  0.6534  0.1983
    3MOL   O159 1283   4.099   2.405   6.473  0.4588  0.0228 -0.1031
    3MOL   H160 1284   4.110   2.250   6.694  0.1927  0.3100 -0.6670
    3MOL   H161 1285   4.236   2.140   6.855  0.7508 -1.3550 -0.7661
    3MOL   H162 1286   4.365   1.976   6.908 -0.2623  0.8839  0.6453
    3MOL   H163 1287   4.696   2.040   7.094 -0.8592  1.3679 -0.5047
    3MOL   H164 1288   4.717   1.967   7.324  0.3697  0.5447 -0.8718
    3MOL   H165 1289   4.613   1.907   7.529  1.1282  1.3042 -1.5671
    3MOL   H166 1290   4.302   1.843   7.325  0.5217  2.2985  2.3394
    3MOL   H167 1291   4.283   1.886   7.102 -0.1735  0.0511  1.1871
    3MOL   H168 1292   4.594   2.176   6.632 -0.5069  0.4727  1.9302
    3MOL   H169 1293   4.457   2.266   6.429  2.4643  1.7754  1.3259
    3MOL   C170 1294   4.435   1.884   7.583  0.0373  0.5300 -0.4847
    3MOL   C171 1295   4.497   1.866   7.718 -0.4519 -0.1124 -0.3276
    3MOL   C172 1296   4.441   1.788   7.814  0.4496  0.6262  0.0856
    3MOL   C173 1297   4.494   1.778   7.948 -0.4379 -0.1061 -0.1965
    3MOL   C174 1298   4.611   1.850   7.983  0.6712  0.6355 -0.6448
    3MOL   C175 1299   4.663   1.857   8.121 -0.1516  0.3490 -0.0267
    3MOL   N176 1300   4.608   1.762   0.056 -0.2271 -1.3261 -0.5336
    3MOL   C177 1301   4.672   1.695   0.171  0.3365  0.4960  0.0526
    3MOL   C178 1302   4.771   1.743   0.252 -0.5337  0.7882  0.9346
    3MOL   C179 1303   4.825   1.668   0.359 -0.5697 -0.1394  0.7012
    3MOL   C180 1304   4.784   1.533   0.370  1.0502 -0.2200  0.0507
    3MOL   N181 1305   4.861   1.446   0.448 -0.1996 -0.0011  0.7120
    3MOL   C182 1306   4.674   1.483   0.292 -0.1232  0.5335 -0.0339
    3MOL   C183 1307   4.620   1.564   0.194  0.2046 -0.2353 -0.5765
    3MOL   O184 1308   4.736   1.948   0.009  0.1590  0.1462 -0.1856
    3MOL   C185 1309   4.677   1.928   7.884 -0.4661  0.3336  0.3123
    3MOL   C186 1310   4.608   1.946   7.761 -0.9091 -0.1719 -0.6072
    3MOL   O187 1311   4.315   1.850   7.568  0.0633  0.4426 -0.1922
    3MOL   H188 1312   4.367   1.714   7.788  1.4412 -1.1542  2.1950
    3MOL   H189 1313   4.439   1.725   8.025  1.8443 -1.4437  0.5694
    3MOL   H190 1314   4.543   1.695   0.016 -2.3947  0.2194  0.3430
    3MOL   H191 1315   4.802   1.845   0.233  0.5824  0.0637 -1.3372
    3MOL   H192 1316   4.905   1.708   0.420  0.7425 -0.4984 -0.7421
    3MOL   H193 1317   4.891   1.358   0.408  2.0627  0.6314  0.9503
    3MOL   H194 1318   4.634   1.387   0.321 -0.8666  1.3944  1.8826
    3MOL   H195 1319   4.527   1.530   0.152 -1.8051  1.4634  2.3141
    3MOL   H196 1320   4.775   1.970   7.895  1.3548 -3.3756 -0.9446
    3MOL   H197 1321   4.644   2.027   7.700  0.2484 -1.1190 -1.2099
    3MOL   C198 1322   4.926   1.480   0.561  0.4411 -0.3497  0.0221
    3MOL   C199 1323   4.843   1.554   0.660  0.3838 -0.4052 -0.4886
    3MOL   C200 1324   4.896   1.655   0.738 -0.6182  0.0708 -0.2536
    3MOL   C201 1325   4.820   1.723   0.828 -0.2949  0.4763  0.4772
    3MOL   C202 1326   4.683   1.690   0.852  0.4405 -0.1836  0.0509
    3MOL   C203 1327   4.596   1.770   0.944  0.3387  0.1791  0.5304
    3MOL   N204 1328   4.486   1.826   0.892  0.1582 -0.9563  0.0327
    3MOL   C205 1329   4.450   1.842   0.757  0.9066 -0.2524  0.2557
    3MOL   C206 1330   4.542   1.886   0.661  0.0995 -0.0172  1.0333
    3MOL   C207 1331   4.500   1.885   0.528  0.0436  0.3459  0.0653
    3MOL   C208 1332   4.364   1.857   0.492  0.0199 -0.3543 -0.0079
    3MOL   N209 1333   4.322   1.888   0.360  0.3735  0.5011 -0.3698
    3MOL   C210 1334   4.277   1.810   0.591 -0.2847 -0.2201  0.3294
    3MOL   C211 1335   4.323   1.804   0.725  0.4667  0.2572 -0.1611
    3MOL   O212 1336   4.628   1.779   1.062 -0.0366  0.2181  0.1419
    3MOL   C213 1337   4.629   1.579   0.779 -0.6694 -0.1958 -0.1245
    3MOL   C214 1338   4.712   1.509   0.685 -0.6446 -0.6948 -0.3884
    3MOL   O215 1339   5.049   1.457   0.563 -0.3948 -0.5479 -0.2068
    3MOL   H216 1340   5.000   1.674   0.719 -0.0958 -1.6484  0.7481
    3MOL   H217 1341   4.855   1.809   0.884 -0.8209  0.3147  1.0597
    3MOL   H218 1342   4.423   1.860   0.964  0.8394  0.3052  0.0419
    3MOL   H219 1343   4.643   1.914   0.689  0.1764 -1.8118  2.6111
    3MOL   H220 1344   4.566   1.921   0.450 -0.6641  0.5967 -0.4303
    3MOL   H221 1345   4.397   1.922   0.301  0.3683 -0.6897 -1.0866
    3MOL   H222 1346   4.174   1.795   0.561 -0.8809  1.7556  1.2695
    3MOL   H223 1347   4.252   1.770   0.799 -1.0435 -0.2254 -1.7853
    3MOL   H224 1348   4.522   1.569   0.774 -0.6698  0.2662 -1.1257
    3MOL   H225 1349   4.680   1.427   0.622 -1.3580 -1.0087  0.3669
    3MOL   C226 1350   4.197   1.887   0.307  0.1583 -0.5607 -0.1471
    3MOL   C227 1351   4.191   1.944   0.170 -0.2740  0.4289 -0.1298
    3MOL   C228 1352   4.304   1.974   0.088 -0.2754 -0.5500  0.4164
    3MOL   C229 1353   4.295   2.046   8.113 -0.5087  0.3263 -0.2550
    3MOL   C230 1354   4.160   2.084   8.074 -0.4091  0.4984 -0.5523
    3MOL   C231 1355   4.137   2.130   7.933 -0.1195 -0.0593 -0.3473
    3MOL   N232 1356   4.027   2.206   7.910 -0.1840 -0.2491 -0.0129
    3MOL   C233 1357   3.977   2.241   7.784  0.6594 -0.6248 -0.3119
    3MOL   C234 1358   3.894   2.349   7.775 -0.0138 -0.2349  0.4306
    3MOL   C235 1359   3.824   2.380   7.663 -0.1356 -0.6400 -0.3698
    3MOL   C236 1360   3.830   2.302   7.545  1.1351 -0.5763  0.1874
    3MOL   N237 1361   3.766   2.342   7.424 -0.2380 -0.0849 -0.0837
    3MOL   C238 1362   3.920   2.190   7.549  0.1474  0.0474  0.4205
    3MOL   C239 1363   3.988   2.154   7.667  0.5307  0.5819 -0.0977
    3MOL   O240 1364   4.218   2.113   7.847  0.3331 -0.0757 -0.3090
    3MOL   C241 1365   4.045   2.057   0.006 -0.0874 -0.9260 -0.3602
    3MOL   C242 1366   4.063   1.984   0.124  0.4108  0.3388 -0.2620
    3MOL   O243 1367   4.093   1.843   0.357  0.3492 -0.0710  0.6844
    3MOL   H244 1368   4.406   1.962   0.121 -0.4214  1.0802  1.4917
    3MOL   H245 1369   4.388   2.060   8.060 -0.4185  2.9998  0.5372
    3MOL   H246 1370   3.978   2.242   7.990 -2.9708 -0.9986 -1.2864
    3MOL   H247 1371   3.892   2.403   7.868  0.3426 -0.3942  0.5327
    3MOL   H248 1372   3.773   2.476   7.663  0.5820 -0.2569 -0.4592
    3MOL   H249 1373   3.824   2.328   7.343 -1.2679  0.1081 -0.8703
    3MOL   H250 1374   3.926   2.128   7.461  0.5217 -2.9928  2.5163
    3MOL   H251 1375   4.041   2.061   7.682 -1.5160 -0.5018  0.6273
    3MOL   H252 1376   3.942   2.075   8.124 -0.2355 -0.5719  0.4114
    3MOL   H253 1377   3.978   1.976   0.190  0.5953 -0.1318 -0.0740
    3MOL   C254 1378   3.652   2.410   7.405  0.4073  0.3213 -0.0846
    3MOL   C255 1379   3.624   2.463   7.268  0.9037  0.9567  0.3581
    3MOL   C256 1380   3.719   2.554   7.210  0.8714 -0.0147  0.2429
    3MOL   C257 1381   3.707   2.598   7.081 -0.0244  0.2238 -0.6449
    3MOL   C258 1382   3.595   2.557   7.000 -0.1248  0.5494  0.2993
    3MOL   C259 1383   3.586   2.601   6.855 -0.7426  0.3362  0.0860
    3MOL   N260 1384   3.634   2.722   6.835  0.6590  0.0156 -0.5060
    3MOL   C261 1385   3.648   2.788   6.715 -0.1612 -0.0960  0.0486
    3MOL   C262 1386   3.602   2.744   6.590 -0.9892 -0.6449 -0.0001
    3MOL   C263 1387   3.634   2.814   6.473  0.0680  0.1918 -0.7804
    3MOL   C264 1388   3.714   2.927   6.477  0.2053  0.1143 -0.0547
    3MOL   N265 1389   3.737   3.000   6.360  0.4309  0.5712  0.1398
    3MOL   C266 1390   3.774   2.973   6.597 -0.2342 -0.0576 -0.1409
    3MOL   C267 1391   3.730   2.904   6.716  0.6480 -0.4828  0.2386
    3MOL   O268 1392   3.524   2.526   6.772  0.4703  0.1301  0.2284
    3MOL   C269 1393   3.497   2.472   7.052  0.4596 -0.1784 -0.9101
    3MOL   C270 1394   3.516   2.431   7.187  0.4035  0.2836  0.1478
    3MOL   O271 1395   3.559   2.422   7.484  0.0582  0.1345  0.2217
    3MOL   H272 1396   3.811   2.560   7.266  1.7300 -0.3779 -1.1159
    3MOL   H273 1397   3.782   2.662   7.038 -0.1954  1.8147  1.4034
    3MOL   H274 1398   3.658   2.775   6.918 -0.2257  0.3911 -0.4866
    3MOL   H275 1399   3.531   2.663   6.581 -2.1462  0.0650  2.2703
    3MOL   H276 1400   3.590   2.782   6.379 -0.6937  1.2252 -0.7796
    3MOL   H277 1401   3.834   3.015   6.336 -0.0050  0.0476 -2.0208
    3MOL   H278 1402   3.835   3.062   6.603 -2.1025  1.3393 -1.1579
    3MOL   H279 1403   3.774   2.946   6.806 -2.0767  2.6412  0.2066
    3MOL   H280 1404   3.409   2.439   6.999  0.0113 -1.0594  0.3604
    3MOL   H281 1405   3.442   2.362   7.225 -0.0492 -0.5150 -2.1146
    3MOL   C282 1406   3.650   3.077   6.296  0.4162  0.3442  0.7993
    3MOL   C283 1407   3.506   3.070   6.330  0.4989  0.1130  0.0686
    3MOL   C284 1408   3.408   3.039   6.232 -0.3129 -0.0017 -0.6252
    3MOL   C285 1409   3.270   3.024   6.265 -0.2773 -0.2241  0.4307
    3MOL   C286 1410   3.227   3.037   6.399 -0.5380  0.8751  0.2150
    3MOL   C287 1411   3.093   2.993   6.446  0.0074 -0.5456 -0.6894
    3MOL   N288 1412   3.015   2.940   6.355 -0.7945 -0.5448 -0.0033
    3MOL   C289 1413   2.879   2.901   6.354  0.0428 -0.4842  0.7581
    3MOL   C290 1414   2.789   2.973   6.428 -0.0097  0.0750 -0.1735
    3MOL   C291 1415   2.651   2.937   6.419 -0.5926  1.1657  0.4705
    3MOL   C292 1416   2.609   2.844   6.326  0.2008  0.1709 -0.3461
    3MOL   N293 1417   2.467   2.820   6.307  0.1948 -0.4821  0.9620
    3MOL   C294 1418   2.698   2.774   6.250 -0.1373  0.7954 -0.5678
    3MOL   C295 1419   2.837   2.805   6.257 -0.1983 -0.2584  0.0678
    3MOL   O296 1420   3.063   3.017   6.561 -0.1432  0.4889  0.1910
    3MOL   C297 1421   3.320   3.067   6.496 -0.9509  0.2853  0.0444
    3MOL   C298 1422   3.456   3.087   6.462  0.4997 -0.3159 -0.2113
    3MOL   O299 1423   3.692   3.163   6.219  0.2042 -0.0134 -0.1079
    3MOL   H300 1424   3.444   3.012   6.133 -3.2850  0.7656 -1.9726
    3MOL   H301 1425   3.200   2.986   6.193  0.6560  0.4647 -0.8544
    3MOL   H302 1426   3.059   2.927   6.265 -0.6847  1.2190 -0.2326
    3MOL   H303 1427   2.819   3.044   6.503 -0.7149 -0.5150  0.6736
    3MOL   H304 1428   2.577   2.993   6.474 -3.1116 -0.6223 -0.9755
    3MOL   H305 1429   2.455   2.763   6.224 -2.0256  1.4792 -0.1089
    3MOL   H306 1430   2.660   2.697   6.184 -0.5923  0.8274 -0.3446
    3MOL   H307 1431   2.897   2.755   6.183 -0.6104  1.2414 -1.3159
    3MOL   H308 1432   3.292   3.081   6.599 -0.7710  0.3641  0.0839
    3MOL   H309 1433   3.524   3.117   6.541 -0.2257  1.2609 -0.1712
    3MOL   C310 1434   2.357   2.885   6.345  0.9727 -0.2866 -0.3879
    3MOL   C311 1435   2.237   2.865   6.252  0.3655 -0.0062  0.6932
    3MOL   C312 1436   2.214   2.747   6.180 -0.0841 -0.3594  0.2447
    3MOL   C313 1437   2.099   2.723   6.101 -0.6947 -0.6239 -0.1848
    3MOL   C314 1438   2.009   2.823   6.087 -0.3465 -0.0938  0.3504
    3MOL   C315 1439   1.891   2.804   5.998  0.3040  0.1197 -0.8287
    3MOL   N316 1440   1.921   2.755   5.879 -0.7772  0.2125  0.4945
    3MOL   C317 1441   1.834   2.676   5.797  0.3365 -0.5684  0.0234
    3MOL   C318 1442   1.903   2.601   5.703 -0.3024 -1.0115  0.0907
    3MOL   C319 1443   1.832   2.498   5.637 -0.2187 -0.2760  0.7716
    3MOL   C320 1444   1.694   2.480   5.656  0.2163 -0.4023 -0.2119
    3MOL   N321 1445   1.638   2.374   5.572  0.8974  0.0560  0.1490
    3MOL   C322 1446   1.624   2.564   5.753 -0.8517 -0.0861 -0.0043
    3MOL   C323 1447   1.695   2.662   5.820  0.0720  0.6790  1.0139
    3MOL   O324 1448   1.785   2.861   6.032  0.4971 -0.1785 -0.0402
    3MOL   C325 1449   2.015   2.936   6.165 -0.0691 -0.0739  0.1850
    3MOL   C326 1450   2.133   2.961   6.239 -0.7188 -0.4643 -0.2962
    3MOL   O327 1451   2.361   2.957   6.440  0.1429  0.6346  0.2248
    3MOL   H328 1452   2.287   2.668   6.188 -0.4094 -0.5359  1.5027
    3MOL   H329 1453   2.089   2.627   6.054 -1.1173 -0.2280 -0.9076
    3MOL   H330 1454   2.017   2.723   5.874 -0.6001  0.5320  1.6215
    3MOL   H331 1455   2.009   2.605   5.684 -0.2561 -2.5153 -0.0804
    3MOL   H332 1456   1.890   2.431   5.575 -0.7011 -1.1863  1.3005
    3MOL   H333 1457   1.709   2.311   5.536  1.3211  0.5889  0.0393
    3MOL   H334 1458   1.519   2.540   5.767 -1.3164  2.3908  0.9321
    3MOL   H335 1459   1.634   2.716   5.891  0.3733  0.5433  1.3823
    3MOL   H336 1460   1.937   3.012   6.169 -1.3644 -1.1596 -3.0380
    3MOL   H337 1461   2.138   3.039   6.313 -0.1157 -1.4494  0.7106
    3MOL   C338 1462   1.514   2.330   5.559  0.3999  0.2602 -0.5497
    3MOL   C339 1463   1.481   2.198   5.504  0.1001 -0.7337 -0.5332
    3MOL   C340 1464   1.579   2.097   5.486 -1.0752  0.0528 -0.1650
    3MOL   C341 1465   1.548   1.964   5.446  0.0782  0.3264  0.3368
    3MOL   C342 1466   1.416   1.940   5.408  0.2838 -0.0242  0.1850
    3MOL   C343 1467   1.384   1.808   5.347  0.3905 -0.0661 -0.5009
    3MOL   N344 1468   1.268   1.768   5.392 -0.0043  0.4204 -0.1063
    3MOL   C345 1469   1.195   1.650   5.369 -0.2935 -0.8882  0.0927
    3MOL   C346 1470   1.260   1.526   5.352 -0.2794 -0.1495  0.2197
    3MOL   C347 1471   1.180   1.410   5.349 -0.0876  0.8962  0.9601
    3MOL   C348 1472   1.040   1.414   5.367 -0.1808 -0.3161  0.2888
    3MOL   N349 1473   0.971   1.293   5.356  0.0321 -0.2363 -0.5722
    3MOL   C350 1474   0.976   1.535   5.376 -0.1772 -0.5177 -0.0349
    3MOL   C351 1475   1.054   1.651   5.383  0.0752 -0.7463  0.3779
    3MOL   O352 1476   1.459   1.750   5.270  0.2194 -0.0810  0.5643
    3MOL   C353 1477   1.312   2.036   5.431  0.7826  0.3311  0.0442
    3MOL   C354 1478   1.343   2.164   5.476 -0.0417 -0.0626 -0.2974
    3MOL   O355 1479   1.423   2.408   5.583  0.4137 -0.0492  0.4543
    3MOL   H356 1480   1.682   2.112   5.515 -1.0580  0.5277 -0.4574
    3MOL   H357 1481   1.624   1.894   5.416 -0.2633 -0.6877  1.7846
    3MOL   H358 1482   1.233   1.830   5.463 -1.4916  0.4654 -0.8708
    3MOL   H359 1483   1.365   1.502   5.357 -0.0839  1.0550  2.3210
    3MOL   H360 1484   1.228   1.314   5.338  0.4041  1.3869 -1.5825
    3MOL   H361 1485   1.024   1.218   5.313 -1.1020 -0.1697 -2.1183
    3MOL   H362 1486   0.869   1.543   5.385 -0.0257 -0.7672  2.3362
    3MOL   H363 1487   0.998   1.740   5.408  0.3605 -0.8436  1.3748
    3MOL   H364 1488   1.206   2.024   5.418  0.5851  2.2405 -0.3645
    3MOL   H365 1489   1.263   2.235   5.492 -0.1306  0.6520 -3.5334
    3MOL   C366 1490   0.867   1.263   5.434 -0.3432  0.6800 -0.6717
    3MOL   C367 1491   0.849   1.122   5.457 -0.7945 -0.3428  0.0620
    3MOL   C368 1492   0.719   1.070   5.438  0.0823  0.3571 -0.2887
    3MOL   C369 1493   0.695   0.937   5.462 -0.5582 -0.0779  0.0758
    3MOL   C370 1494   0.805   0.850   5.488 -1.2966  0.3591  0.7547
    3MOL   C371 1495   0.780   0.705   5.511  0.2627  0.1462 -0.0033
    3MOL   N372 1496   0.661   0.665   5.547  0.8632 -0.3242 -0.0786
    3MOL   C373 1497   0.606   0.533   5.535  0.8111  0.4800  0.0635
    3MOL   C374 1498   0.463   0.521   5.520  0.9213  0.5411 -0.0406
    3MOL   C375 1499   0.405   0.394   5.501 -0.4424 -0.6502 -0.2231
    3MOL   C376 1500   0.482   0.281   5.487 -0.8313 -0.1784  0.3644
    3MOL   N377 1501   0.411   0.159   5.457 -0.2000  0.4514 -0.1846
    3MOL   C378 1502   0.620   0.287   5.522  0.0035 -0.6045  0.5876
    3MOL   C379 1503   0.682   0.417   5.535 -0.7254  0.0956 -0.3670
    3MOL   O380 1504   0.873   0.629   5.490 -0.1841  0.0606  0.1110
    3MOL   C381 1505   0.938   0.902   5.506  0.5152 -0.4796  0.0246
    3MOL   C382 1506   0.962   1.037   5.492  0.0307 -0.3721  0.6434
    3MOL   O383 1507   0.785   1.346   5.472 -0.4103  0.4672 -0.5408
    3MOL   H384 1508   0.643   1.139   5.405  0.3403  1.5159  1.4517
    3MOL   H385 1509   0.592   0.906   5.450 -0.6408  0.8792 -2.0053
    3MOL   H386 1510   0.600   0.744   5.560  0.8647 -0.6344  1.9914
    3MOL   H387 1511   0.393   0.603   5.513  1.7672  1.1645 -1.5700
    3MOL   H388 1512   0.297   0.395   5.500 -0.4597  0.4925  1.0285
    3MOL   H389 1513   0.323   0.175   5.411 -0.4028 -0.6421 -0.1819
    3MOL   H390 1514   0.674   0.196   5.544  0.4869 -0.5797 -0.4982
    3MOL   H391 1515   0.789   0.421   5.544 -0.8097  1.8503 -0.0341
    3MOL   H392 1516   1.017   0.830   5.519  1.4622  0.5401  0.0803
    3MOL   H393 1517   1.062   1.078   5.489  0.2142 -0.8818 -0.7849
    3MOL   C394 1518   0.464   0.045   5.476  0.8962  0.1989 -0.6719
    3MOL   C395 1519   0.426   8.083   5.377  0.2763 -0.0653  0.3212
    3MOL   C396 1520   0.414   8.115   5.238  0.2073 -0.0386  0.2046
    3MOL   C397 1521   0.376   8.017   5.148  0.4037 -0.0336 -0.3370
    3MOL   C398 1522   0.352   7.885   5.192 -0.1597  0.2309  0.7401
    3MOL   C399 1523   0.286   7.781   5.102 -0.2504 -0.0464  0.5513
    3MOL   N400 1524   0.168   7.737   5.147 -0.2595  0.1061 -0.0183
    3MOL   C401 1525   0.086   7.806   5.244 -0.5043 -0.4315  0.2290
    3MOL   C402 1526   0.046   7.940   5.218  0.0119 -0.9592 -0.2829
    3MOL   C403 1527   8.088   8.000   5.294 -0.1493  0.3673 -0.7314
    3MOL   C404 1528   8.026   7.923   5.400  0.5243  0.4439  0.1337
    3MOL   N405 1529   7.912   7.973   5.467  0.0500 -0.5146  0.0948
    3MOL   C406 1530   8.069   7.794   5.428 -0.8299  0.4194 -0.7447
    3MOL   C407 1531   0.023   7.732   5.355 -0.3363  1.1420  0.3521
    3MOL   O408 1532   0.324   7.751   4.987  0.1885  0.8267 -0.1963
    3MOL   C409 1533   0.379   7.856   5.324  0.3136  0.2937  0.5765
    3MOL   C410 1534   0.413   7.949   5.425 -0.3491  0.1939 -0.2167
    3MOL   O411 1535   0.524   0.014   5.578 -0.1145  0.0940  0.1499
    3MOL   H412 1536   0.422   0.071   5.205  0.1463  0.0032  0.3180
    3MOL   H413 1537   0.347   8.042   5.047  0.7379 -1.4522 -0.7960
    3MOL   H414 1538   0.150   7.640   5.125  0.8505 -0.1344  0.0640
    3MOL   H415 1539   0.091   7.995   5.137  1.0318 -0.4226  0.6325
    3MOL   H416 1540   8.056   8.100   5.272 -0.8547 -0.2430 -2.5983
    3MOL   H417 1541   7.898   7.940   5.562 -3.5864 -0.2462 -0.2599
    3MOL   H418 1542   8.026   7.735   5.507  2.2374  0.2374  0.8444
    3MOL   H419 1543   0.053   7.630   5.376 -1.5173  0.2300 -2.1089
    3MOL   H420 1544   0.359   7.755   5.356 -0.2587 -1.0663 -3.8077
    3MOL   H421 1545   0.448   7.925   5.524  1.2041  0.7850 -0.6035
    3MOL   C422 1546   7.811   8.048   5.419 -0.2284 -0.4341  0.1085
    3MOL   C423 1547   7.697   8.052   5.514 -0.1149 -0.5321  0.7610
    3MOL   C424 1548   7.593   0.000   5.482 -0.0401  0.2309 -0.5218
    3MOL   C425 1549   7.477   0.002   5.557  0.0080 -0.7329  0.1085
    3MOL   C426 1550   7.456   8.053   5.661 -0.5560 -0.3503  0.0164
    3MOL   C427 1551   7.326   8.063   5.738 -0.1541  0.1947 -0.1220
    3MOL   N428 1552   7.266   7.949   5.781  0.2519  0.2696 -0.0879
    3MOL   C429 1553   7.300   7.816   5.747  0.8366 -0.0610  0.5940
    3MOL   C430 1554   7.300   7.785   5.615 -0.3137 -1.4358 -0.0660
    3MOL   C431 1555   7.384   7.680   5.573 -0.4106  0.0395 -0.0021
    3MOL   C432 1556   7.456   7.599   5.660  0.6339 -0.2374 -0.3104
    3MOL   N433 1557   7.551   7.514   5.595  0.1992  0.0170 -0.1977
    3MOL   C434 1558   7.436   7.614   5.795  0.1572  0.7003 -0.3252
    3MOL   C435 1559   7.362   7.726   5.836 -0.4005  0.4650  0.2249
    3MOL   O436 1560   7.274   0.025   5.762  0.8877 -0.2302 -0.4881
    3MOL   C437 1561   7.560   7.958   5.694 -0.1759  0.3008  0.0212
    3MOL   C438 1562   7.674   7.952   5.617 -0.1357  0.3340  0.3113
    3MOL   O439 1563   7.812   8.122   5.315  0.2541  0.4529 -0.3913
    3MOL   H440 1564   7.605   0.075   5.406  0.1637  1.1080  0.3596
    3MOL   H441 1565   7.401   0.077   5.539  2.5136  1.7938 -0.2185
    3MOL   H442 1566   7.178   7.956   5.830 -0.7048 -1.7612 -1.4258
    3MOL   H443 1567   7.244   7.853   5.552  1.2359  2.4767  2.5504
    3MOL   H444 1568   7.403   7.655   5.470  0.4747  2.8160 -0.5730
    3MOL   H445 1569   7.546   7.525   5.495 -1.3091 -1.4473 -0.3187
    3MOL   H446 1570   7.490   7.546   5.859 -0.7471  0.3686  0.0899
    3MOL   H447 1571   7.371   7.755   5.940  2.1847 -0.5838  0.3485
    3MOL   H448 1572   7.533   7.887   5.771  1.0060  1.8478  1.9297
    3MOL   H449 1573   7.743   7.873   5.645 -1.6276 -1.6037 -1.3730
    3MOL   C450 1574   7.663   7.466   5.647  0.1309 -0.7063 -0.5598
    3MOL   C451 1575   7.772   7.453   5.543 -0.4528  0.1418  0.5057
    3MOL   C452 1576   7.857   7.342   5.538 -0.2673  0.6199  0.2852
    3MOL   C453 1577   7.961   7.333   5.444 -0.0955 -0.1085  0.5045
    3MOL   C454 1578   7.975   7.430   5.339  0.7214  0.5213 -0.6043
    3MOL   C455 1579   8.070   7.404   5.232 -0.6605 -0.0610  0.8536
    3MOL   N456 1580   8.103   7.273   5.221  0.3616 -0.1741 -0.1138
    3MOL   C457 1581   0.079   7.226   5.163  0.1533  0.5849 -0.6423
    3MOL   C458 1582   0.192   7.308   5.136 -0.3938 -0.4454  1.2944
    3MOL   C459 1583   0.320   7.253   5.110 -0.1951  0.1765  0.1363
    3MOL   C460 1584   0.322   7.110   5.097 -0.6135 -0.3305  0.3250
    3MOL   N461 1585   0.451   7.063   5.080 -0.0109 -0.2261 -0.0915
    3MOL   C462 1586   0.211   7.026   5.118  0.2062 -0.4387 -0.2156
    3MOL   C463 1587   0.091   7.086   5.150  0.5204  1.0543  0.6926
    3MOL   O464 1588   8.105   7.500   5.163  0.1850  0.7064 -0.0173
    3MOL   C465 1589   7.898   7.545   5.348  0.3177 -0.3279  0.3111
    3MOL   C466 1590   7.799   7.558   5.450  0.5935 -0.3580  0.6524
    3MOL   O467 1591   7.669   7.388   5.749  0.1822 -0.0690 -0.3400
    3MOL   H468 1592   7.831   7.259   5.602  0.0035  0.7954  0.6231
    3MOL   H469 1593   8.020   7.243   5.449  1.5982  1.0753  2.7210
    3MOL   H470 1594   8.064   7.211   5.290 -0.6963 -0.2241 -0.7393
    3MOL   H471 1595   0.183   7.414   5.156 -1.9539 -0.2849 -0.1589
    3MOL   H472 1596   0.405   7.319   5.102 -0.4669  0.5509  0.3154
    3MOL   H473 1597   0.519   7.126   5.118 -0.7128  1.3625 -1.4218
    3MOL   H474 1598   0.211   6.920   5.100  0.2048 -1.0758  3.1636
    3MOL   H475 1599   0.003   7.028   5.175 -0.8653  2.5974 -0.4277
    3MOL   H476 1600   7.915   7.629   5.282 -0.2592  0.5248  1.2340
    3MOL   H477 1601   7.736   7.646   5.455 -0.5292 -1.1140  0.0941
    3MOL   C478 1602   0.494   6.955   5.012 -0.1151 -0.1238 -0.0677
    3MOL   C479 1603   0.638   6.920   5.030  0.5789  0.3203 -0.4510
    3MOL   C480 1604   0.708   6.923   5.155 -0.0703  0.5009 -0.1518
    3MOL   C481 1605   0.850   6.900   5.156  0.1888  0.2487 -0.1456
    3MOL   C482 1606   0.914   6.859   5.043 -0.6653  0.2127  0.4141
    3MOL   C483 1607   1.066   6.838   5.041 -0.4538 -0.5560 -0.1678
    3MOL   N484 1608   1.137   6.947   5.070  0.5957 -0.4298  0.3272
    3MOL   C485 1609   1.083   7.081   5.079 -0.2482  0.6878  0.0373
    3MOL   C486 1610   1.137   7.147   5.189  0.2680 -0.6658  0.6891
    3MOL   C487 1611   1.074   7.267   5.229  0.3352 -0.3962 -0.4285
    3MOL   C488 1612   0.967   7.326   5.156 -0.1682 -0.1938  0.0966
    3MOL   N489 1613   0.921   7.452   5.200 -0.0169  0.5114 -0.2761
    3MOL   C490 1614   0.912   7.253   5.044 -0.6440 -0.2272  0.4921
    3MOL   C491 1615   0.976   7.136   5.003  0.1933  0.6658  0.0531
    3MOL   O492 1616   1.119   6.726   5.034 -0.6032  0.1326  0.0073
    3MOL   C493 1617   0.841   6.837   4.926  0.0813  0.4140 -0.5961
    3MOL   C494 1618   0.704   6.863   4.923  0.3402  0.1872 -0.0571
    3MOL   O495 1619   0.413   6.885   4.951 -0.2097 -0.4043  0.7853
    3MOL   H496 1620   0.652   6.952   5.243 -3.0560 -1.1471 -1.4316
    3MOL   H497 1621   0.906   6.911   5.247 -0.3534 -0.8330  0.3280
    3MOL   H498 1622   1.236   6.944   5.085  0.5380  0.7709  1.0834
    3MOL   H499 1623   1.216   7.102   5.247  1.8792  1.2041 -0.0057
    3MOL   H500 1624   1.105   7.330   5.311 -0.3457 -0.3807 -0.1731
    3MOL   H501 1625   0.967   7.505   5.273 -0.9325  0.4745  0.3329
    3MOL   H502 1626   0.833   7.273   4.973  0.0900 -2.1046 -0.8822
    3MOL   H503 1627   0.953   7.090   4.908 -0.4696 -1.8331  1.3853
    3MOL   H504 1628   0.906   6.817   4.842  1.0441 -0.3497  0.3158
    3MOL   H505 1629   0.650   6.849   4.830  0.5625  0.3716 -0.2114
    3MOL   C506 1630   0.814   7.516   5.157 -0.1353  0.0257  0.0081
    3MOL   C507 1631   0.826   7.668   5.171 -0.4503  0.4014 -0.2393
    3MOL   C508 1632   0.713   7.742   5.218 -0.2540  0.5380 -0.1679
    3MOL   C509 1633   0.721   7.878   5.242 -0.3903  1.0321  0.1768
    3MOL   C510 1634   0.849   7.939   5.229 -0.3946  0.3291 -0.3898
    3MOL   C511 1635   0.864   8.086   5.250  0.3865 -0.6537 -0.1843
    3MOL   N512 1636   0.954   8.119   5.341 -0.5277  0.0699 -0.5324
    3MOL   C513 1637   0.996   0.103   5.387 -0.8250 -0.6912 -0.6793
    3MOL   C514 1638   0.940   0.223   5.349 -0.4991  0.2173  0.8452
    3MOL   C515 1639   0.993   0.349   5.375 -0.2012  0.7072 -0.7705
    3MOL   C516 1640   1.103   0.358   5.463  0.4890 -0.2395 -0.1964
    3MOL   N517 1641   1.150   0.488   5.487 -0.2978  0.0405  0.0950
    3MOL   C518 1642   1.162   0.241   5.522 -0.4717  0.7921 -0.2064
    3MOL   C519 1643   1.105   0.119   5.480  0.4218  0.7247  0.3674
    3MOL   O520 1644   0.782   0.019   5.196 -0.8507 -0.2166  0.0263
    3MOL   C521 1645   0.964   7.861   5.190  0.1301 -0.5980  0.0362
    3MOL   C522 1646   0.947   7.727   5.150 -0.9494 -0.2868 -0.5410
    3MOL   O523 1647   0.720   7.462   5.094  0.4549 -0.3165  0.3934
    3MOL   H524 1648   0.622   7.684   5.222  1.8064 -2.7776  0.2855
    3MOL   H525 1649   0.637   7.945   5.256 -1.8996 -0.8234  0.1114
    3MOL   H526 1650   1.008   8.036   5.361  1.2601  1.2056 -0.5383
    3MOL   H527 1651   0.849   0.214   5.292  0.5754 -0.4894 -0.7722
    3MOL   H528 1652   0.943   0.430   5.324  0.0597  1.1995 -0.2437
    3MOL   H529 1653   1.092   0.564   5.452  1.3886  0.3847 -2.0541
    3MOL   H530 1654   1.241   0.242   5.596 -0.3794  1.8609 -0.3144
    3MOL   H531 1655   1.147   0.027   5.518  1.8869  2.1781  2.3143
    3MOL   H532 1656   1.061   7.907   5.173  0.4227 -1.5100 -0.8086
    3MOL   H533 1657   1.027   7.668   5.108  0.1635  0.5967  0.3453
    3MOL   C534 1658   1.275   0.526   5.508  0.4691 -0.4348  0.4551
    3MOL   C535 1659   1.301   0.673   5.500 -0.3595  0.1741  0.0608
    3MOL   C536 1660   1.246   0.755   5.402  0.2665  0.2363  0.2759
    3MOL   C537 1661   1.278   0.897   5.403 -0.2130  0.3214 -0.1553
    3MOL   C538 1662   1.366   0.952   5.497  0.9103  0.4081  0.2326
    3MOL   C539 1663   1.403   1.094   5.482  0.5349 -0.3355 -0.2964
    3MOL   N540 1664   1.424   1.166   5.593  0.0129 -0.1547 -0.0288
    3MOL   C541 1665   1.487   1.297   5.595  0.3868 -0.8593 -0.1755
    3MOL   C542 1666   1.558   1.355   5.490 -0.1692 -1.2467  0.6102
    3MOL   C543 1667   1.613   1.479   5.507  0.9049  1.2296  0.4232
    3MOL   C544 1668   1.596   1.551   5.620  0.2614 -0.3976 -0.1713
    3MOL   N545 1669   1.643   1.683   5.627  0.1873  0.1467 -0.3693
    3MOL   C546 1670   1.515   1.504   5.724 -0.2390 -1.1042 -0.2753
    3MOL   C547 1671   1.466   1.377   5.712  0.2233 -0.2284  0.0259
    3MOL   O548 1672   1.417   1.136   5.368  0.5452 -0.1522 -0.4518
    3MOL   C549 1673   1.410   0.870   5.598 -0.3269  0.1515  0.1007
    3MOL   C550 1674   1.380   0.731   5.592 -0.5612 -0.6180  0.0893
    3MOL   O551 1675   1.372   0.446   5.517 -0.4193 -0.2188  0.2632
    3MOL   H552 1676   1.183   0.713   5.324  0.5345  0.1605  0.1006
    3MOL   H553 1677   1.232   0.963   5.331 -1.6060 -0.4540 -0.0025
    3MOL   H554 1678   1.399   1.119   5.678  0.1563  0.0420  0.1214
    3MOL   H555 1679   1.586   1.310   5.395  0.9867 -1.7683  1.1758
    3MOL   H556 1680   1.682   1.519   5.433  0.5495  2.1137  0.5688
    3MOL   H557 1681   1.633   1.739   5.710  1.2647  0.5489 -0.5028
    3MOL   H558 1682   1.506   1.566   5.813 -1.6980 -2.1053  0.2982
    3MOL   H559 1683   1.410   1.343   5.798  0.8690 -0.9843  0.1502
    3MOL   H560 1684   1.481   0.904   5.672  0.4224 -1.5231  0.1857
    3MOL   H561 1685   1.431   0.671   5.667 -1.3200 -0.3942  0.7933
    3MOL   H562 1686   1.708   1.724   5.561  1.3974 -0.3126  0.5193
    4MOL     C1 1687   0.657   1.586   6.578  0.5538 -0.6181 -0.9222
    4MOL     C2 1688   0.749   1.691   6.601 -0.3999 -0.4847  0.2692
    4MOL     C3 1689   0.701   1.814   6.650  0.0085 -0.0188  0.1874
    4MOL     C4 1690   0.790   1.918   6.685 -0.1206 -0.2909 -0.0442
    4MOL     C5 1691   0.930   1.899   6.681  0.2179  0.8467 -0.3428
    4MOL     C6 1692   1.024   2.005   6.739 -0.0907 -0.7003  0.5643
    4MOL     N7 1693   1.144   2.010   6.681  0.1898  0.0972  0.1524
    4MOL     C8 1694   1.250   2.089   6.725  0.5969 -0.0074 -0.2820
    4MOL     C9 1695   1.246   2.224   6.713  0.5730  0.1173 -0.8543
    4MOL    C10 1696   1.350   2.300   6.761  0.4967  0.1502 -0.3533
    4MOL    C11 1697   1.454   2.240   6.832 -0.3261 -0.0047  0.1277
    4MOL    N12 1698   1.553   2.327   6.884  0.0722 -0.9528 -0.2188
    4MOL    C13 1699   1.468   2.097   6.838 -0.0692 -0.2605 -0.0358
    4MOL    C14 1700   1.359   2.023   6.787 -0.2904 -0.2493 -0.4758
    4MOL    O15 1701   0.976   2.092   6.810  0.4952 -0.2130  0.6631
    4MOL    C16 1702   0.980   1.769   6.642 -0.2924 -0.1819 -0.7259
    4MOL    C17 1703   0.891   1.675   6.590  0.2475 -0.1917  0.3837
    4MOL    O18 1704   0.675   1.491   6.505  0.0661 -0.4046  0.1657
    4MOL    H19 1705   0.598   1.839   6.671 -1.1207 -2.6027 -1.9025
    4MOL    H20 1706   0.765   2.018   6.718  1.9243  2.2239 -5.4413
    4MOL    H21 1707   1.175   1.933   6.623 -1.3709 -0.3454 -0.1281
    4MOL    H22 1708   1.162   2.268   6.661 -0.1568 -1.7893 -1.3746
    4MOL    H23 1709   1.347   2.408   6.753 -1.2755  0.2965  1.7299
    4MOL    H24 1710   1.523   2.423   6.898 -2.3171 -1.0954 -3.8213
    4MOL    H25 1711   1.555   2.064   6.894  0.2287  3.1622  1.6635
    4MOL    H26 1712   1.361   1.915   6.798 -1.5748 -0.4590 -2.0636
    4MOL    H27 1713   1.086   1.748   6.645  0.2084  2.2132 -0.7722
    4MOL    H28 1714   0.928   1.588   6.540  2.3239  1.8335 -1.7241
    4MOL    H29 1715   0.565   1.594   6.636  0.0293 -0.4490 -1.7509
    4MOL    C30 1716   1.677   2.306   6.931 -0.3089  0.2702 -0.1361
    4MOL    C31 1717   1.742   2.422   7.008  0.3220  0.0087  0.5386
    4MOL    C32 1718   1.881   2.442   6.981 -0.2053 -0.2680  0.6505
    4MOL    C33 1719   1.939   2.554   7.033 -0.2657  0.2612 -0.5049
    4MOL    C34 1720   1.873   2.630   7.133  0.1067  0.4963 -0.3111
    4MOL    C35 1721   1.948   2.731   7.216 -0.1103  0.1345 -0.3129
    4MOL    N36 1722   2.062   2.785   7.164 -0.2897 -0.5150  0.1366
    4MOL    C37 1723   2.159   2.870   7.226 -0.8294  0.6886  0.1265
    4MOL    C38 1724   2.224   2.975   7.157 -0.1230 -0.1756 -0.4251
    4MOL    C39 1725   2.320   3.058   7.212 -0.0688  0.1479 -0.8326
    4MOL    C40 1726   2.356   3.042   7.343  0.4139  0.0265 -0.4425
    4MOL    N41 1727   2.458   3.125   7.401  1.0566 -0.1431  0.0350
    4MOL    C42 1728   2.289   2.948   7.422 -0.4280  0.5231 -0.4233
    4MOL    C43 1729   2.200   2.854   7.361  0.3642 -0.3933 -0.0329
    4MOL    O44 1730   1.906   2.763   7.330  0.5441  0.2795 -0.1692
    4MOL    C45 1731   1.736   2.611   7.162 -0.2145  0.4047 -0.6054
    4MOL    C46 1732   1.671   2.504   7.101 -0.4892  0.1785  0.5387
    4MOL    O47 1733   1.733   2.196   6.921  0.0745 -0.4912 -0.0338
    4MOL    H48 1734   1.926   2.387   6.900 -0.8193  1.6478 -1.0601
    4MOL    H49 1735   2.037   2.583   6.998  0.2005 -1.5657 -0.8039
    4MOL    H50 1736   2.073   2.773   7.065 -1.2160 -0.9486  0.0830
    4MOL    H51 1737   2.193   2.990   7.054  0.4342  2.2064 -0.2744
    4MOL    H52 1738   2.376   3.122   7.145  1.7679 -0.9680 -0.3789
    4MOL    H53 1739   2.446   3.225   7.392  2.8293 -0.1344 -2.6522
    4MOL    H54 1740   2.312   2.937   7.527 -0.1218 -0.4527 -0.5896
    4MOL    H55 1741   2.160   2.775   7.423  2.5532  0.3847  2.4219
    4MOL    H56 1742   1.682   2.660   7.242 -2.1446 -3.4003  0.5275
    4MOL    H57 1743   1.571   2.488   7.138  0.0592 -0.6544  1.6968
    4MOL    C58 1744   2.557   3.083   7.483  0.4252  0.0007  0.4170
    4MOL    C59 1745   2.662   3.186   7.521 -0.7623 -0.1399 -0.6522
    4MOL    C60 1746   2.730   3.266   7.424 -0.8590 -0.0636  0.6656
    4MOL    C61 1747   2.840   3.348   7.457 -0.2605  1.2039  0.5215
    4MOL    C62 1748   2.903   3.327   7.581  0.3910  0.3454 -0.2006
    4MOL    C63 1749   3.025   3.403   7.620  0.5516 -0.2395  0.2662
    4MOL    N64 1750   3.109   3.328   7.692  0.1028  0.3884 -0.2625
    4MOL    C65 1751   3.207   3.368   7.786 -0.1382 -0.1886 -0.7041
    4MOL    C66 1752   3.232   3.502   7.824  0.1444 -0.4329 -0.1671
    4MOL    C67 1753   3.290   3.535   7.947  0.1575  0.0971 -0.2977
    4MOL    C68 1754   3.334   3.433   8.033 -0.2606 -0.1299 -0.3104
    4MOL    N69 1755   3.400   3.474   0.001 -0.7342  0.7485 -0.3927
    4MOL    C70 1756   3.317   3.301   7.991 -0.2304  0.0970  0.1856
    4MOL    C71 1757   3.254   3.267   7.871  0.0848  0.3076 -0.6338
    4MOL    O72 1758   3.056   3.518   7.582  0.3254  0.3700  0.0277
    4MOL    C73 1759   2.845   3.237   7.673  0.1119  0.0075 -0.2961
    4MOL    C74 1760   2.730   3.169   7.645 -0.3475  0.1673 -0.0742
    4MOL    O75 1761   2.565   2.970   7.528  0.1771  0.2415  0.0864
    4MOL    H76 1762   2.684   3.291   7.330  1.8304  0.8962 -0.4450
    4MOL    H77 1763   2.875   3.419   7.384 -1.3827  1.6908  0.4453
    4MOL    H78 1764   3.106   3.227   7.693  0.6761  0.3681  1.9134
    4MOL    H79 1765   3.208   3.589   7.765  0.9048 -0.0664  0.0538
    4MOL    H80 1766   3.317   3.637   7.968 -1.4949  1.0588 -2.6002
    4MOL    H81 1767   3.439   3.567   8.143 -1.6516  1.1058 -1.2671
    4MOL    H82 1768   3.361   3.221   8.049  0.8605  0.2010 -0.4890
    4MOL    H83 1769   3.231   3.164   7.850  0.1823 -0.1314  1.2834
    4MOL    H84 1770   2.892   3.209   7.766  2.4837  0.3207 -1.3577
    4MOL    H85 1771   2.684   3.100   7.714 -1.6272 -0.7278 -1.7610
    4MOL    C86 1772   3.433   3.407   0.110  0.3737  0.4508 -0.0665
    4MOL    C87 1773   3.520   3.477   0.209 -0.7017 -1.0671  0.7143
    4MOL    C88 1774   3.514   3.438   0.347 -0.2884 -0.2307  0.2880
    4MOL    C89 1775   3.600   3.500   0.445 -0.6624  0.1823  0.3654
    4MOL    C90 1776   3.696   3.598   0.402 -0.8513  0.4203 -0.1069
    4MOL    C91 1777   3.784   3.669   0.495  0.1553 -0.2333 -0.4506
    4MOL    N92 1778   3.913   3.671   0.461 -0.2431 -0.0473  0.2909
    4MOL    C93 1779   4.004   3.772   0.486 -0.0739  0.2655 -0.4869
    4MOL    C94 1780   4.138   3.740   0.512 -0.2667 -0.4780 -0.2271
    4MOL    C95 1781   4.231   3.840   0.536 -0.2253 -0.3777 -0.7314
    4MOL    C96 1782   4.192   3.975   0.520 -0.3012  0.0661 -0.4715
    4MOL    N97 1783   4.279   4.085   0.546 -0.2129  0.0778  0.2387
    4MOL    C98 1784   4.060   4.004   0.486 -0.8493  0.2773 -0.0721
    4MOL    C99 1785   3.967   3.900   0.476 -0.5214 -0.2814 -0.2836
    4MOL   O100 1786   3.745   3.711   0.609 -0.4819 -0.0810 -0.0973
    4MOL   C101 1787   3.705   3.626   0.263  0.0777  0.1450 -0.0349
    4MOL   C102 1788   3.610   3.574   0.169  0.4496 -0.3948 -0.5834
    4MOL   O103 1789   3.385   3.298   0.134 -0.1472  0.5890  0.1687
    4MOL   H104 1790   3.450   3.359   0.381 -0.0184 -0.3394  0.5445
    4MOL   H105 1791   3.598   3.471   0.549 -0.6349  0.9501  0.5825
    4MOL   H106 1792   3.932   3.604   0.388 -0.5737 -0.0631  0.2177
    4MOL   H107 1793   4.170   3.637   0.509 -3.3905 -1.4663 -1.1931
    4MOL   H108 1794   4.329   3.817   0.575 -0.0933  1.3341 -0.0151
    4MOL   H109 1795   4.236   4.172   0.519 -3.0433 -1.3003  0.2033
    4MOL   H110 1796   4.029   4.102   0.453  1.1703  0.5585 -1.2578
    4MOL   H111 1797   3.864   3.923   0.453 -0.5126 -0.3949 -0.4404
    4MOL   H112 1798   3.779   3.698   0.232  1.9464 -0.5997  2.5019
    4MOL   H113 1799   3.605   3.605   0.066  2.6063 -1.0061 -0.8844
    4MOL   C114 1800   4.397   4.095   0.609  0.2830 -0.0609 -0.4155
    4MOL   C115 1801   4.446   4.236   0.631 -0.0456  1.2271  0.3712
    4MOL   C116 1802   4.535   4.260   0.740 -0.1662  0.5337  0.3928
    4MOL   C117 1803   4.594   4.390   0.758 -1.0242 -0.9094 -0.2381
    4MOL   C118 1804   4.562   4.496   0.669 -0.4025  0.1312 -0.3374
    4MOL   C119 1805   4.634   4.634   0.688  0.1677  0.2182 -0.0249
    4MOL   N120 1806   4.701   4.687   0.582  0.2947 -0.0431 -0.0898
    4MOL   C121 1807   4.772   4.625   0.471  0.2700  0.0895  0.0710
    4MOL   C122 1808   4.799   4.485   0.462 -0.5411  0.5935 -0.5256
    4MOL   C123 1809   4.851   4.421   0.349  0.4044  1.1291  0.2600
    4MOL   C124 1810   4.882   4.504   0.237  0.1832  0.1862  0.0799
    4MOL   N125 1811   4.957   4.453   0.132 -0.3558 -0.8403 -0.1980
    4MOL   C126 1812   4.851   4.643   0.237 -0.6360 -0.6136 -0.6065
    4MOL   C127 1813   4.799   4.699   0.357 -0.2780 -0.0551  0.3748
    4MOL   O128 1814   4.641   4.686   0.802  0.2169  0.4172 -0.3202
    4MOL   C129 1815   4.473   4.469   0.564  0.3501 -0.9521 -0.4339
    4MOL   C130 1816   4.416   4.339   0.547 -0.5091 -0.3183  0.7018
    4MOL   O131 1817   4.471   3.995   0.633 -0.3845 -0.8772 -0.1200
    4MOL   H132 1818   4.564   4.169   0.790  0.8463  0.8599  0.4257
    4MOL   H133 1819   4.669   4.407   0.834  0.9686  1.1511 -2.5944
    4MOL   H134 1820   4.713   4.785   0.601  0.2797  0.0402 -0.5240
    4MOL   H135 1821   4.788   4.412   0.541  0.8187 -0.2251 -1.0800
    4MOL   H136 1822   4.864   4.313   0.351 -1.1869  0.8753 -1.7639
    4MOL   H137 1823   5.052   4.485   0.114 -0.6479 -0.6294 -1.4293
    4MOL   H138 1824   4.865   4.717   0.160 -4.1620  0.2291 -0.5213
    4MOL   H139 1825   4.770   4.803   0.354 -0.5393 -0.0951  1.3763
    4MOL   H140 1826   4.461   4.545   0.488  2.3406  1.1340  1.3055
    4MOL   H141 1827   4.366   4.331   0.451 -0.3690 -2.4525  0.7783
    4MOL   C142 1828   4.935   4.339   0.067 -0.4977 -0.1011 -1.1317
    4MOL   C143 1829   4.803   4.278   0.077  0.2439 -0.4560  0.0008
    4MOL   C144 1830   4.799   4.140   0.101  0.6633 -0.7057  0.6688
    4MOL   C145 1831   4.670   4.080   0.132  0.2503 -0.6282 -0.5608
    4MOL   C146 1832   4.546   4.145   0.107 -0.0813  0.1467  0.3756
    4MOL   C147 1833   4.413   4.079   0.135 -0.1696  0.1123 -0.1133
    4MOL   N148 1834   4.391   3.978   0.059 -0.0969 -0.4523  0.3598
    4MOL   C149 1835   4.287   3.880   0.052 -0.1015 -0.2437  0.1353
    4MOL   C150 1836   4.178   3.866   0.145  0.4685  0.2589  0.1917
    4MOL   C151 1837   4.098   3.746   0.132  0.5329  0.3194  0.2853
    4MOL   C152 1838   4.111   3.650   0.025  0.7181  1.3206 -0.5862
    4MOL   N153 1839   4.021   3.543   0.008 -0.3791  0.5449  0.6342
    4MOL   C154 1840   4.201   3.685   8.065 -0.3130 -0.2373 -0.2828
    4MOL   C155 1841   4.286   3.799   8.081 -0.2544 -0.4535  0.3620
    4MOL   O156 1842   4.342   4.128   0.219  0.3380 -0.3852  0.4674
    4MOL   C157 1843   4.555   4.280   0.064 -0.4268 -0.0287 -0.3031
    4MOL   C158 1844   4.683   4.348   0.059  0.1426 -0.0890 -0.7081
    4MOL   O159 1845   5.032   4.295   0.003  0.1138 -0.0826 -0.0114
    4MOL   H160 1846   4.886   4.079   0.118  0.9040 -0.9101 -1.1706
    4MOL   H161 1847   4.672   3.977   0.165 -2.4043 -0.2810  0.7567
    4MOL   H162 1848   4.465   3.967   8.137  0.0210 -3.9170  0.9527
    4MOL   H163 1849   4.162   3.931   0.230  0.9083  1.8122 -0.8975
    4MOL   H164 1850   4.028   3.739   0.214  1.2202  0.3015  0.8776
    4MOL   H165 1851   4.010   3.505   8.061 -0.3301  0.9429  0.4642
    4MOL   H166 1852   4.208   3.640   7.968  2.4363  1.5394 -0.9865
    4MOL   H167 1853   4.360   3.822   8.006 -0.1251 -1.3284  0.2187
    4MOL   H168 1854   4.468   4.343   0.051 -0.5903 -0.1684  0.1149
    4MOL   H169 1855   4.680   4.451   0.025  0.7321  0.3344  0.4642
    4MOL   C170 1856   3.960   3.468   0.109 -0.1606  0.5357  0.2903
    4MOL   C171 1857   3.867   3.360   0.061  0.3642  0.2488  0.2172
    4MOL   C172 1858   3.815   3.361   8.070 -0.1486  0.5308 -0.2316
    4MOL   C173 1859   3.717   3.271   8.033  0.3406 -0.2638 -0.1063
    4MOL   C174 1860   3.684   3.162   8.117  0.4425 -0.2680 -0.0187
    4MOL   C175 1861   3.586   3.064   8.063  0.5242  0.2434 -0.1330
    4MOL   N176 1862   3.521   2.996   0.010 -0.3324  0.0162  0.4782
    4MOL   C177 1863   3.410   2.915   0.007  0.7554 -0.0592  0.1539
    4MOL   C178 1864   3.322   2.904   8.045 -0.5251 -0.1661  0.4523
    4MOL   C179 1865   3.202   2.831   8.048 -0.4219 -0.1185 -0.9447
    4MOL   C180 1866   3.161   2.773   0.024 -0.0836 -0.0101 -0.0166
    4MOL   N181 1867   3.041   2.699   0.038 -0.4766  0.0160 -0.0322
    4MOL   C182 1868   3.248   2.785   0.130 -0.3697  0.1979 -0.2317
    4MOL   C183 1869   3.372   2.854   0.128 -0.1990 -0.6912 -0.0577
    4MOL   O184 1870   3.577   3.044   7.940 -0.1543 -0.1781 -0.4553
    4MOL   C185 1871   3.740   3.154   0.105  0.3325 -0.3326  0.2809
    4MOL   C186 1872   3.822   3.266   0.150 -0.3368  0.2079  0.2443
    4MOL   O187 1873   3.978   3.488   0.230 -0.8590  0.1776 -0.3049
    4MOL   H188 1874   3.827   3.450   8.010  0.9719  0.3508 -0.2806
    4MOL   H189 1875   3.664   3.299   7.943 -0.2685 -1.7361 -0.2128
    4MOL   H190 1876   3.552   3.028   0.101  2.3368 -1.6307  0.2192
    4MOL   H191 1877   3.345   2.947   7.948 -1.6227  0.0646  0.2858
    4MOL   H192 1878   3.142   2.809   7.961  0.8889 -0.4366 -1.7845
    4MOL   H193 1879   2.953   2.734   0.005 -0.8159  0.2578  1.1067
    4MOL   H194 1880   3.220   2.737   0.222 -0.2351  0.3356 -0.1187
    4MOL   H195 1881   3.434   2.857   0.216  0.9974 -0.8427 -0.8879
    4MOL   H196 1882   3.715   3.070   0.167 -1.2685  0.5112  0.7912
    4MOL   H197 1883   3.868   3.251   0.247 -0.0958 -2.0035 -0.1744
    4MOL   C198 1884   3.033   2.566   0.046 -0.5919  0.0921 -0.0424
    4MOL   C199 1885   2.899   2.504   0.008 -0.0970  0.0599 -0.6026
    4MOL   C200 1886   2.803   2.561   8.065  0.0074 -0.3518 -0.5322
    4MOL   C201 1887   2.680   2.495   8.038 -0.0185 -0.0749  0.3047
    4MOL   C202 1888   2.649   2.377   8.101 -0.6829  0.3091  0.4356
    4MOL   C203 1889   2.528   2.305   8.052 -1.1229 -0.2226 -0.3343
    4MOL   N204 1890   2.546   2.180   8.014 -0.2245 -0.2713 -0.8540
    4MOL   C205 1891   2.452   2.098   7.949 -0.3232  0.2735 -0.0037
    4MOL   C206 1892   2.471   1.960   7.942  0.0819 -0.5037  0.4473
    4MOL   C207 1893   2.380   1.875   7.880  0.3726  0.1581  0.2251
    4MOL   C208 1894   2.278   1.929   7.809 -0.2130 -0.7155  0.6043
    4MOL   N209 1895   2.189   1.848   7.730 -0.0206 -0.0687  0.1298
    4MOL   C210 1896   2.253   2.064   7.802 -0.2905  0.6641  0.0161
    4MOL   C211 1897   2.338   2.152   7.875 -0.9422  0.0472  0.1335
    4MOL   O212 1898   2.420   2.369   8.062 -0.0226 -0.1683 -0.6252
    4MOL   C213 1899   2.744   2.314   0.043  0.1221 -0.7463 -0.2071
    4MOL   C214 1900   2.867   2.382   0.070 -0.0792 -0.3858  0.5410
    4MOL   O215 1901   3.130   2.500   0.089  0.5038 -0.1784 -0.6412
    4MOL   H216 1902   2.829   2.659   8.029  0.1549 -0.8266 -1.7509
    4MOL   H217 1903   2.613   2.542   7.968 -0.9031  0.0653  1.2526
    4MOL   H218 1904   2.643   2.154   8.011 -0.2752 -0.6268  0.3177
    4MOL   H219 1905   2.558   1.905   7.971  0.7675  0.1864 -0.2641
    4MOL   H220 1906   2.397   1.769   7.876 -1.8720 -0.3054  2.0515
    4MOL   H221 1907   2.095   1.839   7.766  0.1830 -1.3070  0.3876
    4MOL   H222 1908   2.174   2.096   7.735 -0.9182  1.1102  0.9534
    4MOL   H223 1909   2.314   2.255   7.853  3.5518  0.7419 -1.9393
    4MOL   H224 1910   2.728   2.215   0.081 -3.2225  0.5891  2.1130
    4MOL   H225 1911   2.935   2.341   0.142 -1.5395 -3.1915  0.3949
    4MOL   C226 1912   2.235   1.801   7.615  0.5594  0.0338 -0.0814
    4MOL   C227 1913   2.131   1.728   7.537  0.5662  0.3720 -0.1917
    4MOL   C228 1914   1.994   1.721   7.570  0.2140 -0.3813  0.5312
    4MOL   C229 1915   1.906   1.634   7.505 -0.6744  0.0230  0.3159
    4MOL   C230 1916   1.948   1.565   7.388  0.4201  0.3013 -0.3100
    4MOL   C231 1917   1.861   1.462   7.317 -0.4838  0.2984  0.1961
    4MOL   N232 1918   1.774   1.391   7.392 -0.3286 -0.0970  0.3283
    4MOL   C233 1919   1.695   1.281   7.353 -0.1130 -0.2206  0.1343
    4MOL   C234 1920   1.703   1.211   7.238  0.4081  0.1207 -0.3808
    4MOL   C235 1921   1.601   1.112   7.204 -0.1825 -1.0212  0.2206
    4MOL   C236 1922   1.491   1.086   7.293 -0.0370 -0.2671 -1.5878
    4MOL   N237 1923   1.386   0.995   7.275  0.1972  0.2967 -0.1549
    4MOL   C238 1924   1.496   1.152   7.416  0.7509  0.3510  0.0451
    4MOL   C239 1925   1.592   1.249   7.441 -0.6057  0.2251 -0.1480
    4MOL   O240 1926   1.868   1.448   7.193 -0.9624 -0.3254  0.2721
    4MOL   C241 1927   2.081   1.579   7.344 -0.6444  0.3663  0.9899
    4MOL   C242 1928   2.167   1.663   7.419 -0.4014 -0.8801  0.2974
    4MOL   O243 1929   2.344   1.815   7.570  0.1109 -0.0756 -0.1934
    4MOL   H244 1930   1.947   1.774   7.651 -3.6582 -1.9618 -0.5265
    4MOL   H245 1931   1.802   1.643   7.534 -0.8384  0.4263 -0.3971
    4MOL   H246 1932   1.760   1.421   7.487 -1.1091 -0.0935  0.2173
    4MOL   H247 1933   1.770   1.238   7.157 -0.3761 -0.4353 -1.2278
    4MOL   H248 1934   1.610   1.061   7.110  1.8032  1.1810 -0.8528
    4MOL   H249 1935   1.347   0.961   7.361 -0.4270  0.0541 -0.5328
    4MOL   H250 1936   1.429   1.135   7.499 -0.4490  1.8042 -0.5880
    4MOL   H251 1937   1.591   1.295   7.539  0.1843 -2.5649  1.2106
    4MOL   H252 1938   2.110   1.533   7.251  0.5840  0.6838  1.2075
    4MOL   H253 1939   2.269   1.680   7.389  0.8164 -1.7729  3.8173
    4MOL   C254 1940   1.330   0.960   7.159  0.2935 -0.2358 -0.4567
    4MOL   C255 1941   1.220   0.862   7.165  0.2847  1.0835  0.3156
    4MOL   C256 1942   1.212   0.762   7.263  0.0109  0.4852 -0.0562
    4MOL   C257 1943   1.107   0.671   7.276  0.7168  0.7118  0.7721
    4MOL   C258 1944   0.997   0.684   7.183  0.3052 -0.0737  0.0613
    4MOL   C259 1945   0.890   0.571   7.171 -0.4369 -0.2440 -0.7629
    4MOL   N260 1946   0.894   0.493   7.281  0.6558  0.7237  0.2131
    4MOL   C261 1947   0.807   0.384   7.327 -0.7636  0.5185  0.0058
    4MOL   C262 1948   0.685   0.353   7.261 -0.1580 -0.5238 -0.2095
    4MOL   C263 1949   0.610   0.239   7.299  0.3975 -0.3234  0.8048
    4MOL   C264 1950   0.655   0.160   7.410  0.2496 -0.1399  0.3676
    4MOL   N265 1951   0.578   0.048   7.458 -0.2059  0.6357  0.3512
    4MOL   C266 1952   0.770   0.198   7.479 -0.4933  0.8888  0.3949
    4MOL   C267 1953   0.849   0.297   7.428  0.8100 -0.1914 -0.0467
    4MOL   O268 1954   0.809   0.556   7.078  0.0074  0.2643 -0.1711
    4MOL   C269 1955   0.996   0.793   7.093 -0.0817 -0.5023 -0.1022
    4MOL   C270 1956   1.106   0.887   7.085 -0.3242 -0.8369 -0.7896
    4MOL   O271 1957   1.355   1.009   7.044  0.0652  0.0555  0.4644
    4MOL   H272 1958   1.280   0.754   7.347 -0.3455 -1.5388  0.0709
    4MOL   H273 1959   1.107   0.594   7.352  0.3986 -0.1070 -0.0480
    4MOL   H274 1960   0.973   0.514   7.340  2.7759 -0.3261 -2.1934
    4MOL   H275 1961   0.653   0.407   7.173  0.6220  2.0251  1.0088
    4MOL   H276 1962   0.515   0.216   7.252 -0.1570  2.4022  0.5337
    4MOL   H277 1963   0.557   0.053   7.557 -3.2037  0.9760 -0.2643
    4MOL   H278 1964   0.814   0.137   7.556  0.3517 -1.3507 -1.7860
    4MOL   H279 1965   0.942   0.318   7.477 -1.1389  1.4650  3.1413
    4MOL   H280 1966   0.912   0.798   7.025 -1.9820 -1.3533  2.0816
    4MOL   H281 1967   1.102   0.972   7.019  0.9841 -1.2803 -1.4529
    4MOL   C282 1968   0.493   8.115   7.385 -0.1038 -0.4959 -0.2269
    4MOL   C283 1969   0.373   8.056   7.462  0.0542  0.1911 -0.4635
    4MOL   C284 1970   0.289   7.958   7.404 -0.3795  0.1399  0.4449
    4MOL   C285 1971   0.176   7.904   7.478  0.0591  0.5616  0.8607
    4MOL   C286 1972   0.153   7.955   7.610  0.3678  0.3651  0.3515
    4MOL   C287 1973   0.037   7.904   7.688  0.1786 -0.3823  0.2678
    4MOL   N288 1974   8.065   7.973   7.681 -0.7448  0.0674  0.0254
    4MOL   C289 1975   8.005   8.040   7.568 -0.3051 -0.5998  0.0918
    4MOL   C290 1976   7.865   8.027   7.560  0.1606  0.0605 -0.0302
    4MOL   C291 1977   7.793   8.101   7.461  0.3700 -0.3585  0.6739
    4MOL   C292 1978   7.870   0.022   7.365 -0.3764  0.3204  0.3555
    4MOL   N293 1979   7.815   0.101   7.257 -0.1658  0.5943 -0.5216
    4MOL   C294 1980   8.003   0.041   7.373  0.0956 -0.7186  0.5718
    4MOL   C295 1981   8.073   8.127   7.477 -0.2109  0.2172 -0.1887
    4MOL   O296 1982   0.052   7.814   7.774 -0.1237 -0.1193 -0.1178
    4MOL   C297 1983   0.240   8.039   7.674 -0.6315 -0.0251 -0.6138
    4MOL   C298 1984   0.348   8.090   7.598  0.1425  0.1375 -0.4344
    4MOL   O299 1985   0.510   8.084   7.264 -0.0216 -0.1648  0.0171
    4MOL   H300 1986   0.323   7.912   7.312  2.8621  1.7533  0.7887
    4MOL   H301 1987   0.127   7.823   7.427  1.6523 -1.4104  2.3632
    4MOL   H302 1988   7.995   7.930   7.738  0.8742 -2.8950 -0.0920
    4MOL   H303 1989   7.808   7.970   7.631  2.9139 -0.9356  1.4814
    4MOL   H304 1990   7.685   8.111   7.459  0.2598 -1.5542  0.2804
    4MOL   H305 1991   7.870   0.178   7.222 -1.0246  0.5840 -1.9354
    4MOL   H306 1992   8.052   0.106   7.302 -1.9619 -0.5160 -0.7031
    4MOL   H307 1993   0.032   0.006   7.483 -0.2534 -0.1582  3.5158
    4MOL   H308 1994   0.231   8.066   7.778 -0.0525 -2.0026 -0.0361
    4MOL   H309 1995   0.422   0.004   7.649  1.1119 -0.2888 -1.3357
    4MOL   C310 1996   7.722   0.062   7.173  0.3134  0.2474  0.0692
    4MOL   C311 1997   7.695   0.155   7.056 -0.8574 -0.1185 -0.4552
    4MOL   C312 1998   7.740   0.120   6.925 -0.5859  0.0028 -0.3967
    4MOL   C313 1999   7.717   0.219   6.829 -0.3781  0.3551  0.2099
    4MOL   C314 2000   7.666   0.347   6.852 -0.2547  0.0188  0.1887
    4MOL   C315 2001   7.648   0.449   6.749 -0.1399 -0.1923  0.0602
    4MOL   N316 2002   7.723   0.427   6.640 -0.7113 -0.3440 -0.7864
    4MOL   C317 2003   7.732   0.490   6.514 -0.4373  0.0702  0.1696
    4MOL   C318 2004   7.839   0.454   6.437 -0.7271  0.1791 -0.3825
    4MOL   C319 2005   7.881   0.528   6.328 -0.1916  1.1473  0.5992
    4MOL   C320 2006   7.798   0.632   6.281  0.2386 -1.6585  0.1790
    4MOL   N321 2007   7.836   0.716   6.171 -0.6104  0.4722 -0.1687
    4MOL   C322 2008   7.681   0.665   6.357  0.6002  0.0555  0.0700
    4MOL   C323 2009   7.648   0.589   6.471  0.3624  0.1003 -0.1975
    4MOL   O324 2010   7.574   0.549   6.757 -0.7594  0.3512  0.2925
    4MOL   C325 2011   7.623   0.380   6.982  0.4174 -0.7111  0.4908
    4MOL   C326 2012   7.628   0.284   7.085 -0.2707  0.1085  0.4926
    4MOL   O327 2013   7.656   8.105   7.193  0.1036 -0.2154  0.2868
    4MOL   H328 2014   7.773   0.019   6.906  0.5859  0.6100 -1.6327
    4MOL   H329 2015   7.736   0.199   6.725  3.2705  0.4849  0.8021
    4MOL   H330 2016   7.774   0.341   6.650  0.0340  0.4045  2.0857
    4MOL   H331 2017   7.901   0.375   6.475  2.5874  3.4267  1.2235
    4MOL   H332 2018   7.965   0.491   6.270 -1.9134 -1.4133 -0.3383
    4MOL   H333 2019   7.825   0.815   6.188  1.1405  0.6364  0.0819
    4MOL   H334 2020   7.616   0.739   6.314 -0.6300  1.0143  3.3822
    4MOL   H335 2021   7.560   0.620   6.526  1.9627  0.1183  2.4833
    4MOL   H336 2022   7.586   0.480   7.002  1.1792  0.2362 -2.4463
    4MOL   H337 2023   7.594   0.309   7.184 -3.4816  2.1201 -1.0551
    4MOL   C338 2024   7.913   0.680   6.072 -0.2815 -0.0312 -0.3273
    4MOL   C339 2025   7.989   0.794   6.002 -0.1907  0.7190 -0.4646
    4MOL   C340 2026   8.106   0.764   5.933  0.5549  0.1514 -0.0317
    4MOL   C341 2027   0.038   0.868   5.878  0.1107 -0.1537  0.2768
    4MOL   C342 2028   8.139   1.002   5.887  0.4461 -1.2752 -0.0885
    4MOL   C343 2029   0.078   1.124   5.849 -0.6059 -0.2527  0.6663
    4MOL   N344 2030   0.173   1.101   5.762  0.1957 -0.1503  0.0151
    4MOL   C345 2031   0.266   1.200   5.721  0.3639 -0.4107 -0.5978
    4MOL   C346 2032   0.214   1.322   5.674  0.2985  0.7087  0.0900
    4MOL   C347 2033   0.303   1.413   5.623  0.2161 -0.7897 -0.2962
    4MOL   C348 2034   0.441   1.391   5.616  0.3849  0.0157  0.6009
    4MOL   N349 2035   0.532   1.494   5.568 -0.7794  0.6477 -0.6015
    4MOL   C350 2036   0.485   1.265   5.654  0.6414 -0.0671 -0.6733
    4MOL   C351 2037   0.403   1.166   5.708  0.2365  0.2424  0.1796
    4MOL   O352 2038   0.050   1.236   5.894  0.2371  0.2934 -0.1316
    4MOL   C353 2039   8.019   1.024   5.953  0.4373 -0.0930 -0.1126
    4MOL   C354 2040   7.944   0.924   6.001 -0.4199  0.0862 -0.2681
    4MOL   O355 2041   7.926   0.565   6.029 -0.4390  0.4666 -0.1858
    4MOL   H356 2042   8.143   0.662   5.928  4.8538  1.6714 -1.5558
    4MOL   H357 2043   0.129   0.849   5.823  0.7758  0.9535  0.9700
    4MOL   H358 2044   0.181   1.007   5.728 -0.2405 -1.0697  2.3160
    4MOL   H359 2045   0.109   1.345   5.664  0.2763 -0.0724 -1.6059
    4MOL   H360 2046   0.255   1.508   5.607 -1.5659 -1.7026 -0.5793
    4MOL   H361 2047   0.632   1.484   5.572 -0.8045  0.6471  0.1465
    4MOL   H362 2048   0.590   1.239   5.642  0.4260 -1.7116  0.9165
    4MOL   H363 2049   0.444   1.070   5.735  0.4818 -0.1605 -1.5492
    4MOL   H364 2050   7.975   1.123   5.957  0.4384 -0.1260  1.0541
    4MOL   H365 2051   7.851   0.952   6.049 -1.1568  0.2780 -1.7687
    4MOL   C366 2052   0.504   1.616   5.519 -0.3387 -0.5129  0.2816
    4MOL   C367 2053   0.613   1.720   5.526 -1.1096 -0.3786  0.3989
    4MOL   C368 2054   0.721   1.702   5.616  0.2235 -0.4863 -0.0931
    4MOL   C369 2055   0.832   1.788   5.614  0.1967  0.1808 -0.4678
    4MOL   C370 2056   0.835   1.895   5.523 -0.1274 -0.8240 -0.5202
    4MOL   C371 2057   0.939   2.003   5.531  0.5721  0.4722 -0.2552
    4MOL   N372 2058   1.005   2.016   5.646  0.0620  0.2537  0.2579
    4MOL   C373 2059   1.070   2.137   5.686  0.1057  0.6999  0.2955
    4MOL   C374 2060   1.188   2.127   5.758 -0.1704  0.6756 -0.7207
    4MOL   C375 2061   1.253   2.252   5.801 -0.7440 -0.2317 -0.9809
    4MOL   C376 2062   1.189   2.374   5.776  0.4406 -0.2054  0.3492
    4MOL   N377 2063   1.243   2.493   5.827  0.4685 -0.4597 -0.2448
    4MOL   C378 2064   1.073   2.382   5.698  0.3261  0.5381  0.5632
    4MOL   C379 2065   1.014   2.262   5.660 -0.0040  0.0184  0.5005
    4MOL   O380 2066   0.946   2.073   5.434  0.0147  0.5044 -0.5903
    4MOL   C381 2067   0.731   1.911   5.437  0.2166 -0.9569 -0.1719
    4MOL   C382 2068   0.620   1.829   5.437 -0.0469  0.6705  0.2401
    4MOL   O383 2069   0.401   1.645   5.471  0.8848  0.2231  0.0589
    4MOL   H384 2070   0.723   1.616   5.681  4.8110  2.3265  3.7286
    4MOL   H385 2071   0.921   1.774   5.674  0.7466 -0.0897 -1.3253
    4MOL   H386 2072   1.013   1.930   5.699 -1.0558 -0.1876 -0.2763
    4MOL   H387 2073   1.222   2.026   5.773  1.4759  1.3282  0.0714
    4MOL   H388 2074   1.340   2.241   5.863 -1.3506  0.3332 -0.0204
    4MOL   H389 2075   1.332   2.508   5.780  1.3767 -2.3872  0.7914
    4MOL   H390 2076   1.034   2.480   5.673 -0.0026  0.6433  1.4663
    4MOL   H391 2077   0.919   2.260   5.609 -0.3547  1.4727  1.0615
    4MOL   H392 2078   0.720   1.996   5.371  0.2207 -1.4797 -0.8512
    4MOL   H393 2079   0.543   1.853   5.365 -0.2627 -1.0507 -0.1235
    4MOL   C394 2080   1.189   2.602   5.885 -0.2060  0.9605  0.6780
    4MOL   C395 2081   1.047   2.599   5.944  0.0720  0.1111  0.2939
    4MOL   C396 2082   0.948   2.700   5.923 -0.8316  0.5872  0.2018
    4MOL   C397 2083   0.820   2.691   5.968  0.4737 -0.1004 -0.0324
    4MOL   C398 2084   0.783   2.585   6.053  0.1498 -0.0201  0.0373
    4MOL   C399 2085   0.657   2.585   6.132  0.3823  0.4704 -0.2378
    4MOL   N400 2086   0.629   2.698   6.185 -0.6946  0.2106  0.1241
    4MOL   C401 2087   0.540   2.724   6.294  0.0154 -0.3190  0.6409
    4MOL   C402 2088   0.431   2.644   6.323  0.4698 -0.6616  0.4676
    4MOL   C403 2089   0.349   2.675   6.429  0.3909 -0.8712  0.5228
    4MOL   C404 2090   0.371   2.782   6.512 -0.4027  0.6991 -0.5288
    4MOL   N405 2091   0.284   2.819   6.622 -0.3279 -0.1045  0.1435
    4MOL   C406 2092   0.481   2.865   6.486 -0.5153  0.0137  0.3043
    4MOL   C407 2093   0.566   2.839   6.373  0.6686 -0.1959 -0.0801
    4MOL   O408 2094   0.582   2.489   6.137 -0.3549  0.6324  0.3593
    4MOL   C409 2095   0.870   2.474   6.066  0.4745 -0.1121  0.1046
    4MOL   C410 2096   1.003   2.494   6.023  0.4169 -0.3730 -0.1320
    4MOL   O411 2097   1.259   2.705   5.896  0.5381 -0.3461  0.0779
    4MOL   H412 2098   0.977   2.783   5.861 -0.3006  0.4590  0.2814
    4MOL   H413 2099   0.753   2.773   5.949 -0.6172 -1.4334 -2.0394
    4MOL   H414 2100   0.710   2.758   6.174  0.1534 -0.6275  1.5305
    4MOL   H415 2101   0.407   2.550   6.276  1.8356 -0.6619 -0.2692
    4MOL   H416 2102   0.263   2.610   6.441 -0.0001 -0.6378 -0.9775
    4MOL   H417 2103   0.307   2.898   6.681 -0.7219  0.8417 -0.9482
    4MOL   H418 2104   0.506   2.955   6.541 -1.4720  0.5084 -0.0542
    4MOL   H419 2105   0.637   2.915   6.347  0.2480  0.6105  1.0887
    4MOL   H420 2106   0.847   2.393   6.133 -0.6860 -1.3712 -1.7844
    4MOL   H421 2107   1.063   2.406   6.039  0.4497 -0.5371 -1.1182
    4MOL   C422 2108   0.188   2.747   6.686 -0.3390 -0.3037  0.5992
    4MOL   C423 2109   0.111   2.827   6.783  0.4150 -1.2041  0.3049
    4MOL   C424 2110   0.094   2.781   6.915  0.3903 -0.4258  0.1638
    4MOL   C425 2111   0.032   2.861   7.011 -0.3891 -0.3333 -0.4750
    4MOL   C426 2112   8.112   2.980   6.975  0.6373 -0.7782  0.5970
    4MOL   C427 2113   8.053   3.068   7.086 -0.1552 -0.3466 -0.3998
    4MOL   N428 2114   7.970   3.164   7.043  0.1815  0.5125  0.0237
    4MOL   C429 2115   7.971   3.292   7.085 -0.0411 -0.2664 -0.0264
    4MOL   C430 2116   7.917   3.340   7.205  0.5419  0.4271  0.3085
    4MOL   C431 2117   7.914   3.473   7.243  0.4446 -0.2185 -0.1406
    4MOL   C432 2118   7.971   3.562   7.149  0.3499 -0.0606  0.0668
    4MOL   N433 2119   7.973   3.701   7.172  0.1373 -0.5849  0.1436
    4MOL   C434 2120   8.037   3.516   7.026  0.2242  0.1645  0.3199
    4MOL   C435 2121   8.035   3.385   7.001 -0.7975 -0.6299  0.3032
    4MOL   O436 2122   8.076   3.043   7.202  0.1384 -0.2276 -0.3077
    4MOL   C437 2123   8.104   3.015   6.839  0.3094  0.4773 -0.1441
    4MOL   C438 2124   0.043   2.947   6.747  0.6273 -0.6269 -0.0149
    4MOL   O439 2125   0.162   2.628   6.666 -0.3301  0.0831  0.0530
    4MOL   H440 2126   0.135   2.684   6.938  0.3020 -0.3111  0.8324
    4MOL   H441 2127   0.028   2.812   7.106  0.9997 -1.4026 -0.9494
    4MOL   H442 2128   7.942   3.154   6.946 -1.1527 -1.7924  0.6054
    4MOL   H443 2129   7.870   3.280   7.282 -0.0817  1.0085  0.3922
    4MOL   H444 2130   7.867   3.523   7.326 -1.4871  1.2357 -2.0246
    4MOL   H445 2131   8.064   3.739   7.196 -1.0583  1.9588  0.7710
    4MOL   H446 2132   8.073   3.596   6.963  0.6525  0.4369  0.8955
    4MOL   H447 2133   8.087   3.354   6.911  1.9952  0.7295  1.3999
    4MOL   H448 2134   8.042   3.095   6.800  1.2485  0.8719 -0.8822
    4MOL   H449 2135   0.044   2.989   6.647 -1.9520  0.2329  0.2723
    4MOL   C450 2136   7.897   3.791   7.105 -0.4556 -0.0368 -0.1821
    4MOL   C451 2137   7.767   3.740   7.044 -1.0270  0.2972  0.4339
    4MOL   C452 2138   7.671   3.669   7.119  0.4182  0.2379 -0.5059
    4MOL   C453 2139   7.561   3.609   7.058 -0.4321  0.2954 -0.2038
    4MOL   C454 2140   7.529   3.628   6.924  0.9183 -0.5198  0.0369
    4MOL   C455 2141   7.411   3.570   6.858  1.2453 -0.2183 -0.4901
    4MOL   N456 2142   7.314   3.533   6.945 -0.1793  0.4173  0.0422
    4MOL   C457 2143   7.190   3.468   6.912  0.1007  0.2710  0.1293
    4MOL   C458 2144   7.123   3.499   6.793  0.0646 -0.7116 -0.1566
    4MOL   C459 2145   7.011   3.430   6.756 -0.9462 -0.1514  0.4674
    4MOL   C460 2146   6.959   3.332   6.836  0.7716 -0.0109 -0.5598
    4MOL   N461 2147   6.857   3.249   6.789 -0.1059  0.0237  0.4749
    4MOL   C462 2148   7.026   3.300   6.959  0.2226  0.7614 -0.5004
    4MOL   C463 2149   7.136   3.372   7.002 -0.2522 -0.1353 -0.1369
    4MOL   O464 2150   7.405   3.570   6.733  0.2022 -0.3380 -0.0477
    4MOL   C465 2151   7.622   3.713   6.851 -0.0390 -0.3303 -0.3039
    4MOL   C466 2152   7.738   3.767   6.910  0.3361  0.0666  0.7196
    4MOL   O467 2153   7.929   3.908   7.090 -0.5343 -1.3682  0.1373
    4MOL   H468 2154   7.691   3.662   7.225  0.5151  0.5846 -0.4991
    4MOL   H469 2155   7.506   3.539   7.118  1.2252 -1.5433 -0.7968
    4MOL   H470 2156   7.329   3.560   7.042 -0.8892  4.3657 -0.8250
    4MOL   H471 2157   7.152   3.582   6.731  0.4183 -0.8215 -0.1414
    4MOL   H472 2158   6.957   3.461   6.667 -0.2005 -3.0276 -1.0226
    4MOL   H473 2159   6.803   3.273   6.706 -0.8778  0.1381  1.0038
    4MOL   H474 2160   7.004   3.212   7.016 -0.7993  0.1987 -1.7344
    4MOL   H475 2161   7.185   3.352   7.096 -0.9296 -0.8226  0.0795
    4MOL   H476 2162   7.594   3.736   6.750  1.3044  0.8905 -0.3990
    4MOL   H477 2163   7.796   3.833   6.846 -1.5783 -0.3964 -1.5702
    4MOL   C478 2164   6.802   3.134   6.842 -0.6534 -0.3922 -0.9222
    4MOL   C479 2165   6.682   3.083   6.766  0.5686 -0.2135  0.3480
    4MOL   C480 2166   6.599   2.991   6.829 -0.5537  0.0608 -0.4683
    4MOL   C481 2167   6.484   2.941   6.757 -0.6387  0.4138  0.0694
    4MOL   C482 2168   6.466   2.966   6.617  0.0759 -0.1411  0.0365
    4MOL   C483 2169   6.339   2.916   6.549  0.3093 -0.1169 -0.1977
    4MOL   N484 2170   6.235   2.998   6.527  0.2279  0.7189 -0.7911
    4MOL   C485 2171   6.209   3.129   6.583 -0.2265  0.1816  0.6407
    4MOL   C486 2172   6.146   3.222   6.496  0.4520  0.2776  0.0888
    4MOL   C487 2173   6.109   3.347   6.559  0.1872 -0.2617 -0.0434
    4MOL   C488 2174   6.121   3.370   6.696  0.7735 -0.3736  0.2586
    4MOL   N489 2175   6.058   3.478   6.748  0.2374 -0.5695 -0.2668
    4MOL   C490 2176   6.181   3.273   6.774 -0.0463 -0.2967  0.3765
    4MOL   C491 2177   6.223   3.149   6.722 -0.0181  0.0078 -0.1677
    4MOL   O492 2178   6.330   2.801   6.508  0.1386 -0.0385 -0.7263
    4MOL   C493 2179   6.560   3.054   6.557  0.4590  0.1147 -0.2350
    4MOL   C494 2180   6.666   3.111   6.629  0.1648 -0.0310  0.1605
    4MOL   O495 2181   6.839   3.074   6.944 -0.5615 -0.0522  0.2352
    4MOL   H496 2182   6.624   2.972   6.932  0.5791 -0.9374 -0.9212
    4MOL   H497 2183   6.411   2.884   6.811  1.7394 -3.2097 -0.3922
    4MOL   H498 2184   6.160   2.963   6.470  0.3625  2.3127 -1.9733
    4MOL   H499 2185   6.129   3.203   6.392 -2.1331  1.4946  0.2548
    4MOL   H500 2186   6.061   3.415   6.490 -0.3314 -0.7450 -0.1581
    4MOL   H501 2187   6.082   3.571   6.716 -1.0271 -0.9144 -2.3248
    4MOL   H502 2188   6.194   3.282   6.881 -2.4499 -0.3559  0.6952
    4MOL   H503 2189   6.269   3.082   6.794  0.1044 -0.3911 -0.6163
    4MOL   H504 2190   6.525   3.089   6.461 -3.1404  0.1444  1.0063
    4MOL   H505 2191   6.724   3.180   6.571 -1.3314  0.1385 -1.1566
    4MOL   C506 2192   5.990   3.472   6.865 -0.1919  0.3405 -0.1555
    4MOL   C507 2193   5.975   3.599   6.941 -0.9933  0.2996  0.8430
    4MOL   C508 2194   5.939   3.722   6.882  0.2359 -0.4624  0.2781
    4MOL   C509 2195   5.924   3.843   6.951 -0.6186 -0.8454 -0.2190
    4MOL   C510 2196   5.947   3.843   7.095  0.5441 -0.5406  0.1763
    4MOL   C511 2197   5.931   3.960   7.185  0.3778 -0.3760  0.1454
    4MOL   N512 2198   5.909   3.927   7.313 -0.0816 -0.0907  0.1982
    4MOL   C513 2199   5.921   4.006   7.426  0.2768  0.6321  0.2441
    4MOL   C514 2200   5.941   4.142   7.419 -0.3147  0.5465 -0.0927
    4MOL   C515 2201   5.942   4.214   7.539 -0.4382  0.5742 -0.1401
    4MOL   C516 2202   5.923   4.152   7.665  0.1830 -0.1963 -0.4408
    4MOL   N517 2203   5.916   4.223   7.788  0.4154 -0.1706  0.6610
    4MOL   C518 2204   5.917   4.013   7.669 -0.4630  0.6619  0.2988
    4MOL   C519 2205   5.916   3.937   7.545 -0.3998 -0.0089  0.1692
    4MOL   O520 2206   5.938   4.073   7.136 -0.0660  0.0432  0.1136
    4MOL   C521 2207   5.985   3.719   7.151  0.4732  0.4520  0.5375
    4MOL   C522 2208   6.008   3.599   7.077  0.3332 -0.5477  0.2969
    4MOL   O523 2209   5.947   3.364   6.907 -0.3496 -0.3516 -0.1137
    4MOL   H524 2210   5.928   3.735   6.775  1.1192 -2.6983 -0.1185
    4MOL   H525 2211   5.900   3.941   6.912  0.8242  0.3502  1.7656
    4MOL   H526 2212   5.869   3.837   7.331  0.7175 -0.1872  1.5390
    4MOL   H527 2213   5.938   4.197   7.326  0.2622 -0.8058 -0.9236
    4MOL   H528 2214   5.956   4.321   7.537  0.9945  0.4393  1.4109
    4MOL   H529 2215   5.918   4.167   7.871 -0.0205  0.4239  1.0804
    4MOL   H530 2216   5.910   3.955   7.760  0.0615 -0.1180 -0.1519
    4MOL   H531 2217   5.931   3.830   7.541 -0.4510 -0.1300  2.6580
    4MOL   H532 2218   6.020   3.721   7.253 -0.6630  1.8666  0.9286
    4MOL   H533 2219   6.038   3.507   7.124  2.4573 -1.2302 -2.2028
    4MOL   C534 2220   5.906   4.358   7.808  0.3228  0.3582 -0.1186
    4MOL   C535 2221   5.862   4.396   7.953 -0.1825  0.0862 -0.5297
    4MOL   C536 2222   5.893   4.522   7.998 -0.6111  0.2472  0.9075
    4MOL   C537 2223   5.836   4.581   8.115  0.4790 -0.2170 -0.9339
    4MOL   C538 2224   5.730   4.512   0.030  0.2870 -0.2255 -0.6351
    4MOL   C539 2225   5.657   4.575   0.149  0.4532  0.4873 -0.0692
    4MOL   N540 2226   5.523   4.553   0.150  0.0661  0.3205 -0.1572
    4MOL   C541 2227   5.428   4.600   0.245 -0.1205 -0.2897 -0.0425
    4MOL   C542 2228   5.326   4.511   0.277 -0.6312  0.3144  0.1072
    4MOL   C543 2229   5.226   4.555   0.363 -0.2445 -0.1434 -0.5877
    4MOL   C544 2230   5.231   4.683   0.417  0.3636 -0.6202  0.4084
    4MOL   N545 2231   5.126   4.719   0.505  0.1187 -0.1151 -0.7824
    4MOL   C546 2232   5.326   4.774   0.383 -0.1530  0.1792  0.1957
    4MOL   C547 2233   5.429   4.733   0.288  0.0615 -0.2177  0.0434
    4MOL   O548 2234   5.719   4.638   0.233  0.1299 -0.0841  0.3931
    4MOL   C549 2235   5.712   4.380   8.141  0.9035  0.1776  0.1021
    4MOL   C550 2236   5.769   4.318   8.027 -0.3997 -0.4727  0.1692
    4MOL   O551 2237   5.912   4.447   7.723 -0.3785 -0.1886 -0.4665
    4MOL   H552 2238   5.955   4.585   7.935 -2.6945  0.0117 -1.4461
    4MOL   H553 2239   5.855   4.681   0.003 -3.1043  0.0243  0.6521
    4MOL   H554 2240   5.491   4.495   0.074  1.3741  0.5897 -0.9334
    4MOL   H555 2241   5.328   4.410   0.239 -0.3114  0.1582  0.5323
    4MOL   H556 2242   5.139   4.492   0.375 -0.1559 -0.5415 -1.8748
    4MOL   H557 2243   5.108   4.819   0.508  2.7653  0.3614  0.5653
    4MOL   H558 2244   5.312   4.876   0.415 -2.2790 -0.3886  1.1291
    4MOL   H559 2245   5.500   4.811   0.263 -0.4955  0.6373  1.0923
    4MOL   H560 2246   5.648   4.319   0.057 -0.7960 -1.7532 -3.4353
    4MOL   H561 2247   5.741   4.218   7.998 -0.1806 -0.5718  0.3049
    4MOL   H562 2248   5.037   4.671   0.506  0.6666 -1.1275 -0.1293
    5MOL     C1 2249   2.544   5.528   3.367 -0.0051  0.3797  0.7454
    5MOL     C2 2250   2.669   5.503   3.440 -0.4913 -0.3459  0.0635
    5MOL     C3 2251   2.714   5.588   3.544 -0.1717 -0.2138  0.3597
    5MOL     C4 2252   2.836   5.562   3.612 -0.2666 -0.4903 -0.1543
    5MOL     C5 2253   2.910   5.444   3.581 -0.4002  0.4449 -0.0681
    5MOL     C6 2254   3.029   5.400   3.659 -0.5093  1.0244  0.0423
    5MOL     N7 2255   3.097   5.499   3.721  0.0984  0.1037 -0.2117
    5MOL     C8 2256   3.216   5.495   3.800  0.2714  0.2467 -0.0203
    5MOL     C9 2257   3.306   5.389   3.803 -0.0113  0.0950  0.4661
    5MOL    C10 2258   3.419   5.395   3.885 -0.4998  0.3297  0.4631
    5MOL    C11 2259   3.442   5.506   3.965 -0.6099  0.3630  0.2482
    5MOL    N12 2260   3.550   5.520   4.055 -0.2356  0.4554  0.1002
    5MOL    C13 2261   3.349   5.610   3.970  1.2101  0.2137 -0.7203
    5MOL    C14 2262   3.231   5.605   3.886 -0.4836 -0.5377 -0.4844
    5MOL    O15 2263   3.077   5.292   3.651 -0.2047  0.2171  0.4421
    5MOL    C16 2264   2.861   5.352   3.481 -0.1493 -1.0569  0.1679
    5MOL    C17 2265   2.741   5.388   3.414 -0.7290 -0.2154  0.5825
    5MOL    O18 2266   2.448   5.601   3.399 -0.2766 -1.0789 -0.2575
    5MOL    H19 2267   2.659   5.676   3.574  1.5781  0.6484  1.0979
    5MOL    H20 2268   2.885   5.641   3.666  1.7340 -0.7717 -1.4774
    5MOL    H21 2269   3.048   5.587   3.715  1.9011  1.1211 -0.1912
    5MOL    H22 2270   3.300   5.302   3.738 -0.6725  2.5660 -2.9146
    5MOL    H23 2271   3.493   5.318   3.870  0.8027  1.5068  0.7296
    5MOL    H24 2272   3.556   5.605   4.109  2.8319  1.1237 -1.1381
    5MOL    H25 2273   3.369   5.703   4.022  1.2287 -0.1454 -0.0732
    5MOL    H26 2274   3.160   5.687   3.889  1.3352  1.0134  1.3747
    5MOL    H27 2275   2.917   5.261   3.466  1.0438 -0.0896 -1.4480
    5MOL    H28 2276   2.702   5.322   3.337  0.0505 -0.5035  0.4236
    5MOL    H29 2277   2.544   5.471   3.274  0.6428  0.5768  0.6206
    5MOL    C30 2278   3.653   5.435   4.074  0.5017  0.0145  0.0413
    5MOL    C31 2279   3.758   5.492   4.167 -0.4485  0.0202  0.7697
    5MOL    C32 2280   3.819   5.407   4.261  0.1165  0.0979  0.4203
    5MOL    C33 2281   3.923   5.448   4.346 -0.2719  0.1245 -0.6885
    5MOL    C34 2282   3.984   5.571   4.319 -0.2371  0.4772  0.4000
    5MOL    C35 2283   4.108   5.614   4.394 -0.2520 -0.3631  0.1959
    5MOL    N36 2284   4.190   5.511   4.422  0.3503  0.2095  0.3098
    5MOL    C37 2285   4.307   5.507   4.495 -0.0103 -0.3467  0.1545
    5MOL    C38 2286   4.399   5.618   4.512 -0.3100  0.9296 -0.2280
    5MOL    C39 2287   4.506   5.608   4.606  0.1040 -0.2062 -0.1077
    5MOL    C40 2288   4.546   5.485   4.649  0.2901  0.1753 -0.9401
    5MOL    N41 2289   4.649   5.472   4.744 -0.2626 -0.2605 -0.0669
    5MOL    C42 2290   4.461   5.377   4.628 -0.2773  0.6836  0.5716
    5MOL    C43 2291   4.347   5.382   4.550 -0.4744  0.2464  0.7040
    5MOL    O44 2292   4.145   5.732   4.408  0.0393 -0.5030 -0.4500
    5MOL    C45 2293   3.910   5.668   4.247  0.0175  0.3809  0.0720
    5MOL    C46 2294   3.799   5.632   4.163  0.8789  0.2142 -0.2619
    5MOL    O47 2295   3.673   5.331   4.013 -0.6383  0.3218 -0.4586
    5MOL    H48 2296   3.772   5.310   4.270 -1.2993  0.6093 -1.2204
    5MOL    H49 2297   3.964   5.373   4.413 -2.4380 -0.2616  0.2541
    5MOL    H50 2298   4.164   5.420   4.385 -1.9950  0.3350  1.5321
    5MOL    H51 2299   4.386   5.713   4.461 -0.4716  1.1925  0.2931
    5MOL    H52 2300   4.564   5.698   4.620 -0.5094  0.2352 -0.3780
    5MOL    H53 2301   4.696   5.555   4.776  2.1101 -1.5040 -0.2416
    5MOL    H54 2302   4.476   5.277   4.668 -3.0196  0.2130  0.5250
    5MOL    H55 2303   4.302   5.285   4.536  1.6424 -0.6218 -0.3530
    5MOL    H56 2304   3.951   5.768   4.246  0.6598  0.1390 -2.4915
    5MOL    H57 2305   3.762   5.701   4.090  0.0202 -1.9630 -1.9211
    5MOL    C58 2306   4.725   5.368   4.776  0.3508  0.8594 -0.4454
    5MOL    C59 2307   4.839   5.397   4.874  0.2123  0.1115 -0.6096
    5MOL    C60 2308   4.847   5.318   4.992  0.4332 -0.0831 -1.0981
    5MOL    C61 2309   4.954   5.335   5.078 -0.4815 -0.1633 -0.0698
    5MOL    C62 2310   5.065   5.411   5.047 -0.0380  0.2779  0.0999
    5MOL    C63 2311   5.187   5.424   5.141 -0.4556  0.4515 -0.7149
    5MOL    N64 2312   5.215   5.316   5.221  0.1417 -0.3754 -0.2547
    5MOL    C65 2313   5.314   5.305   5.322  0.2786 -0.1678  0.0953
    5MOL    C66 2314   5.350   5.175   5.366  0.0794  0.4462  0.5921
    5MOL    C67 2315   5.431   5.150   5.476 -0.2871  0.2447  0.0491
    5MOL    C68 2316   5.506   5.250   5.533 -0.3665  0.5451 -0.0741
    5MOL    N69 2317   5.596   5.207   5.635  1.0302 -0.1673 -0.3368
    5MOL    C70 2318   5.482   5.384   5.485 -0.0078  0.2194 -0.1895
    5MOL    C71 2319   5.383   5.410   5.385  0.0377 -0.8415  0.1575
    5MOL    O72 2320   5.256   5.527   5.125  0.0025 -0.1222  0.0816
    5MOL    C73 2321   5.059   5.492   4.929  0.1991  0.4935  0.7220
    5MOL    C74 2322   4.943   5.485   4.845  0.3232  1.3036  0.2859
    5MOL    O75 2323   4.702   5.251   4.740  0.0990  0.3551 -0.3106
    5MOL    H76 2324   4.765   5.251   5.014 -0.3950  1.7182  1.5483
    5MOL    H77 2325   4.955   5.274   5.168 -0.1444  0.9115  0.6637
    5MOL    H78 2326   5.138   5.251   5.220 -1.1858  0.9889  3.3562
    5MOL    H79 2327   5.307   5.089   5.316 -0.9223 -0.1039  2.3508
    5MOL    H80 2328   5.433   5.046   5.504  0.5205  0.0858 -0.5829
    5MOL    H81 2329   5.628   5.111   5.641 -3.0407 -1.6904 -1.6344
    5MOL    H82 2330   5.533   5.469   5.528 -1.0240  0.6166  0.2329
    5MOL    H83 2331   5.374   5.507   5.338  0.1495 -1.3738 -0.9754
    5MOL    H84 2332   5.140   5.560   4.909 -0.9836  1.5115 -0.7498
    5MOL    H85 2333   4.930   5.549   4.759 -1.9205  0.7830  0.2110
    5MOL    C86 2334   5.659   5.280   5.730 -0.2047 -0.1900 -0.0016
    5MOL    C87 2335   5.744   5.195   5.822 -1.0642  0.1637 -0.5393
    5MOL    C88 2336   5.715   5.064   5.857 -0.3371 -0.0015  0.0605
    5MOL    C89 2337   5.796   4.983   5.944 -0.2307  0.1404 -0.2891
    5MOL    C90 2338   5.912   5.043   5.993 -0.0641 -0.2801 -0.0462
    5MOL    C91 2339   6.013   4.968   6.074 -0.2275 -0.8206 -0.0270
    5MOL    N92 2340   5.961   4.888   6.167 -0.7713 -0.1690 -0.3427
    5MOL    C93 2341   6.018   4.818   6.271 -0.3219 -0.0433 -0.1165
    5MOL    C94 2342   5.946   4.709   6.318 -0.0868 -0.8263  0.2875
    5MOL    C95 2343   5.975   4.651   6.443 -0.0129  0.9403  0.0507
    5MOL    C96 2344   6.077   4.706   6.524  0.5765  0.2526 -0.3659
    5MOL    N97 2345   6.093   4.656   6.660  0.8161  0.5211  0.3952
    5MOL    C98 2346   6.157   4.811   6.468  0.5387 -0.0636  0.3081
    5MOL    C99 2347   6.123   4.866   6.342 -0.4739 -0.4058  0.2155
    5MOL   O100 2348   6.137   4.979   6.068  0.0996  0.2079  0.1563
    5MOL   C101 2349   5.943   5.177   5.968 -0.1215 -0.1867  0.4640
    5MOL   C102 2350   5.857   5.246   5.881 -0.5341 -0.4916 -0.9330
    5MOL   O103 2351   5.638   5.402   5.750 -0.1270 -0.0765  0.3951
    5MOL   H104 2352   5.616   5.028   5.833 -0.8040 -1.0322  3.3380
    5MOL   H105 2353   5.769   4.878   5.951 -1.8989  0.5268 -0.6659
    5MOL   H106 2354   5.860   4.881   6.158 -0.6384  0.6005 -2.8213
    5MOL   H107 2355   5.856   4.673   6.270 -0.6197  0.2133  0.5083
    5MOL   H108 2356   5.916   4.568   6.480  2.2424 -0.4617  0.6258
    5MOL   H109 2357   6.095   4.555   6.669  1.1704  0.2803 -1.9023
    5MOL   H110 2358   6.239   4.853   6.524  0.2128  0.5941  0.3034
    5MOL   H111 2359   6.172   4.957   6.310 -0.8933  0.0449  0.8427
    5MOL   H112 2360   6.039   5.211   6.002  0.4318 -0.2532 -1.0021
    5MOL   H113 2361   5.884   5.349   5.858  0.4468 -0.5575 -0.1285
    5MOL   C114 2362   6.091   4.712   6.784  0.6855  0.1622  0.1124
    5MOL   C115 2363   6.071   4.864   6.790 -0.0021 -0.1224  0.3032
    5MOL   C116 2364   5.991   4.937   6.695 -0.4380  0.6594 -0.0442
    5MOL   C117 2365   5.991   5.075   6.700  0.1964  0.3579  0.2634
    5MOL   C118 2366   6.062   5.144   6.794 -0.5502 -0.3961  0.3473
    5MOL   C119 2367   6.063   5.295   6.789 -0.4944  0.0853  0.1559
    5MOL   N120 2368   6.164   5.347   6.857 -0.1862  0.5457 -0.5068
    5MOL   C121 2369   6.216   5.481   6.851 -0.3089  0.6239 -0.0354
    5MOL   C122 2370   6.305   5.520   6.956 -1.0933 -0.5102  0.0774
    5MOL   C123 2371   6.362   5.651   6.955 -0.2270  0.6933 -0.1651
    5MOL   C124 2372   6.338   5.736   6.844 -0.2107  0.1434  0.1789
    5MOL   N125 2373   6.394   5.866   6.834 -0.4384  0.2988  0.5946
    5MOL   C126 2374   6.258   5.683   6.733 -0.0780 -0.3137  0.0399
    5MOL   C127 2375   6.204   5.558   6.734 -0.8270 -0.4418  0.1697
    5MOL   O128 2376   5.975   5.365   6.740  0.2213 -0.5212  0.3298
    5MOL   C129 2377   6.136   5.077   6.888 -0.2636 -0.2853  0.3829
    5MOL   C130 2378   6.138   4.938   6.886 -0.3647 -0.3086 -0.1203
    5MOL   O131 2379   6.104   4.637   6.879 -0.5787  0.2555 -0.3345
    5MOL   H132 2380   5.929   4.871   6.635  1.5469 -0.3980 -0.9670
    5MOL   H133 2381   5.929   5.124   6.627 -0.3040 -2.4093 -1.2531
    5MOL   H134 2382   6.204   5.287   6.928  0.3816 -0.8562 -1.9713
    5MOL   H135 2383   6.334   5.449   7.033 -1.1184 -1.8116 -1.0864
    5MOL   H136 2384   6.416   5.671   7.046 -1.3819  1.8376  0.2825
    5MOL   H137 2385   6.424   5.898   6.743  1.9534  0.1157  1.2745
    5MOL   H138 2386   6.224   5.738   6.647 -1.1895 -2.2079 -0.7685
    5MOL   H139 2387   6.143   5.531   6.649  0.1976 -2.4586  0.0390
    5MOL   H140 2388   6.190   5.132   6.963 -0.9927  1.8461 -0.6001
    5MOL   H141 2389   6.181   4.886   6.971 -0.7056  1.6490  1.2852
    5MOL   C142 2390   6.392   5.963   6.929 -0.2816  0.1874  0.0556
    5MOL   C143 2391   6.416   6.100   6.885 -0.0113 -0.0320  0.2345
    5MOL   C144 2392   6.465   6.141   6.760  0.2502 -0.0065  0.0997
    5MOL   C145 2393   6.494   6.278   6.732  0.1739  0.4014  0.2694
    5MOL   C146 2394   6.478   6.375   6.831  0.1532  0.1562 -0.0751
    5MOL   C147 2395   6.528   6.518   6.813 -0.3910 -0.2630  0.2610
    5MOL   N148 2396   6.501   6.583   6.701 -0.3774 -0.1693  0.7173
    5MOL   C149 2397   6.444   6.538   6.587  0.0638 -0.6825  0.6001
    5MOL   C150 2398   6.307   6.558   6.567  0.0077  0.7304 -0.1975
    5MOL   C151 2399   6.253   6.520   6.438 -0.4395  0.0979 -0.3436
    5MOL   C152 2400   6.336   6.475   6.331  0.1922 -0.2446 -0.5037
    5MOL   N153 2401   6.268   6.455   6.209  0.3247 -0.4643 -0.0156
    5MOL   C154 2402   6.474   6.467   6.354  0.0016 -0.3769  0.2134
    5MOL   C155 2403   6.531   6.502   6.478 -0.0883  0.5773 -0.1387
    5MOL   O156 2404   6.580   6.580   6.905 -0.1431  0.4302 -0.1617
    5MOL   C157 2405   6.428   6.336   6.954 -0.6116 -0.3606  0.4578
    5MOL   C158 2406   6.384   6.204   6.977 -0.5717  0.2619  0.4037
    5MOL   O159 2407   6.381   5.934   7.046 -0.1931  0.1878 -0.3620
    5MOL   H160 2408   6.493   6.065   6.689 -0.9661 -1.4750  1.1517
    5MOL   H161 2409   6.532   6.292   6.632 -2.2121 -1.3122 -0.9151
    5MOL   H162 2410   6.543   6.675   6.704  0.1257 -0.2971 -1.6289
    5MOL   H163 2411   6.248   6.605   6.645  1.3136 -0.7834  1.7603
    5MOL   H164 2412   6.149   6.544   6.423 -0.6769 -0.5123  0.2944
    5MOL   H165 2413   6.173   6.488   6.207  0.9025  1.1735 -2.9951
    5MOL   H166 2414   6.546   6.455   6.274  1.3979  0.8167  1.2765
    5MOL   H167 2415   6.636   6.488   6.500 -0.4938 -0.9407  0.9467
    5MOL   H168 2416   6.418   6.406   7.035 -1.2653  0.5820 -0.4325
    5MOL   H169 2417   6.353   6.183   7.078  1.6261 -0.7971  0.8864
    5MOL   C170 2418   6.309   6.395   6.096 -0.1798 -0.1912  0.6941
    5MOL   C171 2419   6.202   6.387   5.992  0.4073 -0.3367  0.4856
    5MOL   C172 2420   6.210   6.302   5.880 -0.4676 -0.1399 -0.0279
    5MOL   C173 2421   6.103   6.286   5.788 -0.5217 -0.2225 -0.9592
    5MOL   C174 2422   5.987   6.366   5.795  0.0344  0.2005  0.7314
    5MOL   C175 2423   5.876   6.354   5.694  0.5620 -0.1142 -0.4732
    5MOL   N176 2424   5.771   6.435   5.718  0.5987 -0.6431 -0.7630
    5MOL   C177 2425   5.678   6.480   5.627  0.6937 -0.1679  0.2765
    5MOL   C178 2426   5.637   6.615   5.635  0.0982  0.5865 -0.4547
    5MOL   C179 2427   5.535   6.664   5.549 -0.4343  0.3271 -0.2221
    5MOL   C180 2428   5.474   6.573   5.459  0.6118 -0.7353 -0.4558
    5MOL   N181 2429   5.366   6.611   5.377 -0.0539 -0.3821  0.2945
    5MOL   C182 2430   5.511   6.439   5.455 -0.0375  0.1056  0.2112
    5MOL   C183 2431   5.603   6.393   5.545  0.1761 -0.6633 -0.0056
    5MOL   O184 2432   5.875   6.274   5.599  0.0506 -0.3578 -0.0260
    5MOL   C185 2433   5.980   6.452   5.907  0.1798 -0.4375 -0.1109
    5MOL   C186 2434   6.086   6.469   5.999  0.3582  0.6680  0.0855
    5MOL   O187 2435   6.423   6.349   6.078  0.6167  0.0497 -0.1444
    5MOL   H188 2436   6.292   6.232   5.874  0.4761  0.7105  2.3407
    5MOL   H189 2437   6.112   6.214   5.709 -1.0790  0.2266 -1.4318
    5MOL   H190 2438   5.776   6.501   5.794 -1.4263 -3.4708  1.9426
    5MOL   H191 2439   5.688   6.685   5.700 -0.5020  0.2863  0.3567
    5MOL   H192 2440   5.517   6.770   5.551  1.5950  0.6718  0.2388
    5MOL   H193 2441   5.358   6.566   5.287 -0.0034 -0.6711  0.4350
    5MOL   H194 2442   5.467   6.360   5.396  0.4012 -1.1256  1.5176
    5MOL   H195 2443   5.626   6.287   5.543  1.1167 -0.4519 -2.9112
    5MOL   H196 2444   5.904   6.528   5.900 -0.7229 -1.1897  1.2012
    5MOL   H197 2445   6.078   6.542   6.078 -0.6477  3.5741 -2.5705
    5MOL   C198 2446   5.280   6.716   5.398  0.3929  0.5723  0.7420
    5MOL   C199 2447   5.258   6.758   5.541  0.7666  0.1582  0.2186
    5MOL   C200 2448   5.225   6.665   5.642 -0.2718 -0.2822  0.7003
    5MOL   C201 2449   5.203   6.701   5.773 -0.2359 -0.1150  0.1121
    5MOL   C202 2450   5.222   6.836   5.809  0.2723 -0.0122 -0.4337
    5MOL   C203 2451   5.185   6.866   5.949 -0.3022 -0.5677 -0.5596
    5MOL   N204 2452   5.252   6.797   6.040 -0.0926 -0.3126 -0.0072
    5MOL   C205 2453   5.246   6.818   6.181  0.7845  0.4232  0.2648
    5MOL   C206 2454   5.182   6.726   6.267 -0.8564  0.3249  0.0225
    5MOL   C207 2455   5.179   6.749   6.408 -0.0855  0.1105 -0.3372
    5MOL   C208 2456   5.256   6.851   6.462 -0.0231 -0.6925 -0.4177
    5MOL   N209 2457   5.270   6.881   6.600 -0.3602 -0.2418  0.8872
    5MOL   C210 2458   5.331   6.927   6.377 -0.4180  0.1271 -0.2089
    5MOL   C211 2459   5.323   6.923   6.235  0.9468  0.3315  0.5836
    5MOL   O212 2460   5.107   6.957   5.968 -0.4549 -0.1259  0.0281
    5MOL   C213 2461   5.244   6.936   5.712  0.5425 -0.2565  0.1256
    5MOL   C214 2462   5.260   6.896   5.574  0.2909 -0.0751  0.1685
    5MOL   O215 2463   5.224   6.780   5.307 -0.1490 -0.4383 -0.2246
    5MOL   H216 2464   5.223   6.561   5.612  0.0996 -0.4600  1.2817
    5MOL   H217 2465   5.195   6.630   5.854 -1.4089  2.1224  2.0148
    5MOL   H218 2466   5.322   6.732   6.007 -0.3758 -0.9056  0.5579
    5MOL   H219 2467   5.132   6.636   6.236  1.5305 -1.1022  0.2326
    5MOL   H220 2468   5.127   6.678   6.470  0.1439 -2.1287 -2.6071
    5MOL   H221 2469   5.342   6.948   6.623 -0.2023 -0.6086  1.4883
    5MOL   H222 2470   5.410   6.992   6.413  0.2139 -1.3370  1.1366
    5MOL   H223 2471   5.389   6.984   6.175 -0.1796 -0.3996 -1.4246
    5MOL   H224 2472   5.240   7.039   5.743 -1.3103 -0.7094  1.4730
    5MOL   H225 2473   5.278   6.969   5.497 -0.0996  0.7102  0.8144
    5MOL   C226 2474   5.235   6.803   6.710  0.2600 -0.9855  0.4973
    5MOL   C227 2475   5.276   6.866   6.839 -0.3424  0.4744  0.3799
    5MOL   C228 2476   5.315   6.780   6.943  0.6162  0.3662 -0.5136
    5MOL   C229 2477   5.375   6.830   7.060  0.4676 -0.3407  0.7296
    5MOL   C230 2478   5.379   6.965   7.077 -0.3104 -0.0089 -0.3971
    5MOL   C231 2479   5.440   7.027   7.201  0.1377 -0.0076 -0.4300
    5MOL   N232 2480   5.445   6.964   7.320  0.6470 -0.2299  0.1364
    5MOL   C233 2481   5.479   7.025   7.443 -0.1413  0.8271 -0.3432
    5MOL   C234 2482   5.403   7.007   7.561 -0.3674 -0.0982  0.1262
    5MOL   C235 2483   5.438   7.068   7.683  0.1346  0.0840  0.1305
    5MOL   C236 2484   5.561   7.139   7.696  0.2741 -0.4649 -0.4201
    5MOL   N237 2485   5.603   7.199   7.825  0.0458 -0.7394  0.7361
    5MOL   C238 2486   5.647   7.147   7.585 -0.2873  0.2816 -0.4307
    5MOL   C239 2487   5.601   7.098   7.457 -0.1060 -1.0879 -0.1795
    5MOL   O240 2488   5.489   7.140   7.183 -0.0546  0.3368 -0.8396
    5MOL   C241 2489   5.338   7.052   6.973 -1.0843  0.5042  0.3866
    5MOL   C242 2490   5.287   7.003   6.851  0.1363 -0.2024  0.0931
    5MOL   O243 2491   5.163   6.699   6.704 -0.2511  0.2875 -0.3458
    5MOL   H244 2492   5.312   6.676   6.912 -1.4867  0.0056  0.8375
    5MOL   H245 2493   5.438   6.780   7.132  1.3607  0.9122  0.8327
    5MOL   H246 2494   5.406   6.871   7.315 -1.4142  0.5879  0.2034
    5MOL   H247 2495   5.314   6.945   7.562 -2.7427  3.2059  0.5435
    5MOL   H248 2496   5.367   7.061   7.764  0.0281  0.5773  0.0795
    5MOL   H249 2497   5.702   7.219   7.817  0.1156 -1.9215 -1.8903
    5MOL   H250 2498   5.746   7.188   7.600 -0.1363  0.0809 -0.8683
    5MOL   H251 2499   5.669   7.114   7.374 -1.1185 -0.0769 -0.8234
    5MOL   H252 2500   5.350   7.157   6.992 -0.3888  0.3975  0.5552
    5MOL   H253 2501   5.266   7.079   6.778 -0.4817 -0.8386 -0.3908
    5MOL   C254 2502   5.522   7.253   7.917 -0.2930 -0.3504  1.0892
    5MOL   C255 2503   5.594   7.316   8.035 -0.0482 -0.7346  0.0431
    5MOL   C256 2504   5.527   7.354   0.009 -0.3039 -0.3437  0.3578
    5MOL   C257 2505   5.597   7.417   0.112 -0.4636  0.5488  0.5538
    5MOL   C258 2506   5.736   7.440   0.108  0.2252  0.5153 -0.4365
    5MOL   C259 2507   5.815   7.492   0.214 -0.6535  0.1502 -0.0814
    5MOL   N260 2508   5.760   7.598   0.282  0.6918 -0.3038 -0.9762
    5MOL   C261 2509   5.826   7.685   0.371  0.0139 -0.1763 -0.5892
    5MOL   C262 2510   5.966   7.724   0.360  0.1238 -0.5932  0.3425
    5MOL   C263 2511   6.029   7.833   0.438  0.3074  0.1881  0.5140
    5MOL   C264 2512   5.949   7.887   0.538  0.4005  0.3198 -0.9042
    5MOL   N265 2513   6.011   7.982   0.619 -0.5595 -0.2202  0.1919
    5MOL   C266 2514   5.815   7.845   0.558  0.1660 -0.2408  0.8717
    5MOL   C267 2515   5.754   7.760   0.470  0.3770  0.6334  0.5601
    5MOL   O268 2516   5.927   7.451   0.231  0.3247  0.3936  0.0516
    5MOL   C269 2517   5.798   7.416   8.127  0.1985  0.0866  0.2640
    5MOL   C270 2518   5.730   7.350   8.025 -0.6110  0.0638 -0.1129
    5MOL   O271 2519   5.399   7.238   7.922 -0.2023 -0.4003 -0.9383
    5MOL   H272 2520   5.419   7.347   0.019 -0.4820  1.4008 -0.1363
    5MOL   H273 2521   5.540   7.450   0.198  1.6619  1.1143  1.7862
    5MOL   H274 2522   5.661   7.614   0.273  0.9503  2.1356  0.2747
    5MOL   H275 2523   6.032   7.672   0.293  0.2072 -0.6245  0.4489
    5MOL   H276 2524   6.127   7.873   0.418  0.0938  1.1902  1.4304
    5MOL   H277 2525   6.097   8.018   0.581 -1.0412  1.5184  0.7277
    5MOL   H278 2526   5.752   7.887   0.634 -1.2356 -0.3035 -0.2319
    5MOL   H279 2527   5.651   7.729   0.481  0.9215 -1.3737  0.2838
    5MOL   H280 2528   5.904   7.430   8.109  0.8189 -1.9027  2.0951
    5MOL   H281 2529   5.784   7.320   7.937  0.9218 -3.2066  1.8378
    5MOL   C282 2530   5.963   8.035   0.735 -0.1490 -0.2778  0.5296
    5MOL   C283 2531   6.058   8.128   0.805 -0.3839  0.0662 -0.7274
    5MOL   C284 2532   6.051   0.003   0.945  0.5522  0.2623  0.4877
    5MOL   C285 2533   6.158   0.057   1.010  0.4600 -0.0844  0.1634
    5MOL   C286 2534   6.263   0.120   0.943  0.3516 -0.2266 -0.0309
    5MOL   C287 2535   6.366   0.176   1.028 -0.5127  0.3702  0.1731
    5MOL   N288 2536   6.482   0.103   1.043 -0.0108 -0.3302 -0.3605
    5MOL   C289 2537   6.521   8.125   0.982  0.1150  0.6267  0.3715
    5MOL   C290 2538   6.441   8.011   0.993  0.4686  0.4338 -0.1313
    5MOL   C291 2539   6.475   7.889   0.930 -0.6706 -0.0823  0.0627
    5MOL   C292 2540   6.604   7.877   0.869  0.0659 -0.0156  0.0236
    5MOL   N293 2541   6.655   7.752   0.822  0.0275  0.1814  0.2043
    5MOL   C294 2542   6.687   7.991   0.857  0.5254  0.0846  0.5702
    5MOL   C295 2543   6.640   8.115   0.910  0.0866  0.4161 -0.4692
    5MOL   O296 2544   6.337   0.276   1.090  0.1759  0.3827  0.2537
    5MOL   C297 2545   6.268   0.108   0.802  0.3513 -0.7375  0.1629
    5MOL   C298 2546   6.169   0.032   0.733  0.0746  0.5166  0.4747
    5MOL   O299 2547   5.861   7.994   0.800 -0.3698 -0.6431 -0.2966
    5MOL   H300 2548   5.972   8.119   1.011 -0.6611  1.0797 -0.5664
    5MOL   H301 2549   6.153   0.065   1.118 -0.0784 -1.3407  0.2447
    5MOL   H302 2550   6.546   0.145   1.109  0.8621  0.0653 -1.4578
    5MOL   H303 2551   6.347   8.013   1.045  1.3216  1.4602  1.4316
    5MOL   H304 2552   6.403   7.809   0.924  0.4306 -1.2220  1.5996
    5MOL   H305 2553   6.750   7.757   0.787 -1.0209  0.1812 -2.7467
    5MOL   H306 2554   6.780   7.994   0.804  0.1511 -2.5317 -0.3273
    5MOL   H307 2555   6.711   0.050   0.902  3.2268 -2.3653 -1.7213
    5MOL   H308 2556   6.358   0.135   0.749  0.1300  1.9583  1.1003
    5MOL   H309 2557   6.186   0.019   0.627 -2.1903  1.9869 -0.1214
    5MOL   C310 2558   6.617   7.626   0.855 -0.1700 -0.2502 -0.1744
    5MOL   C311 2559   6.704   7.514   0.804 -0.1380  0.4484 -0.0202
    5MOL   C312 2560   6.684   7.384   0.849  0.7780 -0.0521 -0.1970
    5MOL   C313 2561   6.771   7.281   0.816 -0.2576 -0.2246  0.3993
    5MOL   C314 2562   6.870   7.301   0.715  0.6098  0.0472 -0.3423
    5MOL   C315 2563   6.953   7.181   0.670  0.3529 -0.0576 -0.0598
    5MOL   N316 2564   6.967   7.169   0.538  0.0109 -0.3446 -0.3612
    5MOL   C317 2565   7.023   7.063   0.461 -0.0286 -0.1618  0.3111
    5MOL   C318 2566   7.015   7.075   0.319 -0.0656 -0.4009 -0.0397
    5MOL   C319 2567   7.077   6.988   0.231 -0.1437  0.2898 -0.0735
    5MOL   C320 2568   7.145   6.869   0.284  0.8988  0.0789  0.6413
    5MOL   N321 2569   7.209   6.776   0.198 -0.4622 -0.1752 -0.2899
    5MOL   C322 2570   7.144   6.851   0.422 -0.2697  0.3620  0.2027
    5MOL   C323 2571   7.082   6.943   0.513 -0.3279  0.7317  0.3918
    5MOL   O324 2572   6.990   7.092   0.752 -0.2818 -0.2348  0.3349
    5MOL   C325 2573   6.893   7.427   0.662  0.4431  0.0972  0.8369
    5MOL   C326 2574   6.817   7.536   0.718 -0.0493 -0.4257 -0.3995
    5MOL   O327 2575   6.516   7.599   0.921 -0.2908  0.9126  0.5473
    5MOL   H328 2576   6.596   7.366   0.909 -0.1738 -2.1994 -2.1519
    5MOL   H329 2577   6.759   7.183   0.860 -0.1472 -0.0942  0.7231
    5MOL   H330 2578   6.914   7.239   0.488  0.6224 -0.4012 -1.0927
    5MOL   H331 2579   6.963   7.166   0.293 -1.7733 -1.4082 -0.1707
    5MOL   H332 2580   7.074   7.017   0.127  1.9204  0.9854  0.0442
    5MOL   H333 2581   7.299   6.743   0.229 -0.8350 -0.9560 -0.0190
    5MOL   H334 2582   7.176   6.758   0.467 -0.4531 -0.2971 -1.0177
    5MOL   H335 2583   7.105   6.925   0.617  3.0180  0.7719 -0.2823
    5MOL   H336 2584   6.974   7.443   0.592 -0.4714 -0.2042 -0.3152
    5MOL   H337 2585   6.840   7.637   0.688 -2.7171  0.5610  0.6794
    5MOL   C338 2586   7.175   6.729   0.075  0.4111  0.1048 -0.3041
    5MOL   C339 2587   7.282   6.647   0.005  0.1447  0.4093 -0.0632
    5MOL   C340 2588   7.418   6.654   0.042 -0.4676 -0.3847  0.8677
    5MOL   C341 2589   7.518   6.568   8.129  0.1837 -0.2897 -0.1524
    5MOL   C342 2590   7.481   6.495   8.014 -0.2580  0.6419 -0.2313
    5MOL   C343 2591   7.588   6.414   7.942  0.3274 -0.3643  0.4009
    5MOL   N344 2592   7.537   6.331   7.846  0.5636  1.3239  0.0585
    5MOL   C345 2593   7.601   6.237   7.764 -0.5358  0.0992  0.6390
    5MOL   C346 2594   7.741   6.217   7.769 -0.0615 -0.9744  0.2373
    5MOL   C347 2595   7.802   6.123   7.690 -0.1207 -0.4476 -0.1520
    5MOL   C348 2596   7.723   6.052   7.596  0.1398  0.4230 -0.0445
    5MOL   N349 2597   7.801   5.959   7.518  0.2062  0.1326  0.0361
    5MOL   C350 2598   7.583   6.066   7.592 -0.1621  0.0480  0.7501
    5MOL   C351 2599   7.523   6.159   7.677  0.0128  0.2645 -0.0731
    5MOL   O352 2600   7.711   6.432   7.968  0.6046 -0.0407 -0.1047
    5MOL   C353 2601   7.346   6.476   7.983  0.2616 -0.3063  0.3526
    5MOL   C354 2602   7.249   6.563   8.041  0.7561 -0.0077  0.0978
    5MOL   O355 2603   7.061   6.757   0.017 -0.5479  0.1334 -0.7362
    5MOL   H356 2604   7.456   6.715   0.123 -3.0085 -1.1084  2.6497
    5MOL   H357 2605   7.623   6.571   0.010  0.4330  2.8672 -1.1490
    5MOL   H358 2606   7.437   6.337   7.833  0.7961  0.9754 -2.1102
    5MOL   H359 2607   7.803   6.274   7.836 -0.3634  0.3575 -0.6003
    5MOL   H360 2608   7.909   6.116   7.685 -0.2220 -2.0964 -0.2411
    5MOL   H361 2609   7.879   5.916   7.565  0.3330 -0.3687 -0.6232
    5MOL   H362 2610   7.530   6.012   7.515  1.3782  1.2602 -1.2144
    5MOL   H363 2611   7.416   6.175   7.679 -0.0782 -0.3846  0.5336
    5MOL   H364 2612   7.299   6.415   7.907 -1.1384  1.1469  0.0289
    5MOL   H365 2613   7.144   6.555   8.018  0.9924  0.0646 -1.0113
    5MOL   C366 2614   7.773   5.919   7.386  0.0326 -0.5343  0.7588
    5MOL   C367 2615   7.870   5.830   7.320 -0.1625  0.3017  0.2092
    5MOL   C368 2616   8.011   5.854   7.333  0.3903 -0.6085  0.2555
    5MOL   C369 2617   8.103   5.769   7.256 -0.2784 -0.4907 -0.3072
    5MOL   C370 2618   8.055   5.672   7.166  0.3601  0.0034 -0.1097
    5MOL   C371 2619   0.004   5.590   7.080 -0.4925  0.7173  0.1077
    5MOL   N372 2620   8.105   5.516   6.977  0.3164  0.1716 -0.5369
    5MOL   C373 2621   0.018   5.387   6.958  0.0915  0.4977 -0.2546
    5MOL   C374 2622   0.128   5.355   6.873  0.8045  0.2893  0.4129
    5MOL   C375 2623   0.173   5.220   6.861  0.5215  0.7116  0.2695
    5MOL   C376 2624   0.113   5.126   6.948 -0.3347 -0.2991 -0.2284
    5MOL   N377 2625   0.175   4.999   6.962 -0.2950  0.1993  0.9015
    5MOL   C378 2626   0.007   5.159   7.036 -0.2889 -1.0123 -1.0235
    5MOL   C379 2627   8.099   5.291   7.037  0.5259 -0.4264  0.9735
    5MOL   O380 2628   0.126   5.605   7.104  0.6459  0.7677 -0.0204
    5MOL   C381 2629   7.916   5.646   7.169 -0.0862  0.5011 -0.2148
    5MOL   C382 2630   7.824   5.720   7.245  0.3256  0.5061  1.0018
    5MOL   O383 2631   7.675   5.955   7.324 -0.1447  0.1152  0.5144
    5MOL   H384 2632   8.047   5.937   7.391 -1.5762 -0.1027  0.7893
    5MOL   H385 2633   0.062   5.796   7.254 -0.3521 -0.3127 -3.7568
    5MOL   H386 2634   8.004   5.519   6.974  0.3517 -0.1689 -2.8637
    5MOL   H387 2635   0.180   5.438   6.828 -0.4870 -0.2111 -2.1100
    5MOL   H388 2636   0.258   5.193   6.799  0.3110  0.4203  0.1067
    5MOL   H389 2637   0.224   4.971   6.878 -1.3368  2.1552 -0.3844
    5MOL   H390 2638   8.109   5.078   7.091 -0.8658  1.1448  1.7931
    5MOL   H391 2639   8.012   5.307   7.099 -0.4338  0.1157 -0.4818
    5MOL   H392 2640   7.874   5.564   7.113  0.6690  0.6859 -1.0479
    5MOL   H393 2641   7.717   5.711   7.230  0.8445 -0.4847 -2.4685
    5MOL   C394 2642   0.179   4.913   7.059  0.0687 -0.3033  0.0344
    5MOL   C395 2643   0.156   4.959   7.203  0.0028 -0.7209 -0.1849
    5MOL   C396 2644   0.065   4.885   7.283 -0.2029  0.0158 -1.1224
    5MOL   C397 2645   0.041   4.934   7.413 -0.6927  0.2765  0.5477
    5MOL   C398 2646   0.113   5.046   7.465  0.3145  0.4976 -0.5941
    5MOL   C399 2647   0.071   5.108   7.595  0.1819 -0.1480  0.3177
    5MOL   N400 2648   0.164   5.191   7.648 -0.0951  0.2207  0.0164
    5MOL   C401 2649   0.169   5.264   7.765  0.4411 -0.2798 -0.7655
    5MOL   C402 2650   0.290   5.335   7.784 -0.0733 -0.3703  1.0024
    5MOL   C403 2651   0.308   5.426   7.887  0.3704 -0.7913 -0.2377
    5MOL   C404 2652   0.202   5.445   7.984  0.3667 -0.3015  0.0167
    5MOL   N405 2653   0.206   5.551   8.078  0.7252 -0.0478  0.5739
    5MOL   C406 2654   0.087   5.365   7.973  0.2769 -1.0534 -0.4972
    5MOL   C407 2655   0.069   5.279   7.862  0.0255  0.5781 -0.2745
    5MOL   O408 2656   8.121   5.069   7.658  0.3735  0.5464 -0.3520
    5MOL   C409 2657   0.207   5.107   7.383 -0.0674 -0.3491  0.1010
    5MOL   C410 2658   0.226   5.070   7.253  0.4573  0.0670  0.1486
    5MOL   O411 2659   0.195   4.795   7.024  0.4030 -1.0473 -0.3298
    5MOL   H412 2660   0.007   4.801   7.247 -3.0476  2.0051 -1.3068
    5MOL   H413 2661   8.133   4.877   7.487 -1.1391  0.7486  0.5930
    5MOL   H414 2662   0.253   5.200   7.601 -0.8345 -1.0783 -1.7037
    5MOL   H415 2663   0.367   5.331   7.709 -1.8468  2.3463 -1.0981
    5MOL   H416 2664   0.398   5.485   7.893 -0.5455  0.4603  1.7178
    5MOL   H417 2665   0.258   5.631   8.045 -0.6399 -0.4905 -2.9296
    5MOL   H418 2666   0.007   5.368   8.046  0.0562 -0.8568 -0.7444
    5MOL   H419 2667   8.124   5.220   7.858  0.7086 -0.5593  0.8091
    5MOL   H420 2668   0.262   5.198   7.403 -1.2464  0.7278 -1.4304
    5MOL   H421 2669   0.287   5.128   7.185 -0.0127  0.8984  0.4283
    5MOL   C422 2670   0.138   5.581   0.042 -0.2080 -0.0138 -0.7071
    5MOL   C423 2671   0.159   5.721   0.088  0.0075 -1.1334 -0.0515
    5MOL   C424 2672   0.288   5.765   0.129  0.1934 -0.1641 -0.0134
    5MOL   C425 2673   0.299   5.894   0.190  0.5028 -0.4544  0.5493
    5MOL   C426 2674   0.187   5.981   0.208  0.1991  0.0617 -0.1509
    5MOL   C427 2675   0.212   6.111   0.282 -0.4054  0.2915  0.6058
    5MOL   N428 2676   0.105   6.186   0.288  0.0779  0.0573 -0.3335
    5MOL   C429 2677   0.076   6.295   0.373 -0.1221  0.4250 -0.1647
    5MOL   C430 2678   0.170   6.372   0.446 -0.4813  0.3765 -0.7397
    5MOL   C431 2679   0.127   6.489   0.515  0.1426 -0.1806  0.0680
    5MOL   C432 2680   8.135   6.527   0.524  0.3939  0.5839  0.1311
    5MOL   N433 2681   8.096   6.647   0.596 -1.1311  0.1656 -0.8647
    5MOL   C434 2682   8.043   6.450   0.450  0.1550  0.5955 -0.0846
    5MOL   C435 2683   8.090   6.340   0.366  0.2631  0.0193  0.2910
    5MOL   O436 2684   0.322   6.137   0.334 -0.0199 -0.1263  0.0983
    5MOL   C437 2685   0.063   5.938   0.160  0.3328  0.1194 -0.0887
    5MOL   C438 2686   0.048   5.804   0.108 -0.2115  0.4485 -0.1334
    5MOL   O439 2687   0.061   5.506   0.105  0.3255 -0.7036 -0.2509
    5MOL   H440 2688   0.379   5.710   0.110  0.8462 -0.2990  3.2419
    5MOL   H441 2689   0.400   5.915   0.221  0.3648 -1.5576  1.7725
    5MOL   H442 2690   0.028   6.145   0.237 -1.5569 -0.6954  2.6129
    5MOL   H443 2691   0.275   6.354   0.434  0.1599  2.5767  1.0234
    5MOL   H444 2692   0.196   6.548   0.573  0.6864 -1.6309  0.9170
    5MOL   H445 2693   0.028   6.680   0.651  0.0436 -0.6292 -2.0339
    5MOL   H446 2694   7.936   6.464   0.453  0.0058 -0.0282 -1.9113
    5MOL   H447 2695   8.013   6.288   0.311  0.9245 -0.9571  0.2811
    5MOL   H448 2696   8.118   5.989   0.186 -0.2440  0.5019 -2.7561
    5MOL   H449 2697   8.096   5.762   0.089  0.2506  0.7984 -3.5831
    5MOL   C450 2698   7.977   6.694   0.624 -0.7438 -0.1145 -0.5014
    5MOL   C451 2699   7.966   6.820   0.707 -0.4747 -0.5005  0.3988
    5MOL   C452 2700   8.050   6.935   0.693  0.1781  0.1007  0.2953
    5MOL   C453 2701   8.019   7.052   0.764  0.3429 -0.4463 -0.4762
    5MOL   C454 2702   7.923   7.059   0.860  0.5214 -0.1776 -0.5474
    5MOL   C455 2703   7.909   7.181   0.951 -0.2220 -0.1622  0.0410
    5MOL   N456 2704   7.833   7.165   1.060 -0.5551  0.0153 -0.4050
    5MOL   C457 2705   7.796   7.255   1.165  0.1398  0.1276 -0.5295
    5MOL   C458 2706   7.842   7.385   1.177 -0.1044  0.4107 -0.4829
    5MOL   C459 2707   7.801   7.471   1.280 -0.6790 -0.0748  0.0237
    5MOL   C460 2708   7.703   7.426   1.371  0.4361  0.7885  0.3562
    5MOL   N461 2709   7.673   7.516   1.483 -0.3553  0.9269 -0.4985
    5MOL   C462 2710   7.648   7.297   1.359 -0.4235  0.1488  0.2182
    5MOL   C463 2711   7.702   7.210   1.258 -0.5038 -0.7589  0.5413
    5MOL   O464 2712   7.968   7.285   0.924  0.5208  0.0975  0.0460
    5MOL   C465 2713   7.838   6.949   0.878  0.0066  0.5567 -0.0122
    5MOL   C466 2714   7.867   6.827   0.804 -0.4403  0.1572  0.9482
    5MOL   O467 2715   7.871   6.657   0.567 -0.1965  0.2885 -0.0448
    5MOL   H468 2716   8.135   6.918   0.628 -1.4249 -0.1713 -1.7742
    5MOL   H469 2717   8.084   7.137   0.747  1.3261 -1.2367 -0.6922
    5MOL   H470 2718   7.786   7.076   1.068 -3.1001  1.3013 -0.6555
    5MOL   H471 2719   7.918   7.429   1.114 -2.6087  2.0993 -2.4742
    5MOL   H472 2720   7.839   7.571   1.294  0.3705 -0.6658  1.5617
    5MOL   H473 2721   7.722   7.604   1.484  1.6258 -0.1405  2.3162
    5MOL   H474 2722   7.560   7.271   1.417 -2.2921  0.0986 -2.4998
    5MOL   H475 2723   7.666   7.112   1.230  2.9038 -1.5843 -1.2211
    5MOL   H476 2724   7.760   6.937   0.952  1.1271  0.9216  1.2508
    5MOL   H477 2725   7.795   6.747   0.805  0.6664 -1.0538 -3.2330
    5MOL   C478 2726   7.588   7.505   1.589  0.2319  0.6377  0.0070
    5MOL   C479 2727   7.572   7.626   1.679 -0.4961 -0.2131  0.8328
    5MOL   C480 2728   7.644   7.749   1.669  0.2570 -0.7326 -0.6902
    5MOL   C481 2729   7.613   7.858   1.757 -0.3265 -0.2232  0.6260
    5MOL   C482 2730   7.512   7.849   1.856 -1.3370  0.3926 -0.2012
    5MOL   C483 2731   7.470   7.968   1.934  0.3051  0.2040 -0.2123
    5MOL   N484 2732   7.426   7.952   2.063 -0.4231  0.2528 -0.4599
    5MOL   C485 2733   7.375   8.042   2.162 -0.0646 -0.3236  0.9990
    5MOL   C486 2734   7.314   0.019   2.124 -0.4117 -0.3125 -1.1834
    5MOL   C487 2735   7.261   0.106   2.226 -0.0016  0.0008 -0.2950
    5MOL   C488 2736   7.269   0.069   2.360  0.5112  0.0381 -0.2978
    5MOL   N489 2737   7.201   0.155   2.450  0.3389  0.8583 -0.2393
    5MOL   C490 2738   7.327   8.090   2.399  1.2221  0.8620  0.0208
    5MOL   C491 2739   7.379   8.004   2.298 -0.1801 -0.1945  0.0730
    5MOL   O492 2740   7.498   8.079   1.887  0.0178 -0.2027 -0.8012
    5MOL   C493 2741   7.449   7.725   1.869  0.2782 -0.3268  0.2560
    5MOL   C494 2742   7.476   7.620   1.780 -0.0512  0.0580  0.3107
    5MOL   O495 2743   7.504   7.408   1.605 -0.1145  0.0344  0.0203
    5MOL   H496 2744   7.719   7.752   1.591  0.3562 -0.9647 -0.6033
    5MOL   H497 2745   7.671   7.948   1.748  0.6831 -0.5865  3.0300
    5MOL   H498 2746   7.446   7.861   2.103 -2.5057 -0.8014 -1.7071
    5MOL   H499 2747   7.302   0.045   2.020 -1.8900 -1.1101 -1.2132
    5MOL   H500 2748   7.225   0.206   2.205  0.3310  0.1101 -0.3446
    5MOL   H501 2749   7.129   0.210   2.407  0.1178  1.0870  0.4239
    5MOL   H502 2750   7.330   8.058   2.502  1.1534 -0.7156 -0.4548
    5MOL   H503 2751   7.430   7.916   2.334  0.6517  0.7003  1.1095
    5MOL   H504 2752   7.359   7.722   1.929  1.2316  1.0573  1.7877
    5MOL   H505 2753   7.428   7.524   1.786 -0.2684  0.1770  0.4671
    5MOL   C506 2754   7.222   0.188   2.581 -0.8574 -0.2032  0.3548
    5MOL   C507 2755   7.340   0.140   2.659  0.4759  0.0220 -0.4149
    5MOL   C508 2756   7.333   0.114   2.799 -0.4213  0.1485  0.7847
    5MOL   C509 2757   7.445   0.081   2.868 -0.4840  0.3043  0.5970
    5MOL   C510 2758   7.570   0.088   2.802  0.1574  0.7708  0.2115
    5MOL   C511 2759   7.696   0.083   2.878  0.0942  0.5801  0.3274
    5MOL   N512 2760   7.704   8.129   2.966 -0.1947 -0.3033 -0.1442
    5MOL   C513 2761   7.798   8.106   3.069 -0.5912 -0.2072 -0.4100
    5MOL   C514 2762   7.939   8.121   3.043  0.2925  0.0281  0.2847
    5MOL   C515 2763   8.033   8.102   3.147  0.1424  0.2132 -0.0288
    5MOL   C516 2764   7.982   8.077   3.275 -0.2324  0.0247  0.1784
    5MOL   N517 2765   8.078   8.068   3.384 -0.2979 -0.2265 -0.0740
    5MOL   C518 2766   7.848   8.057   3.304  0.2981 -0.1871 -0.0270
    5MOL   C519 2767   7.754   8.068   3.199 -0.8223  0.5233  0.7649
    5MOL   O520 2768   7.791   0.158   2.855  0.6299  0.4229 -0.0876
    5MOL   C521 2769   7.586   0.113   2.670 -0.5021  0.4309  0.1094
    5MOL   C522 2770   7.469   0.140   2.599  0.3815 -0.0463  0.4903
    5MOL   O523 2771   7.139   0.266   2.635 -1.0473  0.0907  0.0070
    5MOL   H524 2772   7.238   0.097   2.847 -0.4474 -0.4879  0.5050
    5MOL   H525 2773   7.441   0.068   2.975  0.1506  3.5720  1.0687
    5MOL   H526 2774   7.630   8.061   2.957 -2.0511  1.6188  0.2194
    5MOL   H527 2775   7.978   8.133   2.943  0.1157 -0.5313  0.1446
    5MOL   H528 2776   8.140   8.114   3.136  0.1060  0.7249  0.1829
    5MOL   H529 2777   0.022   8.038   3.350 -0.7788  1.3186 -2.8871
    5MOL   H530 2778   7.807   8.036   3.401  0.5366 -0.3138  0.0476
    5MOL   H531 2779   7.652   8.049   3.227 -0.9679  0.9011  0.5019
    5MOL   H532 2780   7.685   0.131   2.629 -0.8673 -0.6093 -1.2541
    5MOL   H533 2781   7.466   0.179   2.498  0.0277  0.5779  0.7363
    5MOL   C534 2782   8.070   8.129   3.508  0.1560 -0.2455 -0.5019
    5MOL   C535 2783   0.059   0.003   3.573  0.1516 -0.3426  0.0247
    5MOL   C536 2784   0.073   0.098   3.679 -0.1448  0.8956 -0.4162
    5MOL   C537 2785   0.197   0.105   3.741 -0.7650  0.0121 -0.0490
    5MOL   C538 2786   0.308   0.022   3.701  0.0302 -0.3069 -0.6667
    5MOL   C539 2787   0.439   0.043   3.772  1.1972 -0.6418 -0.1728
    5MOL   N540 2788   0.544   0.050   3.699  0.3407  0.3574  0.3208
    5MOL   C541 2789   0.674   0.079   3.736  0.8647  0.0807 -0.5918
    5MOL   C542 2790   0.779   0.028   3.670  0.2041  0.6279  0.7451
    5MOL   C543 2791   0.912   0.054   3.702 -0.3039 -0.2430  0.1354
    5MOL   C544 2792   0.940   0.146   3.800 -1.1437  0.1957 -0.3619
    5MOL   N545 2793   1.070   0.191   3.826  0.4594  0.4378 -0.9575
    5MOL   C546 2794   0.835   0.191   3.881  0.0295 -0.4804  0.0317
    5MOL   C547 2795   0.701   0.163   3.848 -0.1693  0.0492  0.2282
    5MOL   O548 2796   0.443   0.055   3.900  0.2179  0.0618 -0.5371
    5MOL   C549 2797   0.288   8.062   3.606  0.9908 -0.2994  0.4468
    5MOL   C550 2798   0.165   8.053   3.540  0.1332  0.0619 -0.2479
    5MOL   O551 2799   7.967   0.029   3.568 -0.6717  0.3095 -0.1147
    5MOL   H552 2800   8.136   0.164   3.701 -1.0242 -0.2901 -0.0872
    5MOL   H553 2801   0.209   0.173   3.823 -2.2763 -1.6719  1.6049
    5MOL   H554 2802   0.522   0.039   3.601  1.3618  0.0630  0.1213
    5MOL   H555 2803   0.759   8.113   3.582 -1.9039  0.3947  1.3747
    5MOL   H556 2804   0.988   0.006   3.643 -0.9693 -0.5882 -0.4589
    5MOL   H557 2805   1.087   0.260   3.898 -1.0375  1.1538 -1.2862
    5MOL   H558 2806   0.859   0.248   3.969  1.1359  1.2562 -1.3471
    5MOL   H559 2807   0.622   0.210   3.904  1.8261  0.2858  2.9359
    5MOL   H560 2808   0.356   7.980   3.592 -0.2977 -1.1721 -0.9508
    5MOL   H561 2809   0.148   7.966   3.477  2.0105  1.0556 -2.1934
    5MOL   H562 2810   1.143   0.176   3.758  0.6901  0.8169 -0.7917
    6MOL     C1 2811   8.099   3.353   1.078 -0.7634 -0.1664  0.7335
    6MOL     C2 2812   8.123   3.332   0.928 -0.1688 -0.0720 -0.6488
    6MOL     C3 2813   8.068   3.420   0.834  0.2351 -0.2844 -0.1458
    6MOL     C4 2814   8.094   3.406   0.697 -0.0955  0.1120 -0.8218
    6MOL     C5 2815   0.039   3.307   0.654 -0.2519  0.7982 -0.5117
    6MOL     C6 2816   0.091   3.297   0.512 -0.2945  0.6692  0.1521
    6MOL     N7 2817   0.117   3.170   0.467 -0.3935  0.1264 -0.2559
    6MOL     C8 2818   0.144   3.123   0.337  0.2447 -0.4107  0.6668
    6MOL     C9 2819   0.195   2.989   0.328  0.1509 -0.1204 -0.4174
    6MOL    C10 2820   0.225   2.935   0.207 -0.3684  0.2642  0.1170
    6MOL    C11 2821   0.205   3.008   0.089  0.1002 -0.6831  0.0917
    6MOL    N12 2822   0.234   2.939   8.115 -0.1123  0.5649  0.1282
    6MOL    C13 2823   0.153   3.141   0.094  0.3977  0.2120  0.5343
    6MOL    C14 2824   0.105   3.198   0.218  0.1570 -0.0631 -0.5717
    6MOL    O15 2825   0.077   3.399   0.443 -0.1687 -0.3262 -0.2957
    6MOL    C16 2826   0.097   3.217   0.746  0.0075  0.2598 -0.1994
    6MOL    C17 2827   0.070   3.234   0.883  0.3873  1.0057  0.1580
    6MOL    O18 2828   8.020   3.433   1.131 -0.0026  0.0650 -0.2951
    6MOL    H19 2829   8.002   3.502   0.858  0.9955  0.7575 -1.5226
    6MOL    H20 2830   8.044   3.472   0.627 -1.7829 -0.2633  0.0090
    6MOL    H21 2831   0.096   3.108   0.544 -0.5170  3.4496  2.4959
    6MOL    H22 2832   0.221   2.926   0.413  1.6853  0.8144 -0.1615
    6MOL    H23 2833   0.254   2.831   0.205  0.3321  0.4744 -1.8260
    6MOL    H24 2834   0.293   2.860   8.135  0.5768  1.5056  1.9172
    6MOL    H25 2835   0.132   3.188   8.145 -2.9319 -0.8076  0.6983
    6MOL    H26 2836   0.061   3.295   0.235  0.4998  0.1810 -1.0575
    6MOL    H27 2837   0.163   3.138   0.714 -1.3321 -1.0440  0.1644
    6MOL    H28 2838   0.119   3.174   0.958 -1.9515 -2.9186 -1.2667
    6MOL    H29 2839   0.007   3.289   1.148  1.3452 -0.3129 -0.9674
    6MOL    C30 2840   0.166   2.939   7.996 -0.1062 -0.2180 -0.0839
    6MOL    C31 2841   0.220   2.852   7.886 -0.7602 -0.0335  0.2525
    6MOL    C32 2842   0.217   2.884   7.748  0.3288  0.3458  0.0211
    6MOL    C33 2843   0.259   2.795   7.647  0.2373 -0.4684  0.4853
    6MOL    C34 2844   0.322   2.674   7.688  0.5836  0.0737 -0.6134
    6MOL    C35 2845   0.386   2.583   7.587 -0.3733  0.2512  0.0376
    6MOL    N36 2846   0.333   2.605   7.465  0.2978 -0.4634  0.0787
    6MOL    C37 2847   0.406   2.601   7.340 -0.2738  0.1922  0.0554
    6MOL    C38 2848   0.395   2.707   7.256 -0.3479 -0.1687  0.3465
    6MOL    C39 2849   0.456   2.703   7.130  0.5548  0.1758  0.1365
    6MOL    C40 2850   0.522   2.584   7.089 -0.2101 -0.7672  0.5639
    6MOL    N41 2851   0.571   2.573   6.961 -0.1511 -0.1573  0.2257
    6MOL    C42 2852   0.543   2.480   7.179 -0.5848  0.3745  0.4098
    6MOL    C43 2853   0.487   2.493   7.308 -0.1621  0.4620  0.3871
    6MOL    O44 2854   0.472   2.504   7.618 -0.0682  0.3946 -0.3688
    6MOL    C45 2855   0.325   2.631   7.822 -0.0530  0.2028  0.7871
    6MOL    C46 2856   0.278   2.725   7.922 -0.2047 -0.2317 -1.1028
    6MOL    O47 2857   0.080   3.022   7.969 -0.7967 -0.2320 -0.3639
    6MOL    H48 2858   0.177   2.976   7.710  0.5707  0.9155  1.1056
    6MOL    H49 2859   0.252   2.825   7.543  3.9815 -1.8261 -0.2301
    6MOL    H50 2860   0.257   2.672   7.476 -2.2443 -3.1525 -0.5120
    6MOL    H51 2861   0.340   2.791   7.295  1.9083  1.2108  0.6638
    6MOL    H52 2862   0.443   2.784   7.061  2.4030  0.3580 -0.0159
    6MOL    H53 2863   0.620   2.656   6.931 -2.3668  1.2914  0.4637
    6MOL    H54 2864   0.602   2.391   7.162  2.2274  2.3922 -0.7782
    6MOL    H55 2865   0.501   2.426   7.392  1.1743 -1.7727 -1.5781
    6MOL    H56 2866   0.364   2.533   7.846  1.7369  0.6555 -0.2205
    6MOL    H57 2867   0.278   2.692   8.026 -0.7948  0.3582 -0.9156
    6MOL    C58 2868   0.570   2.468   6.872  0.4170 -0.0112  0.1027
    6MOL    C59 2869   0.474   2.351   6.895 -0.0980  0.1902  0.4972
    6MOL    C60 2870   0.335   2.377   6.915  0.1412  0.2426  0.6176
    6MOL    C61 2871   0.243   2.274   6.935  0.3689  0.8274  0.0030
    6MOL    C62 2872   0.293   2.142   6.925  0.2875 -0.8680 -0.0147
    6MOL    C63 2873   0.201   2.021   6.923  0.1700 -0.8521 -0.6090
    6MOL    N64 2874   0.074   2.034   6.970 -0.4522 -0.0789  0.0382
    6MOL    C65 2875   8.108   1.938   6.951  0.1926 -0.1007  0.8839
    6MOL    C66 2876   7.986   1.961   7.012  0.0967  0.2159 -0.0436
    6MOL    C67 2877   7.873   1.878   6.994 -0.0794 -0.3756 -0.0533
    6MOL    C68 2878   7.880   1.775   6.903 -0.3491  0.2790  0.1895
    6MOL    N69 2879   7.770   1.684   6.885 -0.5764  0.5635 -0.2508
    6MOL    C70 2880   8.001   1.756   6.827  0.7064 -0.7182 -0.0401
    6MOL    C71 2881   8.117   1.830   6.859 -0.2553 -0.4900 -0.3111
    6MOL    O72 2882   0.244   1.905   6.897 -0.4098 -0.3897  0.2025
    6MOL    C73 2883   0.433   2.111   6.907 -0.5734 -0.0762 -0.0936
    6MOL    C74 2884   0.525   2.218   6.892  0.6637  0.4941  0.5633
    6MOL    O75 2885   0.638   2.469   6.772  0.3798  0.4427 -0.0915
    6MOL    H76 2886   0.296   2.478   6.912 -2.0087 -0.5603  0.6118
    6MOL    H77 2887   0.139   2.301   6.947 -0.1679 -2.1243  2.6195
    6MOL    H78 2888   0.056   2.124   7.013  0.4861 -1.2389  3.0682
    6MOL    H79 2889   7.989   2.047   7.078  0.5190  0.8194 -0.8387
    6MOL    H80 2890   7.786   1.904   7.052  0.7713  1.7043  0.3437
    6MOL    H81 2891   7.742   1.664   6.790  1.4201  0.4214 -0.8406
    6MOL    H82 2892   7.996   1.680   6.750 -2.2791 -0.6640  0.0385
    6MOL    H83 2893   0.059   1.803   6.803  0.1897  0.9364 -0.3285
    6MOL    H84 2894   0.477   2.012   6.905 -0.5364 -0.0895  1.0415
    6MOL    H85 2895   0.631   2.201   6.891  0.7091  0.8118 -0.4389
    6MOL    C86 2896   7.694   1.624   6.980 -0.0812 -0.1902  0.0191
    6MOL    C87 2897   7.577   1.542   6.933 -0.2696  0.5848  0.5198
    6MOL    C88 2898   7.499   1.471   7.021  0.1599  0.5711 -0.1818
    6MOL    C89 2899   7.409   1.376   6.980 -0.9943  1.1954  0.3067
    6MOL    C90 2900   7.379   1.354   6.843  0.9706 -0.1260 -0.3557
    6MOL    C91 2901   7.277   1.250   6.799  0.3321  0.1466 -0.3200
    6MOL    N92 2902   7.294   1.136   6.862  0.5872 -0.2004 -0.3076
    6MOL    C93 2903   7.283   1.010   6.806  0.0671 -0.2722  0.2062
    6MOL    C94 2904   7.311   0.984   6.669  0.2103  0.0504  0.0185
    6MOL    C95 2905   7.298   0.850   6.626  0.1514  0.3082  0.5166
    6MOL    C96 2906   7.247   0.747   6.704 -0.0186 -0.0296  0.6947
    6MOL    N97 2907   7.248   0.613   6.645 -0.2138 -0.2267  0.2663
    6MOL    C98 2908   7.207   0.777   6.833 -0.6237 -0.2168  0.3995
    6MOL    C99 2909   7.230   0.905   6.887 -0.3928  0.0681  0.2829
    6MOL   O100 2910   7.195   1.274   6.712 -0.0234  0.2673 -0.3480
    6MOL   C101 2911   7.452   1.430   6.750 -0.6158  0.9727  0.5475
    6MOL   C102 2912   7.547   1.521   6.797 -0.2749  0.1581 -0.3187
    6MOL   O103 2913   7.727   1.638   7.097  0.5982  0.0714  0.3530
    6MOL   H104 2914   7.507   1.495   7.126  0.8945 -2.8873  0.6090
    6MOL   H105 2915   7.362   1.319   7.059  1.4084 -0.4237  0.6234
    6MOL   H106 2916   7.371   1.144   6.927  1.3291 -0.8358 -1.1026
    6MOL   H107 2917   7.363   1.055   6.607  0.9128 -0.4419  0.0398
    6MOL   H108 2918   7.319   0.822   6.523  1.8041  1.5813  0.4815
    6MOL   H109 2919   7.312   0.604   6.568 -1.3589 -3.2161 -0.4311
    6MOL   H110 2920   7.175   0.697   6.897 -1.1817  0.6923  1.2633
    6MOL   H111 2921   7.213   0.920   6.992  1.1358  0.7045  0.4575
    6MOL   H112 2922   7.436   1.419   6.644  2.7857  0.0881  0.0451
    6MOL   H113 2923   7.599   1.571   6.716  0.8250  1.4300  1.1398
    6MOL   C114 2924   7.235   0.497   6.713 -0.2066  0.1593 -0.1237
    6MOL   C115 2925   7.309   0.384   6.645 -0.1681  0.5379 -0.2869
    6MOL   C116 2926   7.341   0.384   6.510  0.4665  0.3896  0.1800
    6MOL   C117 2927   7.431   0.294   6.458  0.2359  0.3619  0.0420
    6MOL   C118 2928   7.490   0.196   6.542  0.0265 -0.0067  0.2589
    6MOL   C119 2929   7.576   0.088   6.484 -0.3426 -0.5361  0.1032
    6MOL   N120 2930   7.664   0.130   6.393 -0.6230  0.0036  0.1767
    6MOL   C121 2931   7.779   0.059   6.339  0.6168  0.3230 -0.3016
    6MOL   C122 2932   7.886   0.127   6.277  0.3141 -0.1682  0.5419
    6MOL   C123 2933   7.994   0.059   6.220  0.2243 -0.7783 -0.4111
    6MOL   C124 2934   8.014   8.063   6.234 -0.2149 -0.5431 -0.1736
    6MOL   N125 2935   8.138   8.015   6.180  0.5270  0.5027  0.4621
    6MOL   C126 2936   7.918   7.996   6.313 -0.1082  0.2555 -0.5762
    6MOL   C127 2937   7.804   8.064   6.357  0.1095  0.4290 -0.4844
    6MOL   O128 2938   7.564   8.121   6.524  0.0976 -0.1150  0.7330
    6MOL   C129 2939   7.453   0.188   6.675  0.1206  0.2083 -0.2773
    6MOL   C130 2940   7.362   0.280   6.723 -0.6076  0.5414 -0.0816
    6MOL   O131 2941   7.162   0.469   6.817 -0.2136 -0.6990  0.2943
    6MOL   H132 2942   7.314   0.458   6.436  0.0751  0.4552  0.3869
    6MOL   H133 2943   7.456   0.306   6.354  0.2655 -1.4610 -0.1838
    6MOL   H134 2944   7.656   0.229   6.374  0.4372  0.1744  0.5801
    6MOL   H135 2945   7.883   0.235   6.264 -1.3079 -0.2852 -0.1427
    6MOL   H136 2946   8.063   0.105   6.150 -1.4190  0.1099 -1.4668
    6MOL   H137 2947   0.053   8.088   6.147  0.3617  0.1063 -0.7484
    6MOL   H138 2948   7.936   7.893   6.339  1.0853  0.4565 -0.5508
    6MOL   H139 2949   7.727   8.001   6.399 -1.3825  1.4027 -1.6933
    6MOL   H140 2950   7.471   0.100   6.735  3.1059  0.0859 -1.2918
    6MOL   H141 2951   7.324   0.283   6.824 -0.0068 -0.1805  0.1600
    6MOL   C142 2952   0.024   7.885   6.160  0.4140 -0.9098 -0.2549
    6MOL   C143 2953   0.163   7.857   6.108 -0.1125  0.6957 -0.0206
    6MOL   C144 2954   0.238   7.746   6.156 -0.4990 -0.0257  0.5334
    6MOL   C145 2955   0.368   7.718   6.101 -0.4041  0.9408  0.3275
    6MOL   C146 2956   0.412   7.805   5.994 -0.0247  0.4791 -0.7556
    6MOL   C147 2957   0.552   7.786   5.952 -0.5892  0.8032  0.5808
    6MOL   N148 2958   0.594   7.868   5.853  0.3694 -0.3089  0.0120
    6MOL   C149 2959   0.723   7.908   5.810  0.1840 -0.0687 -0.4411
    6MOL   C150 2960   0.826   7.815   5.800  0.3312 -0.0556  0.3387
    6MOL   C151 2961   0.959   7.857   5.776 -0.1094  1.1626  0.0663
    6MOL   C152 2962   0.990   7.994   5.758  0.0629 -0.3756  0.1567
    6MOL   N153 2963   1.120   8.047   5.761 -0.6927  0.1022  0.3377
    6MOL   C154 2964   0.879   8.086   5.767 -0.0953 -0.4174  0.7446
    6MOL   C155 2965   0.750   8.042   5.781  0.3492 -0.0718  0.7250
    6MOL   O156 2966   0.628   7.700   5.998  1.0299 -0.7197  0.3365
    6MOL   C157 2967   0.331   7.913   5.944  0.0067 -0.2813 -0.3305
    6MOL   C158 2968   0.199   7.935   5.999 -0.6267  0.3719 -0.3050
    6MOL   O159 2969   8.100   7.790   6.181  0.6485  0.1460 -0.1353
    6MOL   H160 2970   0.203   7.676   6.230  0.3272  0.3445  1.2823
    6MOL   H161 2971   0.428   7.635   6.135 -0.5605  0.8065  0.2728
    6MOL   H162 2972   0.515   7.923   5.824  0.8779  0.7142  0.5606
    6MOL   H163 2973   0.807   7.711   5.821  1.8640 -0.4336 -0.0458
    6MOL   H164 2974   1.037   7.783   5.768 -1.4980 -0.1946 -1.2279
    6MOL   H165 2975   1.126   8.144   5.788 -3.7354 -0.0319  1.6890
    6MOL   H166 2976   0.903   0.043   5.746 -0.7887 -0.4963 -0.4539
    6MOL   H167 2977   0.670   8.115   5.785 -0.8596 -1.3739  0.9082
    6MOL   H168 2978   0.366   7.972   5.861  0.8279  0.1114  0.2795
    6MOL   H169 2979   0.131   8.013   5.967 -0.8263  0.3156 -0.0189
    6MOL   C170 2980   1.232   7.982   5.722  0.4935 -0.2388 -0.4236
    6MOL   C171 2981   1.350   8.067   5.736  0.1782  0.1047  0.3374
    6MOL   C172 2982   1.396   8.081   5.865 -0.2333  0.2973  0.4885
    6MOL   C173 2983   1.508   0.015   5.887  0.4656 -0.5779  0.6188
    6MOL   C174 2984   1.574   0.079   5.781  0.1729 -0.2825  0.2079
    6MOL   C175 2985   1.687   0.171   5.814 -0.3258  0.1060 -0.4804
    6MOL   N176 2986   1.678   0.290   5.762  0.0074 -0.4630  0.5933
    6MOL   C177 2987   1.739   0.413   5.790 -0.4505 -0.6021 -1.1794
    6MOL   C178 2988   1.849   0.437   5.872 -0.1673 -0.2160 -0.3829
    6MOL   C179 2989   1.899   0.566   5.896  0.5053 -0.8428 -0.1602
    6MOL   C180 2990   1.829   0.676   5.836 -0.3507 -0.3803  0.7561
    6MOL   N181 2991   1.856   0.814   5.872 -0.5777  0.1605 -0.4855
    6MOL   C182 2992   1.724   0.650   5.746  0.2215  0.1633  0.8168
    6MOL   C183 2993   1.678   0.520   5.721  0.2874  0.3189 -0.9327
    6MOL   O184 2994   1.781   0.133   5.891 -0.0511  0.5497 -0.6579
    6MOL   C185 2995   1.529   0.059   5.651  0.2320 -0.5662 -1.1226
    6MOL   C186 2996   1.415   8.125   5.630  0.0291 -0.0257  0.2469
    6MOL   O187 2997   1.240   7.875   5.668  0.5433  0.1693 -0.0433
    6MOL   H188 2998   1.348   8.029   5.947 -0.8993  1.4386  0.8431
    6MOL   H189 2999   1.554   0.016   5.984 -0.2835  0.8559  0.9650
    6MOL   H190 3000   1.587   0.300   5.718  0.4772  0.3017 -0.2226
    6MOL   H191 3001   1.898   0.353   5.920  0.9500  0.5969 -0.0856
    6MOL   H192 3002   1.994   0.581   5.947  1.0691 -0.3040 -1.3428
    6MOL   H193 3003   1.850   0.894   5.809  0.6053  1.2117  0.7043
    6MOL   H194 3004   1.678   0.733   5.694 -0.7566 -0.9141 -0.0741
    6MOL   H195 3005   1.592   0.501   5.658  0.5105 -1.6904 -0.6676
    6MOL   H196 3006   1.585   0.095   5.566  0.2700 -0.0866 -0.8939
    6MOL   H197 3007   1.378   8.115   5.529 -0.2956 -0.8317  0.4392
    6MOL   C198 3008   1.878   0.861   5.994 -0.0348 -0.0130 -0.6976
    6MOL   C199 3009   1.871   1.016   6.005 -0.3063  0.7376 -0.5336
    6MOL   C200 3010   1.769   1.087   5.943 -0.2479  0.2023  0.0077
    6MOL   C201 3011   1.766   1.226   5.957 -0.4454  0.7709 -0.5712
    6MOL   C202 3012   1.864   1.296   6.029 -0.4630  0.5530  1.2439
    6MOL   C203 3013   1.864   1.443   6.036  0.2417  0.0875 -0.0491
    6MOL   N204 3014   1.870   1.497   6.156 -0.4645 -0.4990 -0.8711
    6MOL   C205 3015   1.930   1.628   6.185 -0.3631  0.2706 -0.1892
    6MOL   C206 3016   1.878   1.743   6.140  0.3022  0.0765 -0.0695
    6MOL   C207 3017   1.932   1.864   6.183 -0.7904 -0.0813  0.1134
    6MOL   C208 3018   2.037   1.867   6.270 -0.0127 -0.4736  0.6487
    6MOL   N209 3019   2.111   1.984   6.306 -0.3255 -0.1881 -0.0710
    6MOL   C210 3020   2.091   1.745   6.318  0.1551  0.2885  0.5948
    6MOL   C211 3021   2.032   1.619   6.285 -0.5852 -0.2250 -0.0044
    6MOL   O212 3022   1.850   1.511   5.933 -0.5229 -0.4950 -1.0000
    6MOL   C213 3023   1.960   1.225   6.098  0.3893  0.4028  0.1260
    6MOL   C214 3024   1.965   1.084   6.094 -0.4915 -0.0827  0.3426
    6MOL   O215 3025   1.917   0.790   6.093  0.0381  0.0794  0.2130
    6MOL   H216 3026   1.703   1.029   5.880  0.1715 -1.1107  0.7640
    6MOL   H217 3027   1.683   1.278   5.913 -0.3801  3.3437  2.1805
    6MOL   H218 3028   1.868   1.434   6.235  0.9200  0.8218  0.2624
    6MOL   H219 3029   1.801   1.746   6.065 -0.4397 -1.1193  0.6343
    6MOL   H220 3030   1.913   1.956   6.130 -0.7840  0.6751  1.4014
    6MOL   H221 3031   2.199   1.978   6.356  2.0176  2.6565 -3.5438
    6MOL   H222 3032   2.176   1.748   6.385  0.4899 -1.0411  0.2316
    6MOL   H223 3033   2.064   1.526   6.330  0.6566  0.1784 -0.0209
    6MOL   H224 3034   2.036   1.278   6.154  0.1225  0.7757  0.1308
    6MOL   H225 3035   2.047   1.031   6.139 -0.0632  1.3905  1.3644
    6MOL   C226 3036   2.076   2.114   6.282  0.2501 -0.1916  0.2341
    6MOL   C227 3037   2.173   2.206   6.342 -0.3315 -0.7132 -0.2341
    6MOL   C228 3038   2.301   2.174   6.391  0.4584  0.2143  0.4231
    6MOL   C229 3039   2.383   2.276   6.441  0.4387  0.5652 -0.3439
    6MOL   C230 3040   2.336   2.412   6.455  1.3019  0.1681  0.1886
    6MOL   C231 3041   2.422   2.519   6.516 -0.3672 -0.0733  0.3952
    6MOL   N232 3042   2.546   2.479   6.536 -0.5285  0.2196 -0.1504
    6MOL   C233 3043   2.667   2.550   6.582  0.4708 -0.4805  0.1855
    6MOL   C234 3044   2.784   2.475   6.607  0.1073 -0.5232 -0.4433
    6MOL   C235 3045   2.901   2.538   6.644  0.3405 -0.2038 -0.3967
    6MOL   C236 3046   2.898   2.676   6.681  0.0100  0.1368 -0.6695
    6MOL   N237 3047   3.015   2.736   6.733 -0.0370 -0.3384 -0.7284
    6MOL   C238 3048   2.778   2.747   6.665  0.2509 -0.5284 -0.3019
    6MOL   C239 3049   2.660   2.685   6.616 -0.0003  0.4409  0.0435
    6MOL   O240 3050   2.374   2.631   6.530 -0.3689 -0.3230 -0.0408
    6MOL   C241 3051   2.220   2.443   6.390  0.8526  0.0360  0.1818
    6MOL   C242 3052   2.135   2.341   6.337 -0.3480  0.4456  0.2662
    6MOL   O243 3053   1.967   2.145   6.232  0.4096  0.6597 -0.4698
    6MOL   H244 3054   2.328   2.070   6.388 -0.9557 -0.1286 -1.6785
    6MOL   H245 3055   2.470   2.243   6.495  0.9802  2.3136 -0.1139
    6MOL   H246 3056   2.564   2.380   6.521  0.3377  0.5487 -1.3582
    6MOL   H247 3057   2.792   2.369   6.590 -1.5171 -0.7909  0.3629
    6MOL   H248 3058   2.988   2.474   6.635 -0.5390 -1.3413 -0.7944
    6MOL   H249 3059   3.038   2.829   6.702  1.3273 -0.6740 -0.7820
    6MOL   H250 3060   2.779   2.851   6.695 -0.3622 -1.3381  2.7062
    6MOL   H251 3061   2.568   2.741   6.605 -0.5023 -0.6806 -1.7388
    6MOL   H252 3062   2.175   2.541   6.399 -1.1073 -0.9697  1.8041
    6MOL   H253 3063   2.045   2.376   6.289 -0.3981  1.0080  0.7669
    6MOL   C254 3064   3.095   2.677   6.824  0.2280 -0.2243  0.3268
    6MOL   C255 3065   3.205   2.767   6.883 -0.0122 -0.5828  0.1083
    6MOL   C256 3066   3.258   2.880   6.817  0.4263 -0.4686  0.1015
    6MOL   C257 3067   3.363   2.958   6.873 -0.4372 -0.0326  0.3484
    6MOL   C258 3068   3.420   2.920   7.002 -0.6976  0.8020 -0.6936
    6MOL   C259 3069   3.524   3.000   7.069 -0.7900 -0.3116 -0.2089
    6MOL   N260 3070   3.495   3.027   7.196 -0.1667 -0.9348 -1.1535
    6MOL   C261 3071   3.558   3.106   7.297 -0.4198 -0.0050  0.3167
    6MOL   C262 3072   3.503   3.108   7.426 -0.7613 -0.5095 -0.5568
    6MOL   C263 3073   3.551   3.186   7.531 -0.1708  0.3445 -0.3843
    6MOL   C264 3074   3.659   3.267   7.498  0.4925  0.0124  0.5339
    6MOL   N265 3075   3.710   3.366   7.587 -0.0172  0.6328 -0.2839
    6MOL   C266 3076   3.722   3.267   7.375 -0.1553 -0.2587  0.6796
    6MOL   C267 3077   3.668   3.190   7.274  0.3418  0.0258  0.3936
    6MOL   O268 3078   3.616   3.063   7.006  0.3693  0.7225  0.1948
    6MOL   C269 3079   3.368   2.807   7.063  0.1049  0.0470  0.3974
    6MOL   C270 3080   3.266   2.732   7.001 -0.7887 -0.2891 -0.2647
    6MOL   O271 3081   3.067   2.573   6.885  0.2836 -0.7982  0.1284
    6MOL   H272 3082   3.223   2.919   6.723 -0.1086 -2.5443 -0.5870
    6MOL   H273 3083   3.411   3.032   6.812  0.3185 -0.0607  0.8931
    6MOL   H274 3084   3.417   2.970   7.224 -2.3669  1.6046 -1.8348
    6MOL   H275 3085   3.424   3.046   7.465 -1.4631  0.5163 -0.3410
    6MOL   H276 3086   3.497   3.183   7.625  0.3934 -0.0311 -0.0643
    6MOL   H277 3087   3.811   3.372   7.597 -0.1358  1.0094  0.7236
    6MOL   H278 3088   3.809   3.326   7.349  1.5974 -2.5313  1.3135
    6MOL   H279 3089   3.708   3.204   7.174  1.3759 -0.0695  0.7927
    6MOL   H280 3090   3.423   2.764   7.145  1.3718 -0.1155 -0.5176
    6MOL   H281 3091   3.248   2.638   7.052  2.2166 -0.3884  0.7479
    6MOL   C282 3092   3.631   3.465   7.635  0.0201 -0.0470  0.3262
    6MOL   C283 3093   3.687   3.554   7.750 -0.0830 -0.6743  0.6231
    6MOL   C284 3094   3.595   3.617   7.838 -0.2483 -0.2786 -0.3881
    6MOL   C285 3095   3.641   3.699   7.941  0.1541 -0.1461 -0.2371
    6MOL   C286 3096   3.780   3.727   7.954  0.7959 -0.1994  0.7837
    6MOL   C287 3097   3.823   3.836   8.045 -0.2988 -0.1042 -0.3959
    6MOL   N288 3098   3.863   3.954   7.993  0.1392  0.2088 -0.3910
    6MOL   C289 3099   3.873   3.983   7.849  0.3730 -0.0896  1.1507
    6MOL   C290 3100   3.994   3.944   7.788  0.7224 -0.2571  0.2360
    6MOL   C291 3101   4.007   3.950   7.648  0.4277 -0.4961 -0.7179
    6MOL   C292 3102   3.904   3.996   7.567 -0.4525  0.1538 -0.1253
    6MOL   N293 3103   3.911   4.008   7.428 -0.8407  0.1863 -0.2654
    6MOL   C294 3104   3.782   4.041   7.631 -0.3930  0.0676 -0.7758
    6MOL   C295 3105   3.765   4.033   7.774  0.1783 -0.8376 -0.4045
    6MOL   O296 3106   3.813   3.841   0.022  0.4551 -0.0401  0.2198
    6MOL   C297 3107   3.870   3.660   7.874 -0.4690  0.1664  0.6128
    6MOL   C298 3108   3.825   3.581   7.768  0.1630 -0.4703 -0.4125
    6MOL   O299 3109   3.517   3.474   7.601  0.7703 -0.2080  0.3515
    6MOL   H300 3110   3.491   3.617   7.811 -0.3144 -4.5567 -0.4952
    6MOL   H301 3111   3.565   3.748   8.000 -0.6168  1.7364 -2.7193
    6MOL   H302 3112   3.917   4.022   8.045  0.5604  1.6886 -2.7365
    6MOL   H303 3113   4.081   3.911   7.842  0.3036  0.5450  1.4162
    6MOL   H304 3114   4.104   3.929   7.604  1.9935 -0.7606  2.7590
    6MOL   H305 3115   3.830   3.974   7.378 -0.6688 -0.7775  0.0989
    6MOL   H306 3116   3.707   4.091   7.571  0.4757  1.6119 -0.6140
    6MOL   H307 3117   3.674   4.070   7.820  2.2715  3.5770  0.4939
    6MOL   H308 3118   3.975   3.673   7.896 -0.7291 -0.9958  2.6626
    6MOL   H309 3119   3.902   3.533   7.709  0.0324  0.3998 -1.3065
    6MOL   C310 3120   4.023   4.052   7.363 -0.4021  0.0548  0.0463
    6MOL   C311 3121   4.030   4.027   7.216 -0.7720  0.6102 -0.1520
    6MOL   C312 3122   4.155   4.047   7.148 -0.5571  0.4916 -0.0507
    6MOL   C313 3123   4.161   4.038   7.009 -0.5311 -0.3104  0.4161
    6MOL   C314 3124   4.047   3.998   6.938 -0.5824 -0.3572 -0.2512
    6MOL   C315 3125   4.050   3.978   6.786  0.4970  0.1495 -0.5456
    6MOL   N316 3126   4.109   4.078   6.715  0.2899  0.4532  0.1158
    6MOL   C317 3127   4.113   4.095   6.573  0.0135 -0.3700  0.0523
    6MOL   C318 3128   4.143   4.224   6.521 -0.0879  0.7573  0.1233
    6MOL   C319 3129   4.156   4.243   6.386  0.2073  0.0232  0.1515
    6MOL   C320 3130   4.143   4.133   6.294 -0.2919 -0.1110  0.3092
    6MOL   N321 3131   4.146   4.162   6.154  0.0356  0.2319 -0.3525
    6MOL   C322 3132   4.117   4.005   6.349  0.5369 -0.6004 -1.1754
    6MOL   C323 3133   4.108   3.985   6.488 -0.2365 -0.7586  0.8565
    6MOL   O324 3134   4.004   3.875   6.737  0.3728  0.0571 -0.7161
    6MOL   C325 3135   3.925   3.972   7.006 -0.0521 -0.0051 -0.1080
    6MOL   C326 3136   3.920   3.981   7.143  0.1589 -0.1790 -0.2461
    6MOL   O327 3137   4.113   4.112   7.418 -0.0032  0.0757 -0.2716
    6MOL   H328 3138   4.241   4.083   7.202 -0.9109 -1.1853  1.6699
    6MOL   H329 3139   4.254   4.070   6.965 -0.0142 -4.6955 -1.9868
    6MOL   H330 3140   4.145   4.154   6.771  1.5869 -1.1121  1.4020
    6MOL   H331 3141   4.140   4.306   6.591  3.0479  2.7610 -1.9729
    6MOL   H332 3142   4.178   4.340   6.343 -3.8984  0.5272 -1.0470
    6MOL   H333 3143   4.136   4.260   6.131  1.6870  0.8909  1.5704
    6MOL   H334 3144   4.089   3.928   6.279 -1.0220 -0.2721 -0.9260
    6MOL   H335 3145   4.089   3.886   6.527 -0.8912 -1.5146 -1.3256
    6MOL   H336 3146   3.835   3.940   6.956  0.1965  1.2893 -1.4322
    6MOL   H337 3147   3.827   3.955   7.192 -0.9726  1.3666 -1.5148
    6MOL   C338 3148   4.169   4.074   6.052  0.0263  0.2655 -0.6957
    6MOL   C339 3149   4.172   4.135   5.912 -0.1969  0.8535 -0.0294
    6MOL   C340 3150   4.111   4.062   5.805  0.0723  0.2835 -0.2573
    6MOL   C341 3151   4.104   4.123   5.682 -0.8269  0.4844  0.1911
    6MOL   C342 3152   4.160   4.254   5.657  0.1297  0.0235  0.3495
    6MOL   C343 3153   4.141   4.319   5.525  1.0099 -0.6662 -0.2802
    6MOL   N344 3154   4.117   4.234   5.427  0.2270 -0.6287 -0.2226
    6MOL   C345 3155   4.091   4.240   5.293  0.4704  0.8032 -0.1340
    6MOL   C346 3156   4.031   4.123   5.234 -0.4876 -0.2088 -0.3355
    6MOL   C347 3157   3.984   4.126   5.103 -0.0430  0.0256 -0.1702
    6MOL   C348 3158   4.003   4.243   5.025 -0.3083  0.2618 -0.2715
    6MOL   N349 3159   3.945   4.255   4.891 -0.7196  0.2841 -0.4518
    6MOL   C350 3160   4.062   4.358   5.082 -0.4654  1.5045  0.4983
    6MOL   C351 3161   4.105   4.353   5.218 -0.1603 -0.3173  0.3013
    6MOL   O352 3162   4.144   4.444   5.516  0.3610  0.2179  0.1712
    6MOL   C353 3163   4.217   4.325   5.759 -0.0803 -0.2760 -0.9364
    6MOL   C354 3164   4.230   4.262   5.884  0.1186 -0.2612 -0.0786
    6MOL   O355 3165   4.178   3.950   6.068 -0.0476 -0.0553  0.2576
    6MOL   H356 3166   4.081   3.960   5.819 -0.0239  0.6752  2.6747
    6MOL   H357 3167   4.060   4.068   5.601 -0.3918  2.2239 -1.2593
    6MOL   H358 3168   4.112   4.138   5.458  0.7111  0.0083  1.9086
    6MOL   H359 3169   4.012   4.037   5.297  1.4904 -0.4402 -0.0136
    6MOL   H360 3170   3.929   4.045   5.056  0.5439 -0.2323 -0.4157
    6MOL   H361 3171   3.993   4.321   4.831 -1.1112  1.2300  0.2498
    6MOL   H362 3172   4.084   4.450   5.030  0.6301 -0.0418 -1.8474
    6MOL   H363 3173   4.152   4.444   5.249  1.5926 -1.4224  0.9656
    6MOL   H364 3174   4.270   4.416   5.736  2.3835 -1.2259  0.7605
    6MOL   H365 3175   4.292   4.313   5.955  0.8233 -0.8207 -0.2867
    6MOL   C366 3176   3.833   4.203   4.846  0.4045  0.3837  0.2931
    6MOL   C367 3177   3.788   4.237   4.708  0.0022 -0.0733 -0.6843
    6MOL   C368 3178   3.880   4.269   4.602 -0.5585  0.4763 -0.0681
    6MOL   C369 3179   3.840   4.302   4.467 -0.5722 -0.4641 -0.2029
    6MOL   C370 3180   3.700   4.310   4.449 -0.3322 -0.0221 -0.3864
    6MOL   C371 3181   3.640   4.330   4.317 -0.8247 -0.5970  0.2076
    6MOL   N372 3182   3.534   4.249   4.283 -0.3433 -0.4641  0.1867
    6MOL   C373 3183   3.460   4.249   4.167 -0.0065 -0.2543 -0.0820
    6MOL   C374 3184   3.449   4.362   4.088 -0.1819  0.2390 -0.7823
    6MOL   C375 3185   3.385   4.349   3.963 -0.1967  0.2808  0.1634
    6MOL   C376 3186   3.341   4.227   3.915  0.2473  0.2946  0.4206
    6MOL   N377 3187   3.272   4.228   3.792 -0.2692 -0.1950 -0.4458
    6MOL   C378 3188   3.367   4.111   3.995  0.1799 -0.0495 -0.0573
    6MOL   C379 3189   3.419   4.123   4.123  0.2124 -0.0692 -0.4919
    6MOL   O380 3190   3.690   4.413   4.246  0.2225 -0.5615 -0.0102
    6MOL   C381 3191   3.609   4.294   4.557  0.3438  0.2572 -0.1388
    6MOL   C382 3192   3.650   4.251   4.679 -0.3126 -0.1765 -0.4354
    6MOL   O383 3193   3.760   4.133   4.916  0.1719 -0.0423 -0.3733
    6MOL   H384 3194   3.982   4.280   4.634 -0.8909  1.0460  0.8095
    6MOL   H385 3195   3.912   4.327   4.391  0.0867 -0.2855  0.4716
    6MOL   H386 3196   3.514   4.187   4.360 -0.8598 -0.1132  0.3364
    6MOL   H387 3197   3.481   4.455   4.134  1.2042 -0.7903  0.3575
    6MOL   H388 3198   3.362   4.443   3.916 -1.4183 -2.1430 -4.3554
    6MOL   H389 3199   3.250   4.319   3.754  2.2362  0.3302 -0.7308
    6MOL   H390 3200   3.337   4.016   3.954 -0.5600  0.3495 -0.4473
    6MOL   H391 3201   3.435   4.041   4.192 -0.4777  0.3144  0.1219
    6MOL   H392 3202   3.503   4.312   4.558  0.0620 -1.2903 -0.6054
    6MOL   H393 3203   3.585   4.240   4.765 -0.1089  0.8866 -0.1338
    6MOL   C394 3204   3.257   4.128   3.705 -0.5474 -0.3620 -0.1724
    6MOL   C395 3205   3.221   4.166   3.560 -0.6502  0.1006 -0.7394
    6MOL   C396 3206   3.161   4.069   3.475 -0.0715 -0.2884  0.0572
    6MOL   C397 3207   3.127   4.108   3.341 -0.2184  0.2416 -0.1031
    6MOL   C398 3208   3.153   4.239   3.294  0.2347  0.6072 -0.3717
    6MOL   C399 3209   3.090   4.277   3.164 -0.6258  0.0449  0.3525
    6MOL   N400 3210   3.159   4.354   3.074 -0.3985 -0.2234 -0.2828
    6MOL   C401 3211   3.296   4.384   3.073 -0.0807  0.4007 -0.0950
    6MOL   C402 3212   3.333   4.511   3.018 -0.1971  0.1403  0.3359
    6MOL   C403 3213   3.465   4.538   2.977  1.1000  0.7041 -1.1275
    6MOL   C404 3214   3.560   4.439   2.997 -0.2717 -0.7862 -0.1067
    6MOL   N405 3215   3.696   4.452   2.952  0.2783 -0.3885 -0.0923
    6MOL   C406 3216   3.532   4.318   3.064  0.1589 -0.0453 -0.4276
    6MOL   C407 3217   3.398   4.286   3.102  0.0075 -0.1190 -0.9759
    6MOL   O408 3218   2.978   4.226   3.139  0.1898 -0.6651 -0.5574
    6MOL   C409 3219   3.221   4.333   3.372 -0.2997 -0.0090 -0.0138
    6MOL   C410 3220   3.246   4.297   3.507 -0.3293 -0.6742 -0.5036
    6MOL   O411 3221   3.272   4.009   3.725 -0.3691  0.1296  0.7621
    6MOL   H412 3222   3.131   3.970   3.505  1.6171 -0.1515  2.3453
    6MOL   H413 3223   3.086   4.028   3.281  0.6544 -0.5209  0.3058
    6MOL   H414 3224   3.105   4.392   2.997 -2.9990  0.5797  1.8498
    6MOL   H415 3225   3.264   4.591   2.997 -1.5821 -0.9152  0.7798
    6MOL   H416 3226   3.488   4.640   2.950 -0.4696  1.2559 -0.4246
    6MOL   H417 3227   3.745   4.365   2.936 -0.1150 -0.3690 -1.5440
    6MOL   H418 3228   3.614   4.248   3.071  0.6171  0.2229 -2.7675
    6MOL   H419 3229   3.367   4.191   3.143 -0.1327  0.2890 -0.1280
    6MOL   H420 3230   3.227   4.438   3.347  0.1514 -0.3774 -1.5286
    6MOL   H421 3231   3.276   4.382   3.567 -1.9419 -0.1753 -0.3549
    6MOL   C422 3232   3.776   4.556   2.963  0.6297  0.2015  0.0727
    6MOL   C423 3233   3.921   4.521   2.962 -0.0296 -0.7478  0.4730
    6MOL   C424 3234   4.022   4.626   2.966 -0.1810  0.1472 -0.7162
    6MOL   C425 3235   4.151   4.594   2.997 -0.7547  0.0066 -0.3561
    6MOL   C426 3236   4.195   4.455   3.015  0.2372 -0.6230 -0.5919
    6MOL   C427 3237   4.333   4.420   3.069 -0.1716 -0.3962 -0.2246
    6MOL   N428 3238   4.345   4.290   3.111 -0.2188  0.1941  0.3513
    6MOL   C429 3239   4.445   4.234   3.189 -0.1461  0.2623 -0.4113
    6MOL   C430 3240   4.576   4.287   3.200  0.5629  0.4317 -0.0310
    6MOL   C431 3241   4.664   4.233   3.290 -1.0845 -0.0901 -0.3914
    6MOL   C432 3242   4.643   4.121   3.372 -0.6911 -0.4629  0.1476
    6MOL   N433 3243   4.738   4.096   3.477 -0.6367 -0.2446  0.0060
    6MOL   C434 3244   4.514   4.055   3.346 -0.5586  0.6737 -0.6474
    6MOL   C435 3245   4.417   4.115   3.262 -0.4278 -0.1891  0.2326
    6MOL   O436 3246   4.421   4.507   3.084 -0.3807 -0.2297  0.4977
    6MOL   C437 3247   4.095   4.353   2.998 -0.1449  0.7528  0.3052
    6MOL   C438 3248   3.965   4.389   2.961  0.0771 -0.3998 -0.2914
    6MOL   O439 3249   3.733   4.669   2.970  0.4928 -0.4464  0.2180
    6MOL   H440 3250   3.983   4.725   2.949  1.0459  0.4597 -1.8148
    6MOL   H441 3251   4.227   4.668   3.019  0.9779 -1.8857  0.1324
    6MOL   H442 3252   4.266   4.230   3.096  1.6447 -2.1817 -0.2273
    6MOL   H443 3253   4.609   4.375   3.147  0.2184  0.4213 -0.2633
    6MOL   H444 3254   4.757   4.287   3.297  0.2919 -2.1022 -2.4523
    6MOL   H445 3255   4.807   4.168   3.489 -0.3170 -0.5386 -0.0400
    6MOL   H446 3256   4.495   3.964   3.402  0.6280  0.1592 -1.0799
    6MOL   H447 3257   4.324   4.066   3.237  0.1535 -1.3897  0.4081
    6MOL   H448 3258   4.117   4.249   3.020 -1.1295 -0.5961 -4.4488
    6MOL   H449 3259   3.898   4.305   2.953 -1.2678  0.6594 -0.4869
    6MOL   C450 3260   4.728   3.995   3.569  0.0110 -0.5307 -0.0552
    6MOL   C451 3261   4.807   4.008   3.691 -0.3130 -0.9752  0.2512
    6MOL   C452 3262   4.850   3.892   3.751  0.2552 -0.4008 -0.2326
    6MOL   C453 3263   4.930   3.902   3.869 -0.7917  0.6309  0.7050
    6MOL   C454 3264   4.957   4.029   3.925  0.0420  0.3136 -0.4382
    6MOL   C455 3265   5.033   4.030   4.058  0.2931 -0.3568  0.2435
    6MOL   N456 3266   5.007   4.127   4.138  0.5729  0.5654 -0.0296
    6MOL   C457 3267   5.062   4.155   4.270  0.4359 -0.6184 -0.0990
    6MOL   C458 3268   5.066   4.298   4.302 -0.1771 -0.0428 -1.0641
    6MOL   C459 3269   5.096   4.331   4.436 -0.4102  0.3080 -0.3816
    6MOL   C460 3270   5.136   4.226   4.525  0.0248  0.1002 -0.7336
    6MOL   N461 3271   5.159   4.273   4.661  0.1681 -0.1407  0.2190
    6MOL   C462 3272   5.160   4.090   4.480  0.0179  0.3543  0.1409
    6MOL   C463 3273   5.113   4.052   4.356 -0.0617 -0.0162 -0.3824
    6MOL   O464 3274   5.132   3.958   4.072 -0.1245 -0.1431 -0.1494
    6MOL   C465 3275   4.912   4.146   3.861 -0.6961 -1.1703 -0.1040
    6MOL   C466 3276   4.844   4.135   3.739  0.0589  0.2522  0.5754
    6MOL   O467 3277   4.662   3.891   3.557 -0.1586  0.6448 -0.2709
    6MOL   H468 3278   4.830   3.800   3.699 -1.0563 -0.0591 -0.3562
    6MOL   H469 3279   4.969   3.808   3.905  0.7184  0.0071 -2.4441
    6MOL   H470 3280   4.915   4.168   4.136  1.1050  1.7708 -0.9058
    6MOL   H471 3281   5.026   4.379   4.243  3.6940  3.0030  0.3270
    6MOL   H472 3282   5.087   4.433   4.471  4.1318  0.4474  0.6673
    6MOL   H473 3283   5.171   4.373   4.674 -0.3720 -0.0843  0.3220
    6MOL   H474 3284   5.199   4.013   4.544 -0.5823  1.1715  1.5188
    6MOL   H475 3285   5.131   3.950   4.327  0.5227  0.4672 -1.7902
    6MOL   H476 3286   4.943   4.244   3.894 -1.7682  0.6904 -4.3377
    6MOL   H477 3287   4.801   4.226   3.700  1.0952  0.7963  0.6802
    6MOL   C478 3288   5.146   4.210   4.774  0.1419  0.2270 -0.1272
    6MOL   C479 3289   5.116   4.280   4.904  0.2063 -0.0883 -0.1101
    6MOL   C480 3290   5.092   4.420   4.909 -0.4932  0.3228 -0.7068
    6MOL   C481 3291   5.066   4.488   5.030  0.1413  0.8122 -0.2310
    6MOL   C482 3292   5.047   4.413   5.152 -0.2572  0.0446 -0.7976
    6MOL   C483 3293   5.007   4.473   5.282  0.7961 -0.3760  0.0732
    6MOL   N484 3294   5.054   4.598   5.310  0.2330 -0.8925  0.1275
    6MOL   C485 3295   5.059   4.672   5.432 -0.1400  0.4909 -0.6053
    6MOL   C486 3296   5.123   4.796   5.426 -0.2304  0.0165 -0.0994
    6MOL   C487 3297   5.168   4.856   5.544 -0.5274 -0.2713 -0.1428
    6MOL   C488 3298   5.141   4.803   5.670 -0.3370  0.7708  0.4084
    6MOL   N489 3299   5.173   4.860   5.792 -0.8388  0.0756 -0.2100
    6MOL   C490 3300   5.069   4.683   5.675 -0.1125  0.9889  0.7308
    6MOL   C491 3301   5.028   4.614   5.556  0.0692 -0.0568 -0.2888
    6MOL   O492 3302   4.925   4.414   5.355  0.0314 -0.4005  0.3563
    6MOL   C493 3303   5.066   4.276   5.144 -0.1432  0.0704  0.3950
    6MOL   C494 3304   5.103   4.215   5.025  0.3304  0.8426  0.1932
    6MOL   O495 3305   5.149   4.091   4.773  0.1879 -0.2655  0.0907
    6MOL   H496 3306   5.108   4.475   4.818  1.8385  1.6890  0.4877
    6MOL   H497 3307   5.069   4.596   5.034  2.0131  0.7589  0.1768
    6MOL   H498 3308   5.119   4.628   5.239 -0.7620 -2.0398 -1.3121
    6MOL   H499 3309   5.143   4.849   5.334  1.2432 -0.2724  0.0434
    6MOL   H500 3310   5.215   4.953   5.546  0.7214 -0.8834  0.6919
    6MOL   H501 3311   5.151   4.798   5.869  2.4796  0.1750  0.8751
    6MOL   H502 3312   5.059   4.638   5.773 -0.6447 -0.7277 -0.0908
    6MOL   H503 3313   4.983   4.517   5.566 -2.1465  1.0950  1.2453
    6MOL   H504 3314   5.052   4.211   5.229 -2.5713  1.6265  1.2764
    6MOL   H505 3315   5.130   4.111   5.029  1.2100  0.8703 -3.0672
    6MOL   C506 3316   5.162   4.989   5.823 -0.1050  0.3766  0.4743
    6MOL   C507 3317   5.140   5.005   5.966 -0.0146  0.4418 -0.1218
    6MOL   C508 3318   5.195   4.918   6.057  0.2923 -0.2169  0.2433
    6MOL   C509 3319   5.187   4.938   6.195  0.2204  0.5552 -0.0421
    6MOL   C510 3320   5.114   5.039   6.248  0.5081 -0.2227  0.4438
    6MOL   C511 3321   5.127   5.070   6.394 -0.2945 -0.7778 -0.2672
    6MOL   N512 3322   5.174   4.976   6.475  0.6607 -0.5366 -0.7750
    6MOL   C513 3323   5.228   4.991   6.608 -0.4477  0.7616 -0.4221
    6MOL   C514 3324   5.276   4.872   6.673 -0.7261 -0.6103 -0.4844
    6MOL   C515 3325   5.342   4.878   6.798  0.2258  0.3164  0.0752
    6MOL   C516 3326   5.337   5.001   6.868 -0.3912  0.2539  0.5167
    6MOL   N517 3327   5.374   4.993   7.007  0.5992  0.1973  0.3990
    6MOL   C518 3328   5.295   5.124   6.804 -0.0769  0.5534 -0.2046
    6MOL   C519 3329   5.238   5.116   6.676  0.0026  0.8109  0.2898
    6MOL   O520 3330   5.076   5.177   6.433 -0.2179 -0.3239  0.3296
    6MOL   C521 3331   5.041   5.125   6.161  0.1151  0.0125  0.9165
    6MOL   C522 3332   5.059   5.108   6.024 -0.6181  0.0801  0.2615
    6MOL   O523 3333   5.165   5.088   5.749  0.3229 -0.0124  0.1368
    6MOL   H524 3334   5.260   4.837   6.025 -0.8932 -1.6561  1.4022
    6MOL   H525 3335   5.239   4.871   6.262 -0.1516  0.0779 -0.2284
    6MOL   H526 3336   5.183   4.885   6.433 -2.1342 -1.1384 -0.1512
    6MOL   H527 3337   5.273   4.777   6.621 -0.1193 -1.4004  0.8902
    6MOL   H528 3338   5.385   4.787   6.839 -1.7172 -1.3756 -1.5222
    6MOL   H529 3339   5.348   4.904   7.046 -2.6215  0.9067  0.0708
    6MOL   H530 3340   5.287   5.216   6.861  0.1580 -0.9812  2.4037
    6MOL   H531 3341   5.193   5.209   6.644 -1.0809 -0.3597 -1.6939
    6MOL   H532 3342   4.990   5.218   6.184  1.1745  0.5929  0.9764
    6MOL   H533 3343   5.009   5.174   5.954 -0.6265  0.5781  0.7303
    6MOL   C534 3344   5.423   5.080   7.099  0.0820  0.3562 -0.2864
    6MOL   C535 3345   5.429   5.019   7.236 -0.3060  0.2572 -0.2745
    6MOL   C536 3346   5.318   4.946   7.291  0.1174 -0.2376  0.0524
    6MOL   C537 3347   5.338   4.860   7.400  0.8621 -0.0629  0.3483
    6MOL   C538 3348   5.462   4.859   7.472 -0.0375 -0.2154  0.2839
    6MOL   C539 3349   5.482   4.769   7.592 -0.3717  0.1421  0.0888
    6MOL   N540 3350   5.375   4.709   7.649 -0.0924 -0.2650 -0.2338
    6MOL   C541 3351   5.358   4.629   7.764  0.0420 -0.5785  0.4393
    6MOL   C542 3352   5.233   4.579   7.795  0.1923 -0.1780 -0.1217
    6MOL   C543 3353   5.209   4.492   7.910 -0.2596 -0.4276 -0.2407
    6MOL   C544 3354   5.324   4.444   7.980  0.4279 -0.1390  0.1755
    6MOL   N545 3355   5.318   4.367   8.094  0.0580 -0.2682 -0.0247
    6MOL   C546 3356   5.447   4.484   7.941 -0.5472  0.3996  0.6324
    6MOL   C547 3357   5.468   4.574   7.838 -0.0614 -0.9597  0.4005
    6MOL   O548 3358   5.597   4.750   7.634  0.4765 -0.0727 -0.1719
    6MOL   C549 3359   5.572   4.938   7.420 -0.5835 -0.5980 -0.0629
    6MOL   C550 3360   5.554   5.016   7.300 -0.1345  0.1141 -0.2289
    6MOL   O551 3361   5.477   5.185   7.070  0.1046  0.3819 -0.1922
    6MOL   H552 3362   5.224   4.958   7.240  0.1766 -2.1462 -0.5595
    6MOL   H553 3363   5.255   4.799   7.431  0.2209  0.4139 -0.4087
    6MOL   H554 3364   5.287   4.743   7.613  0.7022  2.1242  0.0196
    6MOL   H555 3365   5.154   4.618   7.733 -0.7768 -1.2265  0.4342
    6MOL   H556 3366   5.109   4.471   7.946 -0.5376  2.4561  0.8265
    6MOL   H557 3367   5.222   4.338   8.108  0.4108 -1.3646  0.1649
    6MOL   H558 3368   5.539   4.445   7.982 -1.1765 -0.8757  0.8666
    6MOL   H559 3369   5.571   4.604   7.827  0.2257 -1.7159  1.0335
    6MOL   H560 3370   5.666   4.927   7.472 -0.4891  0.1596 -0.0624
    6MOL   H561 3371   5.638   5.068   7.257 -0.1934 -0.1633 -0.6834
    6MOL   H562 3372   5.365   4.277   8.094  1.7686  0.6117 -0.6383
    7MOL     C1 3373   7.412   0.543   2.238 -0.1656  0.6470  0.3385
    7MOL     C2 3374   7.496   0.506   2.123  0.2236  0.9155  0.5337
    7MOL     C3 3375   7.461   0.389   2.054 -0.1653  0.0669  0.7492
    7MOL     C4 3376   7.548   0.339   1.953  0.6436 -0.7247  0.8944
    7MOL     C5 3377   7.665   0.407   1.915 -0.2066 -0.4719 -0.2178
    7MOL     C6 3378   7.754   0.362   1.798  0.2509 -0.1934 -0.9854
    7MOL     N7 3379   7.715   0.251   1.739 -0.6668 -0.0368 -0.1060
    7MOL     C8 3380   7.780   0.176   1.641  0.1250  0.0539  0.1677
    7MOL     C9 3381   7.738   0.041   1.626 -0.2096 -0.1209 -0.2884
    7MOL    C10 3382   7.791   8.107   1.521  0.4944  0.2967 -0.7620
    7MOL    C11 3383   7.883   0.019   1.432  0.4086  1.1157 -0.5438
    7MOL    N12 3384   7.935   8.094   1.319 -0.2124  0.1682  0.5690
    7MOL    C13 3385   7.936   0.149   1.455 -0.4793  0.2790 -0.2432
    7MOL    C14 3386   7.883   0.224   1.560 -0.4581  0.2253 -0.0182
    7MOL    O15 3387   7.847   0.432   1.760  0.1427 -0.2208  0.2000
    7MOL    C16 3388   7.700   0.521   1.991 -0.0270  0.6981 -0.3942
    7MOL    C17 3389   7.616   0.572   2.086 -0.0492  0.3572  0.1487
    7MOL    O18 3390   7.430   0.643   2.305 -0.2438 -0.2558  0.1204
    7MOL    H19 3391   7.367   0.345   2.085  0.0373 -1.1930 -0.4054
    7MOL    H20 3392   7.524   0.246   1.905  0.9006 -1.2726  1.8155
    7MOL    H21 3393   7.632   0.208   1.777  0.0354  0.3727  1.9710
    7MOL    H22 3394   7.670   0.009   1.703  0.3985  0.2086  0.3908
    7MOL    H23 3395   7.754   8.005   1.522 -0.4844  0.6512  0.2981
    7MOL    H24 3396   8.027   8.122   1.291 -0.1098  0.0748  0.8106
    7MOL    H25 3397   8.016   0.184   1.392 -0.4055 -0.4488 -0.5575
    7MOL    H26 3398   7.933   0.318   1.577  1.9783 -0.7808 -1.2368
    7MOL    H27 3399   7.787   0.580   1.965  0.9143 -0.2793  0.4823
    7MOL    H28 3400   7.643   0.661   2.141  1.1201  0.4507 -0.5553
    7MOL    H29 3401   7.324   0.480   2.254  0.2076  0.0415  0.0342
    7MOL    C30 3402   7.888   7.985   1.257  0.5927 -0.2113  0.5028
    7MOL    C31 3403   7.975   7.932   1.152  0.2434 -0.1865  0.4656
    7MOL    C32 3404   8.075   8.006   1.084 -0.0508  0.0367  0.0146
    7MOL    C33 3405   0.023   7.950   0.991  0.2351  0.2033 -0.3238
    7MOL    C34 3406   0.004   7.810   0.955 -0.6124  0.6257 -0.1761
    7MOL    C35 3407   0.098   7.750   0.857  0.0814 -0.2977  0.0612
    7MOL    N36 3408   0.039   7.689   0.750  0.1816 -0.4075 -0.2377
    7MOL    C37 3409   0.107   7.615   0.646 -0.1270 -0.2921 -0.6722
    7MOL    C38 3410   0.034   7.586   0.525  0.3119 -0.2313  0.5014
    7MOL    C39 3411   0.104   7.527   0.416  0.0326 -0.3269  0.1183
    7MOL    C40 3412   0.245   7.501   0.431  0.1168 -0.1257  0.5367
    7MOL    N41 3413   0.332   7.465   0.322 -0.3543 -0.1731  0.3256
    7MOL    C42 3414   0.305   7.506   0.559 -0.1907  0.1976 -0.1599
    7MOL    C43 3415   0.237   7.558   0.665  0.0156  0.2496  0.6692
    7MOL    O44 3416   0.218   7.770   0.867 -0.0191 -0.5447  0.0191
    7MOL    C45 3417   8.049   7.737   1.022  0.7287 -0.1755 -0.0335
    7MOL    C46 3418   7.965   7.794   1.123  0.0156  0.7263  0.1403
    7MOL    O47 3419   7.776   7.942   1.280  0.0569  0.3704  0.6002
    7MOL    H48 3420   8.079   8.112   1.102 -0.5813  0.0484  0.0710
    7MOL    H49 3421   0.096   8.018   0.950  0.2993  0.2138 -0.1944
    7MOL    H50 3422   8.084   7.683   0.744  0.3060 -1.5886 -1.3694
    7MOL    H51 3423   8.075   7.609   0.511  0.2273  0.2392  1.8638
    7MOL    H52 3424   0.050   7.529   0.322 -0.7156 -0.1303  0.5520
    7MOL    H53 3425   0.422   7.425   0.346  0.0029  1.3081  1.5324
    7MOL    H54 3426   0.408   7.476   0.561  0.1727  1.2958 -1.6583
    7MOL    H55 3427   0.273   7.568   0.766  0.0418 -3.6098  1.1225
    7MOL    H56 3428   8.032   7.632   1.001 -1.9184  0.0798  0.6332
    7MOL    H57 3429   7.895   7.727   1.169 -0.3745  0.0598 -1.4193
    7MOL    C58 3430   0.323   7.497   0.190 -0.3277 -0.1180  0.7706
    7MOL    C59 3431   0.435   7.463   0.092 -0.1650  0.5268  0.7555
    7MOL    C60 3432   0.489   7.336   0.098 -0.2211 -0.8508 -0.4062
    7MOL    C61 3433   0.586   7.297   0.004 -0.1704 -0.6467  0.2553
    7MOL    C62 3434   0.628   7.381   8.042  0.0892 -0.3261  0.3628
    7MOL    C63 3435   0.725   7.339   7.939  0.7187  0.2112 -0.4065
    7MOL    N64 3436   0.705   7.216   7.883  0.4570  0.1075  0.4295
    7MOL    C65 3437   0.762   7.175   7.766  0.7384 -0.3296 -0.0577
    7MOL    C66 3438   0.821   7.255   7.663 -0.0479 -0.5226  0.7215
    7MOL    C67 3439   0.876   7.198   7.547 -0.0108 -0.5069 -0.0894
    7MOL    C68 3440   0.860   7.058   7.525 -0.3327  0.2205 -0.6080
    7MOL    N69 3441   0.914   6.992   7.415  0.0743 -0.3385 -0.2367
    7MOL    C70 3442   0.810   6.981   7.629 -0.1310 -0.0679 -0.2333
    7MOL    C71 3443   0.759   7.034   7.748 -0.1636 -0.8526 -0.3022
    7MOL    O72 3444   0.818   7.414   7.911 -0.1802 -0.2921 -0.0278
    7MOL    C73 3445   0.577   7.511   8.037 -0.5524  0.1300 -0.3707
    7MOL    C74 3446   0.485   7.559   8.141  0.0370 -0.5831 -0.4936
    7MOL    O75 3447   0.236   7.575   0.147 -0.8013  0.0059  0.3224
    7MOL    H76 3448   0.432   7.273   0.166 -0.6659 -1.6165 -1.4868
    7MOL    H77 3449   0.630   7.199   8.140 -0.8849 -1.2322  2.6281
    7MOL    H78 3450   0.626   7.162   7.915 -0.7527  1.2150 -0.6153
    7MOL    H79 3451   0.833   7.360   7.685  2.4899 -0.1580 -2.1144
    7MOL    H80 3452   0.925   7.256   7.471  0.5620 -2.7289 -1.4618
    7MOL    H81 3453   0.942   6.896   7.430 -0.6243 -0.4244  0.5713
    7MOL    H82 3454   0.794   6.874   7.619  0.0991 -0.2663  1.4520
    7MOL    H83 3455   0.730   6.975   7.834  2.6921  0.0904  1.3532
    7MOL    H84 3456   0.610   7.579   7.960 -0.7931 -0.5738 -1.0932
    7MOL    H85 3457   0.437   7.656   8.140  1.4519  0.1321  0.4910
    7MOL    C86 3458   0.908   7.018   7.282  0.4364 -0.4370  0.1037
    7MOL    C87 3459   0.957   6.914   7.188 -0.1868 -0.7024  0.1250
    7MOL    C88 3460   0.988   6.950   7.058 -0.1490  0.7641 -0.4247
    7MOL    C89 3461   1.043   6.861   6.962 -0.6949 -0.5477  0.4364
    7MOL    C90 3462   1.063   6.726   6.994  0.3850 -0.6660  0.8352
    7MOL    C91 3463   1.101   6.624   6.895  0.6682  0.7669 -0.1707
    7MOL    N92 3464   1.201   6.666   6.809  0.0410 -0.1406 -0.5722
    7MOL    C93 3465   1.251   6.589   6.704  0.0971  0.4831 -0.0757
    7MOL    C94 3466   1.379   6.633   6.656 -0.0926  0.1296  0.6257
    7MOL    C95 3467   1.435   6.572   6.536  0.3694 -1.3258 -0.1967
    7MOL    C96 3468   1.357   6.478   6.471  0.5271  0.2320 -0.4310
    7MOL    N97 3469   1.404   6.425   6.343  0.1492 -0.5140 -0.4481
    7MOL    C98 3470   1.229   6.435   6.514 -0.1397  0.3368  0.0526
    7MOL    C99 3471   1.173   6.490   6.633  0.2082 -1.2533 -0.4059
    7MOL   O100 3472   1.055   6.511   6.916 -0.0960 -0.0224 -0.1611
    7MOL   C101 3473   1.037   6.688   7.127  0.1057  0.2638 -0.2615
    7MOL   C102 3474   0.994   6.779   7.226  0.8369  1.0395 -0.2891
    7MOL   O103 3475   0.844   7.117   7.240  0.7643  0.1901 -0.5375
    7MOL   H104 3476   0.976   7.054   7.033 -0.0240  0.6723 -0.8688
    7MOL   H105 3477   1.057   6.889   6.859  1.2590 -2.5269  0.1209
    7MOL   H106 3478   1.229   6.760   6.830 -0.5391 -0.0864 -0.0365
    7MOL   H107 3479   1.444   6.706   6.701  1.8999 -0.7683 -0.7112
    7MOL   H108 3480   1.528   6.607   6.495  0.2889 -1.0883 -0.1812
    7MOL   H109 3481   1.423   6.489   6.268 -0.3614  0.4349  0.2223
    7MOL   H110 3482   1.166   6.363   6.464  0.0438  0.2990 -0.1239
    7MOL   H111 3483   1.069   6.469   6.654 -0.4691  2.5392  0.3348
    7MOL   H112 3484   1.049   6.584   7.152 -1.4374  0.3777  1.0710
    7MOL   H113 3485   0.964   6.747   7.325 -1.5786  3.7253 -0.0744
    7MOL   C114 3486   1.430   6.295   6.313 -0.5290  0.5000 -0.1496
    7MOL   C115 3487   1.478   6.268   6.171  0.6489  0.0256  0.6596
    7MOL   C116 3488   1.450   6.351   6.067 -0.0332 -0.3105  0.1186
    7MOL   C117 3489   1.498   6.339   5.939  0.2522  0.3065 -0.5721
    7MOL   C118 3490   1.576   6.225   5.904  0.1527  0.0080 -0.2350
    7MOL   C119 3491   1.624   6.193   5.763  0.7000  0.5654  0.0053
    7MOL   N120 3492   1.550   6.236   5.656 -0.4124 -0.2794 -0.0112
    7MOL   C121 3493   1.410   6.235   5.641 -0.6460  0.6119 -0.7480
    7MOL   C122 3494   1.328   6.133   5.693 -0.1959  0.2202  0.3616
    7MOL   C123 3495   1.192   6.152   5.714  0.1963  0.5405 -0.5910
    7MOL   C124 3496   1.131   6.268   5.664  0.2726  0.0880  0.2543
    7MOL   N125 3497   0.987   6.283   5.683  0.4029  0.7520 -0.4877
    7MOL   C126 3498   1.210   6.364   5.588  0.0232  0.1465  0.0665
    7MOL   C127 3499   1.348   6.343   5.585 -1.0557  0.2334  0.0649
    7MOL   O128 3500   1.717   6.109   5.747  0.2687 -0.1351  0.3838
    7MOL   C129 3501   1.598   6.126   6.007  0.0374 -0.6683  0.0825
    7MOL   C130 3502   1.547   6.146   6.137  0.1607 -0.2319  0.4313
    7MOL   O131 3503   1.415   6.201   6.393 -0.0618  0.0152 -0.4762
    7MOL   H132 3504   1.380   6.431   6.085 -0.5366 -0.8245  0.4538
    7MOL   H133 3505   1.456   6.396   5.858 -0.4541  0.1737 -0.3032
    7MOL   H134 3506   1.597   6.237   5.566  0.0931  2.5280  0.2284
    7MOL   H135 3507   1.362   6.036   5.726 -2.2422 -0.3145  0.9657
    7MOL   H136 3508   1.152   6.067   5.768  0.2331  0.7271 -0.2708
    7MOL   H137 3509   0.947   6.251   5.769  0.7340  1.5466 -0.0256
    7MOL   H138 3510   1.177   6.455   5.541 -0.4371  0.4737  1.0224
    7MOL   H139 3511   1.415   6.416   5.542  1.4160 -1.9125  0.0946
    7MOL   H140 3512   1.659   6.041   5.980  0.2458 -0.4205 -0.2260
    7MOL   H141 3513   1.553   6.071   6.214  0.0117  0.2287  0.8970
    7MOL   C142 3514   0.903   6.340   5.605  0.5984 -0.2259  0.2993
    7MOL   C143 3515   0.757   6.341   5.654 -0.2795  0.2382 -0.2374
    7MOL   C144 3516   0.670   6.451   5.629 -0.0362 -0.1360  0.5908
    7MOL   C145 3517   0.537   6.443   5.676  0.2073  0.6652 -0.0363
    7MOL   C146 3518   0.484   6.332   5.748 -0.1156 -0.0801  0.0717
    7MOL   C147 3519   0.349   6.340   5.815 -0.6523 -0.2945  0.0188
    7MOL   N148 3520   0.259   6.424   5.765  0.0740 -0.6819  0.5478
    7MOL   C149 3521   0.134   6.452   5.830 -0.0033 -0.5977  0.1469
    7MOL   C150 3522   0.028   6.489   5.748 -0.3545  0.5280  0.7944
    7MOL   C151 3523   8.048   6.536   5.806 -0.1812  0.4300  0.2790
    7MOL   C152 3524   8.036   6.543   5.944  0.2846  0.1944 -0.0364
    7MOL   N153 3525   7.920   6.600   5.999 -0.4448 -0.3073 -0.2460
    7MOL   C154 3526   8.144   6.508   6.022  0.0618  0.1785  0.4483
    7MOL   C155 3527   0.117   6.459   5.974  0.5822 -0.0875  0.6596
    7MOL   O156 3528   0.334   6.264   5.911 -0.2447 -0.5931 -0.0442
    7MOL   C157 3529   0.570   6.225   5.769 -0.2338  0.2073 -0.1643
    7MOL   C158 3530   0.702   6.236   5.725 -0.4604 -0.0758 -0.0292
    7MOL   O159 3531   0.935   6.393   5.494 -0.4291  0.0019  0.8684
    7MOL   H160 3532   0.709   6.528   5.563 -1.3337 -0.6611 -0.8111
    7MOL   H161 3533   0.469   6.522   5.646  0.1147  0.7930  0.5033
    7MOL   H162 3534   0.270   6.451   5.669 -0.7877  0.2774  0.7018
    7MOL   H163 3535   0.046   6.477   5.642  0.8343 -1.2232  1.1723
    7MOL   H164 3536   7.970   6.561   5.736  2.1182  1.4125 -1.9974
    7MOL   H165 3537   7.857   6.639   5.929 -0.6621  2.2677  1.3174
    7MOL   H166 3538   8.142   6.528   6.128 -1.4261 -0.5714  0.5838
    7MOL   H167 3539   0.195   6.432   6.043  1.2899 -3.8634 -1.4713
    7MOL   H168 3540   0.530   6.135   5.813 -1.7953  0.0631 -1.8294
    7MOL   H169 3541   0.764   6.149   5.738 -1.0259 -0.3442  0.9448
    7MOL   C170 3542   7.870   6.601   6.119 -0.2422 -0.0826  0.2660
    7MOL   C171 3543   7.750   6.682   6.133 -0.7221  0.4157 -0.0658
    7MOL   C172 3544   7.652   6.700   6.031 -0.5968  0.4706 -0.0021
    7MOL   C173 3545   7.535   6.776   6.050  0.1273  0.2788  0.3494
    7MOL   C174 3546   7.510   6.826   6.177  0.6794  0.6800  0.4142
    7MOL   C175 3547   7.378   6.902   6.204  0.7082  0.6252  0.5723
    7MOL   N176 3548   7.341   6.919   6.332  0.2754 -0.1976  0.4080
    7MOL   C177 3549   7.237   6.984   6.386  0.1137 -0.3187  0.3500
    7MOL   C178 3550   7.159   6.918   6.488  0.0836  0.1446 -0.2809
    7MOL   C179 3551   7.073   6.992   6.560  0.1546 -0.1516 -0.5726
    7MOL   C180 3552   7.050   7.133   6.539 -0.9365  0.1482  0.3881
    7MOL   N181 3553   6.963   7.214   6.620 -0.0205  0.1119  0.0698
    7MOL   C182 3554   7.123   7.192   6.432 -1.0243 -0.2752 -0.8036
    7MOL   C183 3555   7.222   7.124   6.367  0.3101 -0.0016  0.3459
    7MOL   O184 3556   7.311   6.938   6.109 -0.2416  0.0870  0.1758
    7MOL   C185 3557   7.600   6.807   6.282 -0.4252  0.5328 -0.1645
    7MOL   C186 3558   7.720   6.735   6.261  0.0758 -0.7114  0.1249
    7MOL   O187 3559   7.928   6.555   6.215  0.1749  0.0714  0.0616
    7MOL   H188 3560   7.666   6.656   5.934  1.8706 -0.7291  0.8525
    7MOL   H189 3561   7.472   6.805   5.967 -1.2106  1.6166  1.8006
    7MOL   H190 3562   7.386   6.858   6.398  1.4969  1.4888  1.1615
    7MOL   H191 3563   7.177   6.813   6.504 -4.2221 -0.4501  1.3151
    7MOL   H192 3564   7.007   6.952   6.635  0.8295  0.5500  0.4114
    7MOL   H193 3565   6.923   7.293   6.571 -2.4505  0.0472  1.8746
    7MOL   H194 3566   7.102   7.298   6.423 -0.7799 -0.2488 -1.0442
    7MOL   H195 3567   7.280   7.182   6.296  2.6956 -1.3832  1.0978
    7MOL   H196 3568   7.583   6.856   6.377 -0.8281 -2.4230  1.3725
    7MOL   H197 3569   7.792   6.733   6.341  2.2091  1.2338 -1.7136
    7MOL   C198 3570   6.913   7.188   6.742 -0.2810  0.0406  0.3260
    7MOL   C199 3571   6.837   7.304   6.787 -0.2129 -0.1374  0.4761
    7MOL   C200 3572   6.815   7.416   6.706  0.0920 -0.2076 -0.3934
    7MOL   C201 3573   6.727   7.518   6.745  0.4260  0.1815  0.2447
    7MOL   C202 3574   6.657   7.509   6.866 -0.0987 -0.5215 -0.8176
    7MOL   C203 3575   6.561   7.616   6.905 -1.0162 -0.6550 -0.3337
    7MOL   N204 3576   6.545   7.626   7.039  0.3103 -1.4790 -0.5011
    7MOL   C205 3577   6.465   7.710   7.124  0.5949 -0.0801 -0.0979
    7MOL   C206 3578   6.459   7.678   7.263 -0.1446  0.0454  0.0342
    7MOL   C207 3579   6.390   7.760   7.348  0.2692  0.1915  0.2810
    7MOL   C208 3580   6.323   7.874   7.298  1.1883  0.2665 -0.2208
    7MOL   N209 3581   6.258   7.971   7.383 -0.3420 -0.2496  0.5956
    7MOL   C210 3582   6.335   7.913   7.167  0.0845  0.5366  0.1524
    7MOL   C211 3583   6.407   7.831   7.077 -0.7023  0.1689 -0.1251
    7MOL   O212 3584   6.518   7.699   6.819  0.1172 -0.2011 -0.0237
    7MOL   C213 3585   6.668   7.391   6.945  0.4574 -0.4419 -0.5173
    7MOL   C214 3586   6.759   7.287   6.903  0.4338 -0.2855  0.2546
    7MOL   O215 3587   6.930   7.089   6.811  0.0263 -0.1454 -0.5141
    7MOL   H216 3588   6.856   7.438   6.609  0.4445  0.5073 -0.0787
    7MOL   H217 3589   6.714   7.605   6.682  0.2191 -0.1027 -0.1082
    7MOL   H218 3590   6.599   7.562   7.095  1.8980  1.2963  1.3033
    7MOL   H219 3591   6.508   7.591   7.303 -0.2895 -0.0552 -0.0088
    7MOL   H220 3592   6.380   7.732   7.452 -0.6465 -1.2427 -0.1835
    7MOL   H221 3593   6.205   8.041   7.334 -0.9985 -1.5892 -0.6608
    7MOL   H222 3594   6.275   7.989   7.118 -2.1539 -2.1593 -1.4951
    7MOL   H223 3595   6.411   7.851   6.971 -0.8892 -0.7853 -0.3162
    7MOL   H224 3596   6.610   7.378   7.035  1.1935  0.9414  0.1821
    7MOL   H225 3597   6.762   7.195   6.959  0.9468 -1.0490 -1.0232
    7MOL   C226 3598   6.247   7.975   7.514  0.2297  0.0380 -0.2456
    7MOL   C227 3599   6.170   8.091   7.564  0.3222  0.2880  0.4460
    7MOL   C228 3600   6.215   0.074   7.525  0.2959  0.2138  0.2587
    7MOL   C229 3601   6.140   0.187   7.570  1.0141  0.1381  0.4990
    7MOL   C230 3602   6.042   0.174   7.671 -0.3035 -0.3906  0.3638
    7MOL   C231 3603   5.970   0.299   7.716 -0.4413  0.7412  0.2400
    7MOL   N232 3604   5.985   0.344   7.842 -0.0846 -0.3829  0.2178
    7MOL   C233 3605   6.059   0.287   7.950 -0.0970  0.1302  0.3965
    7MOL   C234 3606   6.162   0.367   8.002 -0.9031  0.8180  0.0886
    7MOL   C235 3607   6.216   0.323   8.130  0.3792 -0.1397 -0.0942
    7MOL   C236 3608   6.162   0.213   0.049 -0.6950  0.2873 -0.3132
    7MOL   N237 3609   6.199   0.188   0.183  0.6265 -0.1424 -0.4773
    7MOL   C238 3610   6.071   0.128   8.135  0.3394 -0.3596  0.2118
    7MOL   C239 3611   6.011   0.170   8.014 -0.6317 -0.4994  0.4716
    7MOL   O240 3612   5.905   0.353   7.623 -0.1109  0.3739  0.3680
    7MOL   C241 3613   6.006   0.047   7.716  0.5497 -0.3395 -0.8517
    7MOL   C242 3614   6.073   8.082   7.664  0.2854  0.2308 -0.7677
    7MOL   O243 3615   6.262   7.883   7.595 -0.4524  0.3151 -0.4619
    7MOL   H244 3616   6.293   0.093   7.454 -0.2176  0.8442 -0.1464
    7MOL   H245 3617   6.173   0.288   7.549 -1.0868  0.9171  0.8411
    7MOL   H246 3618   5.953   0.437   7.865  1.2888 -0.0469  0.7812
    7MOL   H247 3619   6.173   0.463   7.953  0.2097 -0.6012 -2.5144
    7MOL   H248 3620   6.283   0.388   0.038  0.0090 -0.6556  0.9918
    7MOL   H249 3621   6.137   0.223   0.255 -0.9752 -3.2356 -0.2675
    7MOL   H250 3622   6.033   0.040   0.039 -3.6257  1.4140  0.4425
    7MOL   H251 3623   5.927   0.113   7.977  0.3233 -0.1574 -2.3017
    7MOL   H252 3624   5.926   0.020   7.783  2.2809  1.3915  2.0283
    7MOL   H253 3625   6.039   7.984   7.696  0.6420  0.5274  0.5493
    7MOL   C254 3626   6.253   0.069   0.220  0.6189  0.7713  0.1318
    7MOL   C255 3627   6.341   8.140   0.126  0.2755  0.1410  0.5103
    7MOL   C256 3628   6.454   0.059   0.065 -0.3101  0.5777  0.1110
    7MOL   C257 3629   6.542   8.137   8.127  0.0786  0.4621 -0.1346
    7MOL   C258 3630   6.516   8.002   8.094 -0.1580 -0.5206  0.1657
    7MOL   C259 3631   6.612   7.937   8.005 -0.2328  0.6813  0.1738
    7MOL   N260 3632   6.556   7.851   7.914 -0.2969  0.2955  0.4512
    7MOL   C261 3633   6.632   7.773   7.816  0.1446 -0.6121 -0.2185
    7MOL   C262 3634   6.585   7.761   7.681 -0.0869  0.0939 -0.8194
    7MOL   C263 3635   6.653   7.680   7.587  0.0016 -0.1338  0.8050
    7MOL   C264 3636   6.762   7.598   7.621 -0.0834  0.9233 -0.1981
    7MOL   N265 3637   6.818   7.494   7.537  0.3451 -0.3874 -0.0403
    7MOL   C266 3638   6.819   7.621   7.748  0.2213  0.8996 -0.7491
    7MOL   C267 3639   6.747   7.690   7.847 -0.5338 -0.1403 -0.0730
    7MOL   O268 3640   6.732   7.954   8.015  0.2208 -0.5396 -0.1880
    7MOL   C269 3641   6.412   7.931   0.009  0.0486  0.0075  0.4920
    7MOL   C270 3642   6.332   8.004   0.101 -0.2073 -0.4341 -0.2887
    7MOL   O271 3643   6.230   0.018   0.330  0.1453  0.1128  0.1215
    7MOL   H272 3644   6.484   0.161   0.085 -1.8215  0.8492  1.0143
    7MOL   H273 3645   6.624   0.048   8.085  2.5422 -1.1035  2.3807
    7MOL   H274 3646   6.456   7.860   7.900 -0.6407 -1.1605  1.8532
    7MOL   H275 3647   6.489   7.806   7.658 -0.7060 -0.2135  1.0857
    7MOL   H276 3648   6.612   7.658   7.489 -1.0691 -2.1075  1.6671
    7MOL   H277 3649   6.898   7.446   7.576  1.4984  1.5762  0.0777
    7MOL   H278 3650   6.906   7.564   7.776 -1.6544 -1.3347  0.7975
    7MOL   H279 3651   6.785   7.680   7.948  0.8731 -2.4630 -0.7789
    7MOL   H280 3652   6.387   7.828   8.132  1.0727  0.2382 -1.8000
    7MOL   H281 3653   6.252   7.950   0.149 -1.6684  2.5889  0.8024
    7MOL   C282 3654   6.801   7.453   7.408 -0.1726  0.6142 -0.0013
    7MOL   C283 3655   6.907   7.368   7.357 -0.2800 -0.1139  0.2757
    7MOL   C284 3656   7.002   7.304   7.439 -0.2111  0.8417 -0.0163
    7MOL   C285 3657   7.095   7.212   7.387  0.4652  0.0941  0.3866
    7MOL   C286 3658   7.105   7.195   7.247 -0.3052  0.2453  0.5792
    7MOL   C287 3659   7.219   7.108   7.189  0.2481 -0.7367  0.4353
    7MOL   N288 3660   7.197   7.061   7.062  0.1331  0.3849  0.3674
    7MOL   C289 3661   7.283   6.973   6.991 -0.1753  0.6114  0.1266
    7MOL   C290 3662   7.402   6.918   7.047 -0.0930 -0.2864  0.1067
    7MOL   C291 3663   7.476   6.829   6.969 -0.8025  0.1316  1.0786
    7MOL   C292 3664   7.440   6.798   6.832 -0.3805 -0.7404  0.0129
    7MOL   N293 3665   7.491   6.683   6.757  0.5633  0.3555  0.1485
    7MOL   C294 3666   7.327   6.858   6.777  1.0291 -0.5407 -0.4324
    7MOL   C295 3667   7.247   6.944   6.857  0.0544  0.8523  0.4118
    7MOL   O296 3668   7.324   7.089   7.251 -0.4527  0.4319  0.1383
    7MOL   C297 3669   7.009   7.258   7.164  0.5866 -0.1793  0.1059
    7MOL   C298 3670   6.913   7.344   7.219  0.0530 -0.7898  0.6202
    7MOL   O299 3671   6.711   7.491   7.336  0.2500 -0.7772 -0.1219
    7MOL   H300 3672   6.991   7.319   7.545 -0.1333 -0.8685  0.2438
    7MOL   H301 3673   7.175   7.175   7.448 -0.9086 -0.8540  1.6580
    7MOL   H302 3674   7.119   7.100   7.011 -1.5824 -1.7329  1.2763
    7MOL   H303 3675   7.436   6.924   7.149  1.3350 -0.0728 -0.3759
    7MOL   H304 3676   7.550   6.766   7.017  2.1686  1.4046 -1.6985
    7MOL   H305 3677   7.426   6.653   6.686  2.0769 -0.0413 -1.0993
    7MOL   H306 3678   7.310   6.836   6.673 -0.6176  0.9620 -0.4956
    7MOL   H307 3679   7.160   6.983   6.807  0.8146  1.0461 -0.7753
    7MOL   H308 3680   6.998   7.237   7.059 -0.7318 -0.4590  0.2820
    7MOL   H309 3681   6.839   7.384   7.152  0.1133 -1.2512  0.2761
    7MOL   C310 3682   7.604   6.622   6.772 -0.2018 -0.2791 -0.1848
    7MOL   C311 3683   7.639   6.519   6.666 -0.0196 -0.6665 -0.2454
    7MOL   C312 3684   7.765   6.533   6.600  0.1004 -0.2116 -0.1109
    7MOL   C313 3685   7.800   6.438   6.499 -0.3166 -0.2526  0.3808
    7MOL   C314 3686   7.716   6.330   6.464 -0.5902  0.6508 -0.0322
    7MOL   C315 3687   7.761   6.221   6.366 -0.3933  0.4366 -0.0575
    7MOL   N316 3688   7.853   6.259   6.273 -0.3829  0.1093  0.3756
    7MOL   C317 3689   7.905   6.181   6.174 -0.1945 -0.2670  1.7537
    7MOL   C318 3690   7.832   6.082   6.098  0.7226 -0.2035  0.2617
    7MOL   C319 3691   7.899   5.988   6.021  0.0854  0.0479 -0.4125
    7MOL   C320 3692   8.040   5.991   6.009 -0.0097 -0.3567 -0.9277
    7MOL   N321 3693   8.106   5.896   5.935 -0.2539 -0.1346 -0.2874
    7MOL   C322 3694   8.114   6.097   6.069  0.2134 -0.8201 -0.3131
    7MOL   C323 3695   8.045   6.197   6.152 -0.1953 -0.6303  1.2146
    7MOL   O324 3696   7.723   6.104   6.363 -0.4510 -0.9472 -0.3537
    7MOL   C325 3697   7.592   6.322   6.525  0.0244  0.3818  0.0523
    7MOL   C326 3698   7.552   6.416   6.624  0.1696  0.8887 -0.0754
    7MOL   O327 3699   7.695   6.655   6.847 -0.1771  0.2299 -0.2395
    7MOL   H328 3700   7.822   6.619   6.632 -1.0957 -0.6100  3.3724
    7MOL   H329 3701   7.893   6.451   6.445  0.1872  1.4842  1.6188
    7MOL   H330 3702   7.879   6.356   6.284 -2.3857  0.8133 -0.9306
    7MOL   H331 3703   7.727   6.056   6.107  0.0374  1.5212 -2.4664
    7MOL   H332 3704   7.838   5.913   5.974 -1.0363  0.7958 -0.1558
    7MOL   H333 3705   0.028   5.846   5.990 -0.2271 -0.2491 -0.4230
    7MOL   H334 3706   0.075   6.109   6.069  0.1162  0.1151  0.2722
    7MOL   H335 3707   8.101   6.276   6.199  0.5485  0.5526 -1.5238
    7MOL   H336 3708   7.529   6.237   6.502  0.2951 -1.0434  4.1360
    7MOL   H337 3709   7.457   6.410   6.676  1.4261  1.1212  2.3417
    7MOL   C338 3710   8.107   5.886   5.798  0.0181 -0.1807 -0.5704
    7MOL   C339 3711   8.011   5.979   5.723  0.2128  0.2184 -0.6819
    7MOL   C340 3712   7.877   5.941   5.698  0.3317  0.0704  0.6227
    7MOL   C341 3713   7.787   6.041   5.650  0.4310  0.3923  0.2701
    7MOL   C342 3714   7.824   6.169   5.612  0.3782 -0.3764 -0.3504
    7MOL   C343 3715   7.726   6.273   5.574  0.6527  0.4624 -0.0110
    7MOL   N344 3716   7.761   6.340   5.464 -0.6507  0.8179 -0.5137
    7MOL   C345 3717   7.705   6.458   5.422  0.2352  0.1864 -0.5938
    7MOL   C346 3718   7.702   6.477   5.284 -0.1386  0.6817 -0.3111
    7MOL   C347 3719   7.647   6.594   5.228  0.2072  0.6881  0.0031
    7MOL   C348 3720   7.601   6.696   5.310  0.0969 -0.2713 -0.1127
    7MOL   N349 3721   7.528   6.808   5.269 -0.5411  0.0707  0.1039
    7MOL   C350 3722   7.606   6.680   5.451  0.2537  0.2085 -0.2151
    7MOL   C351 3723   7.660   6.563   5.505  0.3771  0.4904 -0.9875
    7MOL   O352 3724   7.620   6.283   5.628 -0.4653  0.0565  0.4092
    7MOL   C353 3725   7.959   6.200   5.624  0.1881  0.2350  0.6325
    7MOL   C354 3726   8.055   6.106   5.674  0.0980  0.2253 -0.2457
    7MOL   O355 3727   0.050   5.822   5.742  0.2898 -0.0882 -0.2469
    7MOL   H356 3728   7.832   5.845   5.719 -0.5468  0.6252  1.3188
    7MOL   H357 3729   7.682   6.020   5.636 -0.1486  2.1735  1.7381
    7MOL   H358 3730   7.835   6.305   5.404  1.8460  2.1478  1.7276
    7MOL   H359 3731   7.737   6.395   5.222 -0.0283  1.3378 -1.1140
    7MOL   H360 3732   7.632   6.598   5.121  2.2578 -0.5805 -0.3676
    7MOL   H361 3733   7.496   6.858   5.350 -0.1886  0.5106 -0.0225
    7MOL   H362 3734   7.569   6.766   5.504 -0.3236 -0.2485  0.1265
    7MOL   H363 3735   7.653   6.545   5.612  0.6946 -3.5415 -1.5966
    7MOL   H364 3736   7.994   6.295   5.587 -1.8794  1.4877  1.7860
    7MOL   H365 3737   0.012   6.137   5.676 -0.3353  1.6278  0.4848
    7MOL   C366 3738   7.497   6.853   5.149 -0.6245 -0.0306  0.5986
    7MOL   C367 3739   7.416   6.987   5.147 -0.1029  0.0100 -0.1097
    7MOL   C368 3740   7.413   7.065   5.030 -0.2611  0.1062 -0.6766
    7MOL   C369 3741   7.334   7.184   5.020 -0.3558  0.2877 -0.3864
    7MOL   C370 3742   7.268   7.233   5.137  0.0417 -0.2657  0.0603
    7MOL   C371 3743   7.182   7.358   5.138 -0.2262  0.2904  0.2935
    7MOL   N372 3744   7.125   7.379   5.016 -0.2033 -0.1359 -0.8067
    7MOL   C373 3745   7.032   7.482   4.998  0.4569  0.7626  0.4221
    7MOL   C374 3746   6.927   7.459   4.905 -0.6989 -0.1532 -0.2884
    7MOL   C375 3747   6.838   7.554   4.867 -0.1324 -0.0227  0.5795
    7MOL   C376 3748   6.842   7.685   4.930  0.5819  0.2978  0.3355
    7MOL   N377 3749   6.747   7.790   4.906 -0.0504  0.3108  0.3730
    7MOL   C378 3750   6.946   7.713   5.021  1.2360  0.3370  0.2403
    7MOL   C379 3751   7.036   7.610   5.050 -0.1337  0.3064  0.3071
    7MOL   O380 3752   7.158   7.420   5.237 -0.8980 -0.2466  0.4211
    7MOL   C381 3753   7.279   7.155   5.254 -0.5898 -0.6141  1.1075
    7MOL   C382 3754   7.346   7.031   5.261  0.9711  0.1205  0.1980
    7MOL   O383 3755   7.542   6.810   5.043 -0.2192 -0.2157  0.2189
    7MOL   H384 3756   7.452   7.038   4.933 -2.5124 -0.1016 -1.5470
    7MOL   H385 3757   7.328   7.236   4.926  2.7792  0.4138 -0.5890
    7MOL   H386 3758   7.125   7.305   4.948 -1.1230  0.1377 -1.1139
    7MOL   H387 3759   6.913   7.356   4.875  2.7302 -1.0632  0.9524
    7MOL   H388 3760   6.756   7.519   4.807  0.4032  1.5020 -1.1120
    7MOL   H389 3761   6.737   7.867   4.970  2.0456  1.6316 -0.8347
    7MOL   H390 3762   6.950   7.807   5.074  0.7354 -0.1165  1.0856
    7MOL   H391 3763   7.113   7.645   5.117  2.9582 -0.6989 -2.5622
    7MOL   H392 3764   7.234   7.184   5.348 -1.0952 -1.3043  1.0876
    7MOL   H393 3765   7.359   6.986   5.358 -1.6401 -0.6053  0.2427
    7MOL   C394 3766   6.686   7.813   4.789 -0.7443  0.4300 -0.2400
    7MOL   C395 3767   6.617   7.947   4.787  0.2696 -0.3433 -0.0734
    7MOL   C396 3768   6.603   8.008   4.662  0.2582 -0.1868 -0.7024
    7MOL   C397 3769   6.538   8.133   4.658  0.8286  0.0893 -0.4826
    7MOL   C398 3770   6.501   0.049   4.779  0.6294  0.4161 -0.6674
    7MOL   C399 3771   6.426   0.177   4.771  0.0589  0.0762  0.0122
    7MOL   N400 3772   6.439   0.250   4.881  0.2743  0.4271  0.0052
    7MOL   C401 3773   6.390   0.372   4.925  0.3683 -0.6349  0.9690
    7MOL   C402 3774   6.344   0.474   4.825  0.4553  0.4312  0.3369
    7MOL   C403 3775   6.298   0.598   4.880  0.4268 -0.0023 -0.2093
    7MOL   C404 3776   6.298   0.620   5.023  0.2469 -0.7418 -0.4659
    7MOL   N405 3777   6.260   0.743   5.082  0.0519 -0.4118  0.3591
    7MOL   C406 3778   6.353   0.527   5.119  0.4135 -0.5938 -0.2381
    7MOL   C407 3779   6.391   0.401   5.064  0.9451 -0.4262 -0.6078
    7MOL   O408 3780   6.353   0.205   4.676  0.1406  0.4563 -0.0422
    7MOL   C409 3781   6.510   8.131   4.901  0.5089  0.2047 -0.7441
    7MOL   C410 3782   6.558   8.000   4.904 -0.1765  0.3632 -0.0105
    7MOL   O411 3783   6.674   7.733   4.697  0.0458  0.0600  0.6015
    7MOL   H412 3784   6.643   7.970   4.570 -0.3528  1.9629 -1.9019
    7MOL   H413 3785   6.522   0.030   4.560  1.2635 -1.8804 -1.4395
    7MOL   H414 3786   6.489   0.207   4.958 -0.7590  0.3696  0.6570
    7MOL   H415 3787   6.351   0.443   4.722  0.5817 -0.9974  0.7704
    7MOL   H416 3788   6.259   0.672   4.812  2.4020 -0.0822 -1.4756
    7MOL   H417 3789   6.251   0.733   5.182 -0.5423 -2.7077  0.1137
    7MOL   H418 3790   6.340   0.535   5.226 -1.2222 -1.1218 -0.3732
    7MOL   H419 3791   6.424   0.322   5.131  0.0933 -0.2102  0.0606
    7MOL   H420 3792   6.470   0.025   4.993  1.3648 -1.2244  0.2818
    7MOL   H421 3793   6.546   7.953   5.001 -1.0641  1.1814  0.2910
    7MOL   C422 3794   6.263   0.868   5.027  0.2952  0.5217  0.1917
    7MOL   C423 3795   6.250   0.981   5.126  0.1109 -0.0717 -0.2052
    7MOL   C424 3796   6.316   1.104   5.100 -0.4131 -0.0206  0.4299
    7MOL   C425 3797   6.296   1.219   5.189  0.4283 -0.3311  0.0818
    7MOL   C426 3798   6.214   1.204   5.301  0.5214  0.2825 -0.3463
    7MOL   C427 3799   6.203   1.314   5.400 -0.0918  0.2440  0.5876
    7MOL   N428 3800   6.154   1.271   5.514 -0.2438 -0.7821 -0.1673
    7MOL   C429 3801   6.126   1.341   5.636 -0.4312 -0.2440  0.0680
    7MOL   C430 3802   6.089   1.267   5.746  0.0710 -0.2120 -0.3479
    7MOL   C431 3803   6.040   1.327   5.869 -0.3094 -0.4258  0.3342
    7MOL   C432 3804   6.063   1.463   5.889  0.3369  0.0225  0.6537
    7MOL   N433 3805   6.037   1.511   6.019  0.1212  0.3225  0.4768
    7MOL   C434 3806   6.115   1.542   5.787 -0.5353 -0.3808  0.7639
    7MOL   C435 3807   6.146   1.485   5.657  0.6719 -0.1833 -0.2247
    7MOL   O436 3808   6.251   1.427   5.385  0.7650  0.3442  0.2142
    7MOL   C437 3809   6.145   1.082   5.322 -0.2571 -0.6082 -0.0773
    7MOL   C438 3810   6.166   0.972   5.239  0.1344 -0.0923 -0.3300
    7MOL   O439 3811   6.287   0.894   4.906 -0.1910 -0.4072 -0.5137
    7MOL   H440 3812   6.379   1.107   5.012 -0.8213  1.1533  0.1760
    7MOL   H441 3813   6.350   1.311   5.173  0.0339 -0.0337  0.4494
    7MOL   H442 3814   6.126   1.174   5.515 -0.9317 -0.6036 -1.1968
    7MOL   H443 3815   6.083   1.159   5.747 -3.9458 -0.0536 -0.4631
    7MOL   H444 3816   6.003   1.267   5.951  0.4795 -0.3033  0.7738
    7MOL   H445 3817   5.976   1.445   6.065 -0.9962 -0.7243 -2.4521
    7MOL   H446 3818   6.128   1.648   5.806  2.2022 -0.5472  0.0287
    7MOL   H447 3819   6.190   1.555   5.588  1.4433 -1.5339 -1.1456
    7MOL   H448 3820   6.077   1.062   5.403 -0.6383  0.6956 -0.0687
    7MOL   H449 3821   6.121   0.877   5.264 -1.8224  1.4029  2.1409
    7MOL   C450 3822   6.087   1.613   6.088  0.5727  1.0762 -0.1408
    7MOL   C451 3823   6.037   1.607   6.228 -0.1520  0.6204  0.4874
    7MOL   C452 3824   6.129   1.629   6.338  0.0751  0.4769  0.0240
    7MOL   C453 3825   6.089   1.607   6.472  1.1195 -0.3539 -0.5154
    7MOL   C454 3826   5.953   1.570   6.500 -0.0270  0.3757 -0.6842
    7MOL   C455 3827   5.908   1.542   6.640 -0.2274  0.5845 -0.6327
    7MOL   N456 3828   5.820   1.439   6.648  0.0089  0.0021  0.1882
    7MOL   C457 3829   5.794   1.359   6.760 -0.1776 -0.1857  0.4935
    7MOL   C458 3830   5.710   1.412   6.860  0.2377 -0.9893 -0.2172
    7MOL   C459 3831   5.662   1.337   6.969  0.0561  0.4850 -0.4598
    7MOL   C460 3832   5.698   1.200   6.971 -0.3390  0.2805 -0.3921
    7MOL   N461 3833   5.642   1.100   7.063 -0.4476  0.5145 -0.1884
    7MOL   C462 3834   5.771   1.147   6.868  0.1837  0.4966  0.4093
    7MOL   C463 3835   5.823   1.223   6.763  0.1870 -0.2144 -0.4991
    7MOL   O464 3836   5.959   1.591   6.736  0.3557 -0.2537  0.0064
    7MOL   C465 3837   5.864   1.554   6.393  0.9364 -0.7031  0.6683
    7MOL   C466 3838   5.906   1.568   6.263 -0.6024  0.4137  0.2433
    7MOL   O467 3839   6.167   1.696   6.053 -0.0972  0.4343 -0.2013
    7MOL   H468 3840   6.226   1.668   6.314  1.1795 -1.6069  1.0055
    7MOL   H469 3841   6.147   1.633   6.559 -0.4360 -0.6203  0.6136
    7MOL   H470 3842   5.794   1.393   6.562 -1.7755 -1.5363  1.5175
    7MOL   H471 3843   5.681   1.516   6.847  1.2791 -0.5926  0.5706
    7MOL   H472 3844   5.596   1.373   7.047  0.7592 -3.2672  2.0164
    7MOL   H473 3845   5.649   1.007   7.024  1.0442  1.2502 -1.7683
    7MOL   H474 3846   5.789   1.040   6.858  2.4681  0.6613  2.3015
    7MOL   H475 3847   5.880   1.171   6.686  1.7086 -0.4391  0.7605
    7MOL   H476 3848   5.761   1.521   6.401  0.2011  1.6363  1.0025
    7MOL   H477 3849   5.834   1.552   6.185 -0.0131 -1.9759  0.1703
    7MOL   C478 3850   5.571   1.114   7.170 -1.0347 -0.1642 -0.2095
    7MOL   C479 3851   5.534   0.980   7.230 -0.2461  0.2547 -0.1851
    7MOL   C480 3852   5.416   0.955   7.298 -0.2778 -0.4777 -0.8453
    7MOL   C481 3853   5.382   0.834   7.358 -0.4187 -0.0958 -0.8329
    7MOL   C482 3854   5.473   0.731   7.356 -0.2166 -0.5515  0.6667
    7MOL   C483 3855   5.430   0.596   7.409 -0.1140  0.4215 -0.0919
    7MOL   N484 3856   5.505   0.491   7.354  0.3292 -0.7359 -0.4846
    7MOL   C485 3857   5.467   0.360   7.337  0.8962  0.0963  0.7901
    7MOL   C486 3858   5.556   0.288   7.257  0.5222  0.6785 -0.7395
    7MOL   C487 3859   5.534   0.151   7.223 -0.5521  0.2363  0.1757
    7MOL   C488 3860   5.422   0.085   7.262  0.1570 -0.5085  0.2854
    7MOL   N489 3861   5.403   8.100   7.224 -0.3845  0.1766 -0.5327
    7MOL   C490 3862   5.330   0.155   7.348 -0.3497 -0.0029 -0.5535
    7MOL   C491 3863   5.354   0.290   7.383  0.0198 -0.2094  0.3013
    7MOL   O492 3864   5.334   0.582   7.487  0.5331  0.3763  0.2190
    7MOL   C493 3865   5.600   0.754   7.298 -0.4222 -0.6064 -0.0195
    7MOL   C494 3866   5.632   0.877   7.236 -0.2292 -0.5251  1.0155
    7MOL   O495 3867   5.551   1.221   7.228 -0.1884 -0.0133 -0.0297
    7MOL   H496 3868   5.343   1.035   7.306 -0.6384 -0.9354  0.3803
    7MOL   H497 3869   5.286   0.836   7.407 -0.6521  1.6616 -1.3345
    7MOL   H498 3870   5.586   0.526   7.305  1.3922 -0.2589  1.5405
    7MOL   H499 3871   5.650   0.326   7.221  0.6597 -1.0265 -2.2299
    7MOL   H500 3872   5.603   0.102   7.155  0.5164  2.1337 -0.1702
    7MOL   H501 3873   5.484   8.046   7.198 -2.2836 -2.3185 -1.4848
    7MOL   H502 3874   5.240   0.103   7.377 -0.5382 -0.2962 -1.6379
    7MOL   H503 3875   5.282   0.350   7.436  2.4529  2.5672  0.5385
    7MOL   H504 3876   5.678   0.681   7.313 -0.2699 -0.2905  0.7639
    7MOL   H505 3877   5.727   0.885   7.185 -0.6021  0.8053  0.4998
    7MOL   C506 3878   5.288   8.036   7.198  0.4012  0.0724 -0.1000
    7MOL   C507 3879   5.309   7.888   7.160 -0.2560  0.0228  0.1290
    7MOL   C508 3880   5.221   7.820   7.077  0.4613 -0.0153  0.1127
    7MOL   C509 3881   5.238   7.683   7.051  0.2998 -0.3008  0.5022
    7MOL   C510 3882   5.346   7.609   7.108 -0.0940 -0.3153  0.0930
    7MOL   C511 3883   5.350   7.461   7.082  0.0704  0.1569  0.2224
    7MOL   N512 3884   5.380   7.385   7.192  0.4118  0.2020 -0.0408
    7MOL   C513 3885   5.396   7.436   7.326 -0.6460  0.7356  0.0687
    7MOL   C514 3886   5.519   7.416   7.393  0.0740  0.4080  0.0974
    7MOL   C515 3887   5.535   7.444   7.524 -0.6851 -0.1618 -0.4148
    7MOL   C516 3888   5.429   7.506   7.589  0.2979 -0.6339 -0.4327
    7MOL   N517 3889   5.445   7.549   7.723  0.1914 -0.1178 -0.2235
    7MOL   C518 3890   5.306   7.538   7.521 -0.1944  0.1268 -0.0191
    7MOL   C519 3891   5.288   7.495   7.394  0.0139  0.3213 -0.1716
    7MOL   O520 3892   5.315   7.407   6.978 -0.1437  0.2032 -0.0128
    7MOL   C521 3893   5.440   7.678   7.183 -0.0107 -0.2335  0.3597
    7MOL   C522 3894   5.418   7.813   7.214  0.9623 -0.3314  0.7534
    7MOL   O523 3895   5.183   8.094   7.178  0.4228 -0.1121  0.6123
    7MOL   H524 3896   5.132   7.866   7.039  0.3863 -0.1030  0.1848
    7MOL   H525 3897   5.160   7.635   6.995  0.1122  1.4919 -0.8364
    7MOL   H526 3898   5.400   7.290   7.166  0.3408 -0.0937  0.9617
    7MOL   H527 3899   5.607   7.369   7.351  0.9577 -1.2548  3.6237
    7MOL   H528 3900   5.619   7.421   7.587 -0.5545  0.1672 -0.4704
    7MOL   H529 3901   5.359   7.556   7.776 -0.4474  0.8178 -1.3543
    7MOL   H530 3902   5.229   7.597   7.568 -1.3557 -2.9513  2.1381
    7MOL   H531 3903   5.197   7.513   7.340 -0.2259  1.5123  0.6191
    7MOL   H532 3904   5.527   7.629   7.224 -0.1051 -1.6469 -1.0544
    7MOL   H533 3905   5.492   7.856   7.279  1.1894 -0.5278  0.6266
    7MOL   C534 3906   5.553   7.600   7.785  0.8534  0.0814  0.3044
    7MOL   C535 3907   5.527   7.648   7.924 -0.2197 -0.6050 -0.1559
    7MOL   C536 3908   5.401   7.645   7.974  0.9280 -0.0398  0.0326
    7MOL   C537 3909   5.371   7.700   8.102  0.3289  0.4359 -0.0773
    7MOL   C538 3910   5.474   7.755   0.040 -0.3360  0.0258 -0.0740
    7MOL   C539 3911   5.451   7.798   0.179  0.3642 -0.0366  0.2573
    7MOL   N540 3912   5.358   7.889   0.186 -0.5173  0.0468  0.6482
    7MOL   C541 3913   5.313   7.979   0.289  0.0989  0.6626 -0.2527
    7MOL   C542 3914   5.366   7.975   0.420 -0.6459  0.0546 -0.5038
    7MOL   C543 3915   5.321   8.078   0.508  0.2487 -0.0512 -0.2819
    7MOL   C544 3916   5.245   0.041   0.458  0.6082 -0.0462  0.1381
    7MOL   N545 3917   5.206   0.148   0.543 -0.1609 -0.0511 -0.4337
    7MOL   C546 3918   5.192   0.035   0.327 -0.2333  0.4916  0.7387
    7MOL   C547 3919   5.218   8.073   0.245  0.6209 -0.1653 -0.0726
    7MOL   O548 3920   5.517   7.748   0.267  0.0456  0.0029 -0.8151
    7MOL   C549 3921   5.603   7.735   8.140  0.4119  0.4670 -0.0002
    7MOL   C550 3922   5.631   7.682   8.011 -0.4075 -0.1201  0.1318
    7MOL   O551 3923   5.664   7.596   7.737  0.0401  1.0146 -0.0426
    7MOL   H552 3924   5.314   7.616   7.917 -0.1023 -0.0524  1.5617
    7MOL   H553 3925   5.265   7.699   8.125  0.0056  0.5667 -1.4589
    7MOL   H554 3926   5.300   7.895   0.103  0.5804 -0.7926 -0.1899
    7MOL   H555 3927   5.448   7.909   0.443  0.5277  1.5719 -0.2661
    7MOL   H556 3928   5.361   8.083   0.608  0.3297 -1.4745 -0.2366
    7MOL   H557 3929   5.146   0.223   0.512 -0.0716 -0.2578 -1.1095
    7MOL   H558 3930   5.134   0.119   0.292 -2.0691 -0.6982  0.8539
    7MOL   H559 3931   5.198   8.077   0.139 -1.4345 -0.9545  0.2725
    7MOL   H560 3932   5.681   7.752   0.067 -0.7087 -1.0427  1.6005
    7MOL   H561 3933   5.735   7.673   7.981  0.2629 -0.0341  2.3523
    7MOL   H562 3934   5.249   0.165   0.633 -0.8934 -1.4778  0.1991
    8MOL     C1 3935   5.012   6.376   5.483 -0.2966 -0.0401  0.0852
    8MOL     C2 3936   5.092   6.348   5.604 -0.7939 -0.7106 -0.0532
    8MOL     C3 3937   5.039   6.350   5.734  0.1762  0.0792 -0.0586
    8MOL     C4 3938   5.120   6.325   5.843  0.2864  0.0216 -0.5457
    8MOL     C5 3939   5.256   6.283   5.828  0.2891  0.1401  0.2277
    8MOL     C6 3940   5.346   6.264   5.951  0.0525  0.0764 -0.2261
    8MOL     N7 3941   5.301   6.187   6.049 -0.1136  0.0158  0.0397
    8MOL     C8 3942   5.361   6.143   6.173  0.3727 -1.2237  0.1902
    8MOL     C9 3943   5.482   6.071   6.168 -0.8184  0.0453 -0.0525
    8MOL    C10 3944   5.522   6.007   6.286 -0.1640  0.9512  0.6979
    8MOL    C11 3945   5.444   6.017   6.406  0.4091 -0.1757  0.5493
    8MOL    N12 3946   5.483   5.935   6.520 -0.4804 -0.8806 -0.4687
    8MOL    C13 3947   5.322   6.085   6.405  0.0970  0.3733  0.1615
    8MOL    C14 3948   5.282   6.151   6.289  0.2435  0.5882  0.1863
    8MOL    O15 3949   5.463   6.303   5.955  0.2455  0.2277 -0.2902
    8MOL    C16 3950   5.309   6.282   5.698  0.2034 -0.0459 -0.0992
    8MOL    C17 3951   5.229   6.311   5.589 -0.5731  0.0835  0.3614
    8MOL    O18 3952   5.070   6.411   5.383 -0.2289  0.1156  0.1126
    8MOL    H19 3953   4.933   6.366   5.750  0.1184  1.3376 -1.5380
    8MOL    H20 3954   5.083   6.328   5.944  1.0571  2.6310 -0.2856
    8MOL    H21 3955   5.201   6.173   6.046 -0.0878 -0.2066  0.1902
    8MOL    H22 3956   5.547   6.081   6.083  3.1964 -0.4801  2.8001
    8MOL    H23 3957   5.613   5.950   6.293  0.1454  1.5933  2.1121
    8MOL    H24 3958   5.498   5.837   6.502  0.4633 -0.3512 -2.7418
    8MOL    H25 3959   5.260   6.093   6.493  0.6795 -0.7154  0.6788
    8MOL    H26 3960   5.179   6.181   6.277  0.3188  0.9691  0.4563
    8MOL    H27 3961   5.415   6.272   5.679  0.0189 -1.2662 -0.5190
    8MOL    H28 3962   5.267   6.296   5.490  0.3365  0.8847  0.5863
    8MOL    H29 3963   4.905   6.356   5.486 -0.1323 -1.3905 -1.7522
    8MOL    C30 3964   5.505   5.991   6.642  0.1442  0.5711  0.1759
    8MOL    C31 3965   5.543   5.883   6.750  0.4237 -0.6252  0.6363
    8MOL    C32 3966   5.494   5.883   6.882  0.0081 -0.6350  0.5908
    8MOL    C33 3967   5.504   5.771   6.970 -0.2898 -0.8628 -0.7700
    8MOL    C34 3968   5.575   5.652   6.923  0.5575 -0.4778 -0.0502
    8MOL    C35 3969   5.583   5.534   7.013  0.6963  0.0331 -0.3487
    8MOL    N36 3970   5.550   5.416   6.949 -0.2954  0.2096  0.5054
    8MOL    C37 3971   5.497   5.394   6.822  0.0525 -0.1639  0.3447
    8MOL    C38 3972   5.572   5.318   6.729 -0.8830  0.3114  0.3838
    8MOL    C39 3973   5.533   5.294   6.597  0.4953 -0.6445  0.2752
    8MOL    C40 3974   5.419   5.366   6.556  0.2237 -0.0061  0.1174
    8MOL    N41 3975   5.366   5.365   6.426  0.3420 -1.3561  0.0957
    8MOL    C42 3976   5.348   5.449   6.653 -0.1745 -0.0342  0.5120
    8MOL    C43 3977   5.383   5.457   6.788 -0.9791 -0.0242 -1.0826
    8MOL    O44 3978   5.590   5.546   7.136  0.4072 -0.3853  0.0619
    8MOL    C45 3979   5.637   5.658   6.797 -0.3156 -0.3757  0.3165
    8MOL    C46 3980   5.613   5.767   6.710  0.2784 -0.6344  0.2658
    8MOL    O47 3981   5.490   6.110   6.674 -0.4157  0.0104  0.3479
    8MOL    H48 3982   5.440   5.973   6.905 -0.0763 -0.6033  0.2603
    8MOL    H49 3983   5.460   5.776   7.068  1.4872  0.1683  0.0044
    8MOL    H50 3984   5.555   5.333   7.006 -1.8482  1.1122  1.9981
    8MOL    H51 3985   5.660   5.267   6.766 -1.6725 -1.5595 -0.2604
    8MOL    H52 3986   5.592   5.232   6.531  0.0412 -0.6431 -0.1380
    8MOL    H53 3987   5.330   5.455   6.400  1.1308 -1.0781 -0.0704
    8MOL    H54 3988   5.260   5.502   6.621 -0.2883  0.7087  2.0064
    8MOL    H55 3989   5.326   5.516   6.859  1.6681 -0.4023  1.4347
    8MOL    H56 3990   5.692   5.576   6.754 -1.1575 -0.7570 -0.0575
    8MOL    H57 3991   5.650   5.774   6.609  0.7835  1.7435  0.5835
    8MOL    C58 3992   5.378   5.279   6.328  0.2357  0.1204  0.0238
    8MOL    C59 3993   5.332   5.330   6.194 -0.1928 -0.4792  0.1264
    8MOL    C60 3994   5.214   5.414   6.186 -0.1730  1.3847 -0.4659
    8MOL    C61 3995   5.176   5.462   6.061  0.3312  0.2457  0.2743
    8MOL    C62 3996   5.247   5.419   5.943  0.1316  0.4650  0.4841
    8MOL    C63 3997   5.207   5.478   5.815  0.3913  0.2508 -0.1047
    8MOL    N64 3998   5.177   5.391   5.716  0.0325 -0.0210 -0.3568
    8MOL    C65 3999   5.094   5.427   5.610  0.1911 -0.1374 -0.5014
    8MOL    C66 4000   4.989   5.344   5.563 -0.2382 -0.3886 -0.0162
    8MOL    C67 4001   4.906   5.389   5.464  0.1098 -0.5291 -0.2763
    8MOL    C68 4002   4.927   5.507   5.389  0.1225 -0.0702 -0.3113
    8MOL    N69 4003   4.828   5.552   5.300 -0.8275 -0.2939 -0.1723
    8MOL    C70 4004   5.047   5.577   5.415 -0.7411  0.0214 -0.5065
    8MOL    C71 4005   5.122   5.542   5.530  0.1350 -0.0753  0.1500
    8MOL    O72 4006   5.194   5.601   5.809  0.0687 -0.5068 -0.6247
    8MOL    C73 4007   5.363   5.332   5.946  0.2596 -0.6640  0.1720
    8MOL    C74 4008   5.394   5.284   6.075 -0.3858  0.0273  0.1749
    8MOL    O75 4009   5.433   5.170   6.342 -0.0822 -0.1013  0.5001
    8MOL    H76 4010   5.153   5.421   6.275  0.8273 -0.4686  0.3767
    8MOL    H77 4011   5.088   5.522   6.043  0.2194 -0.1282 -0.4568
    8MOL    H78 4012   5.167   5.295   5.747 -0.5769  0.3127  0.5157
    8MOL    H79 4013   4.960   5.251   5.608 -1.8718  0.0634 -0.1182
    8MOL    H80 4014   4.813   5.335   5.454  0.5013 -1.4914  1.1387
    8MOL    H81 4015   4.762   5.480   5.274 -0.9994 -0.4653  0.7307
    8MOL    H82 4016   5.074   5.664   5.357 -3.0895  0.7910 -0.4944
    8MOL    H83 4017   5.204   5.609   5.551  0.2312 -0.2196  0.2354
    8MOL    H84 4018   5.393   5.307   5.846 -3.1535  2.4482 -1.7324
    8MOL    H85 4019   5.470   5.208   6.087  0.8171  1.2378  0.3466
    8MOL    C86 4020   4.798   5.682   5.255  0.8633 -0.1184 -0.2479
    8MOL    C87 4021   4.678   5.697   5.160 -0.0783 -0.3377 -0.2996
    8MOL    C88 4022   4.651   5.828   5.109  0.0927 -0.1444 -0.3124
    8MOL    C89 4023   4.534   5.855   5.050  0.1078 -0.2598  0.2486
    8MOL    C90 4024   4.440   5.755   5.018 -0.0664 -0.0452 -0.5747
    8MOL    C91 4025   4.311   5.788   4.949  0.1677  0.3205  0.0574
    8MOL    N92 4026   4.257   5.686   4.879  0.2923 -0.4244 -0.6916
    8MOL    C93 4027   4.132   5.680   4.810  0.1242 -0.8884 -0.3511
    8MOL    C94 4028   4.077   5.778   4.726  0.2187  0.1288  0.9732
    8MOL    C95 4029   3.952   5.762   4.663 -0.1497 -0.0359  0.3650
    8MOL    C96 4030   3.880   5.638   4.678 -0.7743  0.2823  0.1109
    8MOL    N97 4031   3.756   5.631   4.612  0.3780  0.0807  0.9573
    8MOL    C98 4032   3.934   5.539   4.762  0.0219 -0.2189 -0.3447
    8MOL    C99 4033   4.057   5.565   4.829 -0.4114  0.0175  0.2116
    8MOL   O100 4034   4.263   5.902   4.954  0.5297 -0.2944  0.4455
    8MOL   C101 4035   4.471   5.617   5.056  0.1326 -0.5982 -0.0875
    8MOL   C102 4036   4.593   5.593   5.127  0.4391 -0.4155  0.0743
    8MOL   O103 4037   4.852   5.784   5.293 -0.1586 -0.1376  0.4598
    8MOL   H104 4038   4.717   5.913   5.119  1.7229 -1.5874  1.9403
    8MOL   H105 4039   4.519   5.955   5.012 -1.0153  0.5231  2.6321
    8MOL   H106 4040   4.303   5.599   4.902 -0.4329 -0.6086  0.0791
    8MOL   H107 4041   4.129   5.871   4.710  0.6541 -0.3018 -0.1252
    8MOL   H108 4042   3.910   5.843   4.605  1.5169 -0.9391 -2.1872
    8MOL   H109 4043   3.732   5.703   4.547  0.4381 -0.5953  0.1835
    8MOL   H110 4044   3.884   5.444   4.777  1.0411 -0.8757 -1.0077
    8MOL   H111 4045   4.095   5.480   4.884  0.4879 -0.0694 -0.5272
    8MOL   H112 4046   4.412   5.535   5.017  0.8763 -1.6084  0.8886
    8MOL   H113 4047   4.622   5.492   5.154  1.6346 -1.0897 -3.4117
    8MOL   C114 4048   3.662   5.530   4.616  0.0608  0.6579  0.2287
    8MOL   C115 4049   3.547   5.554   4.523  0.5738 -0.3379 -0.1075
    8MOL   C116 4050   3.557   5.643   4.416  0.7423 -0.0868 -0.7337
    8MOL   C117 4051   3.443   5.656   4.329  0.1133 -0.2334 -0.1708
    8MOL   C118 4052   3.319   5.591   4.361  0.1026  0.2327  0.6410
    8MOL   C119 4053   3.198   5.616   4.278  0.4777  0.4358 -0.3392
    8MOL   N120 4054   3.116   5.512   4.261 -0.3808 -0.1683  0.1028
    8MOL   C121 4055   2.994   5.515   4.188  0.0909 -0.6969 -0.2359
    8MOL   C122 4056   2.903   5.413   4.213 -0.0061 -0.1739  0.2747
    8MOL   C123 4057   2.774   5.408   4.150 -0.4145  0.6863  0.6075
    8MOL   C124 4058   2.749   5.497   4.041 -0.4097 -0.3870  0.2506
    8MOL   N125 4059   2.637   5.495   3.960  0.6114  0.0887  1.1600
    8MOL   C126 4060   2.850   5.587   3.998  1.0241 -1.1248  0.3389
    8MOL   C127 4061   2.962   5.604   4.080  0.4360  0.1643  0.2013
    8MOL   O128 4062   3.184   5.728   4.230  0.1238 -0.7383 -0.4882
    8MOL   C129 4063   3.323   5.497   4.471 -0.6780 -0.1503 -0.0260
    8MOL   C130 4064   3.426   5.486   4.559  0.2752  0.0551  0.2401
    8MOL   O131 4065   3.659   5.435   4.692 -0.6277  0.2642 -0.2771
    8MOL   H132 4066   3.645   5.694   4.381  1.2684  1.2424  2.4214
    8MOL   H133 4067   3.445   5.726   4.246  1.0478 -0.3027 -0.2125
    8MOL   H134 4068   3.142   5.423   4.301 -0.3446 -0.1388  0.1456
    8MOL   H135 4069   2.920   5.347   4.296  1.7893  1.8949  1.5938
    8MOL   H136 4070   2.702   5.334   4.182 -0.1106 -0.0284 -0.3422
    8MOL   H137 4071   2.619   5.571   3.896  0.3185 -0.4542  0.5899
    8MOL   H138 4072   2.827   5.642   3.909  2.6548 -0.8614  0.0638
    8MOL   H139 4073   3.016   5.697   4.068  1.0551 -0.1004  0.9111
    8MOL   H140 4074   3.228   5.454   4.499  0.0845 -1.6313  0.3175
    8MOL   H141 4075   3.414   5.416   4.640 -1.4786  1.0338  0.8518
    8MOL   C142 4076   2.547   5.396   3.943  0.4983  0.2379  0.4385
    8MOL   C143 4077   2.434   5.431   3.847  0.2079 -0.0377  0.0850
    8MOL   C144 4078   2.385   5.563   3.840  0.4745 -0.1618 -0.6153
    8MOL   C145 4079   2.300   5.601   3.734  0.5040  0.6647  0.2797
    8MOL   C146 4080   2.247   5.505   3.646  0.5656 -0.2188  0.0897
    8MOL   C147 4081   2.146   5.556   3.545 -0.8158  0.0126  0.4173
    8MOL   N148 4082   2.134   5.490   3.426  0.3443 -0.3926  0.2299
    8MOL   C149 4083   2.033   5.512   3.324 -0.6431  0.4994 -0.6545
    8MOL   C150 4084   2.081   5.528   3.190  0.2593  0.4007  0.6661
    8MOL   C151 4085   1.985   5.548   3.089 -0.4443 -0.0177  0.0577
    8MOL   C152 4086   1.849   5.556   3.120  0.1469  0.7675 -0.6205
    8MOL   N153 4087   1.755   5.592   3.024 -0.0286  0.5409 -0.1693
    8MOL   C154 4088   1.804   5.531   3.249  0.1641  0.0361 -0.2026
    8MOL   C155 4089   1.894   5.507   3.353  0.0080 -0.0313  0.2041
    8MOL   O156 4090   2.079   5.659   3.578  0.1306 -0.3088  0.4435
    8MOL   C157 4091   2.296   5.373   3.652  0.1228  0.1078 -0.4798
    8MOL   C158 4092   2.390   5.335   3.751  0.5792  0.5731  0.0010
    8MOL   O159 4093   2.567   5.280   3.974  0.2798 -0.3172  0.3900
    8MOL   H160 4094   2.417   5.645   3.903  0.2369  0.8059 -1.7408
    8MOL   H161 4095   2.275   5.705   3.726 -0.0727  0.3945 -1.8820
    8MOL   H162 4096   2.215   5.439   3.393 -0.7248 -2.5584  0.8675
    8MOL   H163 4097   2.184   5.524   3.161  0.3865 -2.3552  1.2794
    8MOL   H164 4098   2.008   5.570   2.986 -0.7915 -0.5648 -0.1385
    8MOL   H165 4099   1.686   5.665   3.030 -0.3276  0.5589 -3.1712
    8MOL   H166 4100   1.699   5.545   3.269 -0.1087  1.0058 -2.2547
    8MOL   H167 4101   1.857   5.493   3.454  0.3202 -1.3412  0.1509
    8MOL   H168 4102   2.254   5.296   3.589  2.0416 -2.6476  1.4690
    8MOL   H169 4103   2.414   5.230   3.753 -1.1754  0.1366 -0.5681
    8MOL   C170 4104   1.728   5.523   2.914 -0.2413  0.0493 -0.6811
    8MOL   C171 4105   1.623   5.577   2.822  0.0215  0.1456  0.3751
    8MOL   C172 4106   1.630   5.550   2.680  0.0183  0.3523 -0.2195
    8MOL   C173 4107   1.565   5.635   2.587  0.0139 -0.0645  0.8734
    8MOL   C174 4108   1.475   5.733   2.639  0.0807 -0.0703 -0.2694
    8MOL   C175 4109   1.402   5.824   2.547 -0.0037  1.2825 -1.4586
    8MOL   N176 4110   1.437   5.954   2.535 -0.5277  0.9614 -0.0466
    8MOL   C177 4111   1.537   6.036   2.588 -0.2185  0.1843 -0.3989
    8MOL   C178 4112   1.657   5.988   2.637 -0.0021 -0.2020  0.7764
    8MOL   C179 4113   1.749   6.077   2.695 -0.2106 -0.1213 -0.1963
    8MOL   C180 4114   1.721   6.215   2.707 -0.6348 -0.0450 -0.1349
    8MOL   N181 4115   1.817   6.299   2.769 -0.0575 -0.2738  0.0981
    8MOL   C182 4116   1.597   6.261   2.650 -0.3686 -0.8640 -0.3833
    8MOL   C183 4117   1.506   6.172   2.582 -0.4547  0.2541 -0.4522
    8MOL   O184 4118   1.307   5.788   2.476  0.1955 -0.5008 -0.0030
    8MOL   C185 4119   1.453   5.747   2.773 -0.2912 -0.4396 -0.3969
    8MOL   C186 4120   1.517   5.664   2.865 -0.5082  0.6144  0.7080
    8MOL   O187 4121   1.790   5.421   2.879  0.2475  0.2739  0.1434
    8MOL   H188 4122   1.702   5.490   2.626 -0.1548 -1.6627  1.7258
    8MOL   H189 4123   1.579   5.638   2.480  1.2552  0.0100  1.0373
    8MOL   H190 4124   1.372   6.007   2.478 -1.6908 -0.8918 -0.4823
    8MOL   H191 4125   1.681   5.882   2.634  1.0419  0.0680 -2.4680
    8MOL   H192 4126   1.848   6.049   2.727 -0.4032 -1.0706 -0.4307
    8MOL   H193 4127   1.911   6.269   2.789 -0.5343 -3.0552 -1.5828
    8MOL   H194 4128   1.571   6.365   2.658  1.8939 -0.3154  0.4646
    8MOL   H195 4129   1.415   6.212   2.541 -0.0898  0.2103 -1.3287
    8MOL   H196 4130   1.394   5.825   2.818  2.7620  1.0465  1.1913
    8MOL   H197 4131   1.509   5.693   2.969  2.0176  0.2798  1.0295
    8MOL   C198 4132   1.807   6.431   2.790  0.3557 -0.3541 -0.3768
    8MOL   C199 4133   1.935   6.492   2.831 -0.3442 -0.2176 -0.3275
    8MOL   C200 4134   1.969   6.617   2.779  0.1545 -0.2579  0.4234
    8MOL   C201 4135   2.075   6.692   2.831 -0.2896 -0.3859  0.2075
    8MOL   C202 4136   2.158   6.649   2.936  0.6475 -0.4011  0.2152
    8MOL   C203 4137   2.256   6.745   2.997 -0.3795 -0.4795  0.0301
    8MOL   N204 4138   2.355   6.692   3.077  0.1700  0.2094  0.4729
    8MOL   C205 4139   2.446   6.764   3.160  0.4113 -0.7559  0.4063
    8MOL   C206 4140   2.550   6.690   3.217  0.3177  0.3765  0.5434
    8MOL   C207 4141   2.646   6.755   3.299 -0.9654 -0.2114 -0.3355
    8MOL   C208 4142   2.648   6.892   3.319  0.9489  0.4092 -0.2628
    8MOL   N209 4143   2.737   6.955   3.406 -0.4307 -0.0778  0.5114
    8MOL   C210 4144   2.545   6.973   3.253 -0.5617 -0.1995  0.0722
    8MOL   C211 4145   2.440   6.906   3.180  0.0928  0.8140  0.3273
    8MOL   O212 4146   2.244   6.866   2.967 -0.0857 -0.1792 -0.5475
    8MOL   C213 4147   2.123   6.523   2.998  0.7737 -0.4488  0.3217
    8MOL   C214 4148   2.008   6.454   2.945 -1.3876  0.5776  0.5695
    8MOL   O215 4149   1.706   6.502   2.774 -0.2225  0.1753  0.0013
    8MOL   H216 4150   1.911   6.658   2.698 -0.5787 -0.9528  0.5946
    8MOL   H217 4151   2.097   6.793   2.800  0.3227 -0.5164  0.1971
    8MOL   H218 4152   2.364   6.592   3.077 -2.3698 -0.0526  0.8498
    8MOL   H219 4153   2.557   6.586   3.187 -2.0670  0.7017 -1.3692
    8MOL   H220 4154   2.722   6.696   3.347  0.0477  0.8876 -0.5548
    8MOL   H221 4155   2.756   7.049   3.375 -0.7817  0.6364  2.4202
    8MOL   H222 4156   2.550   7.078   3.274 -2.2076 -0.5309  2.2647
    8MOL   H223 4157   2.358   6.965   3.142  0.4647  2.2923  1.7872
    8MOL   H224 4158   2.176   6.489   3.085 -2.2654 -3.4247  1.1357
    8MOL   H225 4159   1.972   6.374   3.008  0.3860 -0.5842  0.1433
    8MOL   C226 4160   2.789   6.914   3.523 -0.4649 -0.4458 -0.2554
    8MOL   C227 4161   2.881   6.995   3.604  0.0774 -0.9993 -0.0090
    8MOL   C228 4162   2.900   6.967   3.742 -0.5889  0.5654  0.0310
    8MOL   C229 4163   2.982   7.047   3.822  0.7821 -0.4354  0.0640
    8MOL   C230 4164   3.050   7.156   3.765  0.0603  0.8520 -1.1563
    8MOL   C231 4165   3.131   7.250   3.852 -0.5070  0.3083 -0.4271
    8MOL   N232 4166   3.180   7.194   3.963 -0.0225 -0.5199  0.1137
    8MOL   C233 4167   3.253   7.262   4.054  0.0271 -0.4886  0.0144
    8MOL   C234 4168   3.222   7.259   4.185 -0.7870  0.6462 -0.2586
    8MOL   C235 4169   3.298   7.322   4.285  0.7549  0.1508 -0.3154
    8MOL   C236 4170   3.423   7.378   4.246 -0.8488 -0.3574 -0.3592
    8MOL   N237 4171   3.507   7.433   4.350 -0.4638  0.2124 -0.1410
    8MOL   C238 4172   3.466   7.368   4.112 -0.1655  0.2008  0.6567
    8MOL   C239 4173   3.375   7.313   4.018 -0.7783 -0.6251 -0.1045
    8MOL   O240 4174   3.149   7.368   3.819 -0.1671  0.1867  0.2835
    8MOL   C241 4175   3.049   7.170   3.629  0.1646  0.2524  0.0530
    8MOL   C242 4176   2.959   7.097   3.547 -0.1630 -0.1443  0.0890
    8MOL   O243 4177   2.757   6.802   3.568  0.5329  0.0236  0.0069
    8MOL   H244 4178   2.847   6.883   3.784 -0.1966 -0.0607 -0.7029
    8MOL   H245 4179   2.981   7.038   3.929 -0.7111 -1.3919 -0.0164
    8MOL   H246 4180   3.165   7.094   3.970 -1.4442 -0.2869  0.5061
    8MOL   H247 4181   3.124   7.222   4.211 -0.5397  1.4693  1.9589
    8MOL   H248 4182   3.269   7.331   4.388  0.8744 -0.0654 -0.2630
    8MOL   H249 4183   3.461   7.476   4.429 -1.9335 -3.5310  1.1993
    8MOL   H250 4184   3.563   7.402   4.080 -0.0510 -2.0806 -1.5347
    8MOL   H251 4185   3.417   7.300   3.919 -1.6373  2.6753 -0.9807
    8MOL   H252 4186   3.117   7.241   3.584  1.4563  0.1380  1.7520
    8MOL   H253 4187   2.948   7.116   3.442 -0.2257  2.6140  0.5678
    8MOL   C254 4188   3.642   7.425   4.367 -0.1966 -0.0964  0.0245
    8MOL   C255 4189   3.692   7.487   4.498  0.3663  0.5251  0.5498
    8MOL   C256 4190   3.613   7.516   4.607  0.7510  0.0659 -0.0490
    8MOL   C257 4191   3.663   7.573   4.726 -0.0411 -0.2987  0.4397
    8MOL   C258 4192   3.802   7.612   4.733  0.2348  0.2085 -0.1345
    8MOL   C259 4193   3.852   7.681   4.852 -0.4392 -0.5200 -0.2078
    8MOL   N260 4194   3.973   7.646   4.886 -0.1424 -0.4110 -0.2990
    8MOL   C261 4195   4.050   7.665   5.006  0.4435 -0.4863  0.0497
    8MOL   C262 4196   4.138   7.566   5.042  0.2227 -0.6093  0.4565
    8MOL   C263 4197   4.220   7.580   5.153 -0.0940  0.0347  0.1186
    8MOL   C264 4198   4.205   7.695   5.239  0.3085 -0.0824  0.1106
    8MOL   N265 4199   4.282   7.713   5.354  0.0828  0.0111 -0.1580
    8MOL   C266 4200   4.111   7.797   5.205 -0.3955  0.2151 -0.5035
    8MOL   C267 4201   4.038   7.781   5.087  0.1858 -0.5322  0.2669
    8MOL   O268 4202   3.781   7.757   4.920  0.6645  0.1363  0.6057
    8MOL   C269 4203   3.880   7.591   4.619  0.2502  0.0176 -0.5506
    8MOL   C270 4204   3.828   7.519   4.511  0.5208  0.2313 -0.3089
    8MOL   O271 4205   3.718   7.352   4.303  0.4682  0.0704  0.3942
    8MOL   H272 4206   3.507   7.492   4.607  1.2695 -2.3789  0.1270
    8MOL   H273 4207   3.594   7.601   4.805 -1.8460 -1.0281 -0.8572
    8MOL   H274 4208   4.015   7.587   4.816 -1.3946 -0.7692 -0.7644
    8MOL   H275 4209   4.143   7.480   4.977 -0.1424 -0.3246  0.0483
    8MOL   H276 4210   4.277   7.497   5.191  0.0264 -0.4162 -1.0253
    8MOL   H277 4211   4.234   7.763   5.428 -0.8639  1.9268 -2.0006
    8MOL   H278 4212   4.094   7.887   5.262 -2.0024  2.3247 -4.1770
    8MOL   H279 4213   3.970   7.856   5.049 -0.7818 -0.2417  2.4932
    8MOL   H280 4214   3.985   7.614   4.609 -0.5457  3.4943 -1.7496
    8MOL   H281 4215   3.891   7.499   4.425  0.3117  0.9325 -0.6293
    8MOL   C282 4216   4.415   7.677   5.369 -0.0483 -0.3306  0.1831
    8MOL   C283 4217   4.473   7.693   5.499 -0.5954 -0.6417  0.7374
    8MOL   C284 4218   4.449   7.811   5.573 -0.1532  0.0338 -0.4665
    8MOL   C285 4219   4.502   7.821   5.703  0.4371  0.1175 -0.4630
    8MOL   C286 4220   4.574   7.710   5.759  0.3382 -0.1378 -0.1144
    8MOL   C287 4221   4.605   7.710   5.912 -0.0928  0.4390 -0.6306
    8MOL   N288 4222   4.603   7.829   5.972  0.2004  0.2551 -0.2583
    8MOL   C289 4223   4.639   7.860   6.102 -0.3306 -0.7174  0.4592
    8MOL   C290 4224   4.691   7.991   6.124  0.5295  0.8401 -0.7103
    8MOL   C291 4225   4.751   8.027   6.248  1.2644 -0.2359 -0.3450
    8MOL   C292 4226   4.752   7.930   6.357  0.2693 -0.0553 -0.0868
    8MOL   N293 4227   4.817   7.975   6.475 -0.3653  0.0442 -0.2951
    8MOL   C294 4228   4.680   7.807   6.335  0.0253  0.4017  0.4665
    8MOL   C295 4229   4.628   7.774   6.208 -0.4406 -0.5691  0.1392
    8MOL   O296 4230   4.648   7.605   5.971  0.0772 -0.3327 -0.3496
    8MOL   C297 4231   4.601   7.594   5.682  1.1561 -0.1123  0.1425
    8MOL   C298 4232   4.550   7.591   5.551  0.2323  0.2767  0.2459
    8MOL   O299 4233   4.494   7.644   5.276  0.3237 -0.4526 -0.2627
    8MOL   H300 4234   4.414   7.896   5.516  2.7602  1.6647  0.0544
    8MOL   H301 4235   4.470   7.910   5.754  0.3251  1.5860 -2.9833
    8MOL   H302 4236   4.589   7.903   5.905 -1.1953 -1.0387 -1.4378
    8MOL   H303 4237   4.708   8.070   6.054  2.7284  1.4579  0.4807
    8MOL   H304 4238   4.778   8.131   6.263  0.8578 -0.1679 -0.0518
    8MOL   H305 4239   4.853   8.068   6.464 -1.1020  0.2092 -1.5300
    8MOL   H306 4240   4.671   7.730   6.410  0.4209 -0.0997  0.0072
    8MOL   H307 4241   4.586   7.676   6.188 -1.3196 -0.2009  0.1853
    8MOL   H308 4242   4.663   7.514   5.721  1.7342  1.3118  2.2751
    8MOL   H309 4243   4.567   7.507   5.486 -0.4414  0.2643  0.0832
    8MOL   C310 4244   4.852   7.897   6.580 -0.9883 -0.4406 -0.0125
    8MOL   C311 4245   4.982   7.941   6.651  0.1451 -0.3138  0.2619
    8MOL   C312 4246   5.024   8.073   6.643 -0.7239 -0.1721  0.0332
    8MOL   C313 4247   5.153   8.103   6.681  0.4281 -0.6853 -0.1150
    8MOL   C314 4248   5.239   8.009   6.743 -0.3649 -0.5791  0.4589
    8MOL   C315 4249   5.379   8.046   6.790 -0.1071 -0.5063 -0.4342
    8MOL   N316 4250   5.466   8.033   6.689 -0.0189  0.4009  0.1283
    8MOL   C317 4251   5.456   7.956   6.575 -0.9064 -0.0653 -0.5108
    8MOL   C318 4252   5.440   7.818   6.578  0.2260 -0.3347 -0.8101
    8MOL   C319 4253   5.446   7.741   6.459  0.2059 -0.1740 -0.2670
    8MOL   C320 4254   5.479   7.805   6.337 -0.5495 -0.4838 -0.3580
    8MOL   N321 4255   5.490   7.716   6.228  0.0989 -0.3125 -0.6148
    8MOL   C322 4256   5.489   7.946   6.330  0.1652 -0.9735 -0.7124
    8MOL   C323 4257   5.470   8.020   6.449 -0.5390 -0.3087  0.3719
    8MOL   O324 4258   5.411   8.092   6.900 -0.4709 -0.2854  0.3203
    8MOL   C325 4259   5.192   7.878   6.760 -0.2960  0.0494 -0.1493
    8MOL   C326 4260   5.061   7.849   6.717  0.5008  0.1152  0.6494
    8MOL   O327 4261   4.807   7.790   6.609  0.3683 -0.2728  0.0300
    8MOL   H328 4262   4.968   0.004   6.592  0.2049  1.3863  1.3124
    8MOL   H329 4263   5.188   0.057   6.658 -2.6799  0.2674 -1.0125
    8MOL   H330 4264   5.558   8.067   6.712 -0.1767  0.6053  0.4557
    8MOL   H331 4265   5.431   7.771   6.675 -1.9078 -0.5719 -1.1001
    8MOL   H332 4266   5.435   7.634   6.464 -1.4240 -0.0397 -0.9250
    8MOL   H333 4267   5.464   7.622   6.254  3.3559 -0.4047  2.9385
    8MOL   H334 4268   5.512   7.999   6.239 -1.3653  1.5693  0.3224
    8MOL   H335 4269   5.478   8.128   6.446 -0.0557 -0.3987 -2.2644
    8MOL   H336 4270   5.257   7.809   6.812  0.3092  0.3313 -0.5296
    8MOL   H337 4271   5.034   7.745   6.725  1.5933  0.0281  3.9345
    8MOL   C338 4272   5.513   7.744   6.101 -0.6252  0.6656 -0.3886
    8MOL   C339 4273   5.457   7.644   6.011  0.4074  0.0988 -0.0564
    8MOL   C340 4274   5.321   7.659   5.976 -0.5114  0.2903 -0.2487
    8MOL   C341 4275   5.265   7.573   5.886 -0.4008  0.7767  0.5663
    8MOL   C342 4276   5.347   7.471   5.829  0.5059  0.4651 -0.2125
    8MOL   C343 4277   5.295   7.386   5.725 -0.3016  0.7801 -0.0677
    8MOL   N344 4278   5.192   7.442   5.660  0.1013  0.4766  0.1621
    8MOL   C345 4279   5.128   7.383   5.544  0.3360 -0.3761  0.2638
    8MOL   C346 4280   5.167   7.264   5.480  0.7595  0.5908  0.0581
    8MOL   C347 4281   5.097   7.212   5.363  0.0289 -0.0685  1.1083
    8MOL   C348 4282   4.998   7.289   5.302 -0.3347  0.1130  0.1112
    8MOL   N349 4283   4.931   7.237   5.190 -0.0553 -0.0486 -0.3376
    8MOL   C350 4284   4.959   7.411   5.365  0.4126 -0.3722  0.4827
    8MOL   C351 4285   5.023   7.454   5.483  0.0589  0.5311 -0.3210
    8MOL   O352 4286   5.348   7.275   5.707  0.0986 -0.4666  0.2318
    8MOL   C353 4287   5.483   7.462   5.858 -0.3946  0.4880 -0.0293
    8MOL   C354 4288   5.532   7.544   5.959 -0.1186  0.8337  0.2211
    8MOL   O355 4289   5.554   7.852   6.059 -0.5473  0.1047  0.2957
    8MOL   H356 4290   5.267   7.744   6.014 -0.0510 -0.2803  1.7639
    8MOL   H357 4291   5.159   7.579   5.867  0.0822 -1.6374 -3.5923
    8MOL   H358 4292   5.158   7.528   5.700 -0.3099 -0.5106  1.9883
    8MOL   H359 4293   5.244   7.198   5.518  1.1973  0.4919 -0.9700
    8MOL   H360 4294   5.126   7.117   5.320  2.4041 -0.0408  2.5756
    8MOL   H361 4295   4.834   7.266   5.181  0.3228  0.9674 -1.2343
    8MOL   H362 4296   4.891   7.472   5.307 -0.0563 -0.0880  1.3219
    8MOL   H363 4297   4.994   7.549   5.525 -0.7384  0.5801 -0.9716
    8MOL   H364 4298   5.540   7.378   5.821 -1.3178 -2.4017  4.6539
    8MOL   H365 4299   5.633   7.529   5.992  0.5905 -1.2461 -2.7512
    8MOL   C366 4300   4.982   7.207   5.070  0.2247  0.4432 -0.3214
    8MOL   C367 4301   4.881   7.198   4.954 -0.1835  0.2891 -0.2600
    8MOL   C368 4302   4.930   7.182   4.822  0.6533  0.5808 -0.0450
    8MOL   C369 4303   4.837   7.178   4.722  0.3386  0.5229 -0.5239
    8MOL   C370 4304   4.699   7.181   4.751 -0.6623 -0.7481  0.3405
    8MOL   C371 4305   4.601   7.204   4.636  0.0200  0.4679  0.0070
    8MOL   N372 4306   4.508   7.298   4.649 -0.2239  0.1132  0.7708
    8MOL   C373 4307   4.504   7.419   4.719  0.4163 -0.3466 -0.2572
    8MOL   C374 4308   4.614   7.483   4.784  0.0890  0.7509 -0.0582
    8MOL   C375 4309   4.589   7.597   4.863 -0.2006  0.2338  0.4544
    8MOL   C376 4310   4.461   7.655   4.864 -0.5321  0.5897 -0.2214
    8MOL   N377 4311   4.444   7.776   4.935 -0.4054 -0.0467 -0.6529
    8MOL   C378 4312   4.354   7.599   4.792 -0.2617 -0.5751  0.7049
    8MOL   C379 4313   4.374   7.481   4.720  0.1882 -0.2863 -0.6994
    8MOL   O380 4314   4.614   7.131   4.530  0.2180  0.4719  0.2069
    8MOL   C381 4315   4.656   7.191   4.884  0.0725 -0.9853  0.5320
    8MOL   C382 4316   4.748   7.204   4.985  0.2557 -0.0882  0.3159
    8MOL   O383 4317   5.101   7.191   5.049 -0.1549 -0.3011  0.3560
    8MOL   H384 4318   5.035   7.162   4.804  0.0122 -1.7815 -1.4503
    8MOL   H385 4319   4.874   7.172   4.621  1.4941 -3.2363  0.0648
    8MOL   H386 4320   4.427   7.289   4.589 -2.3098 -0.7480  3.6372
    8MOL   H387 4321   4.711   7.434   4.790 -1.4720 -2.6797 -1.5473
    8MOL   H388 4322   4.665   7.641   4.926  0.9408  0.2014 -0.8612
    8MOL   H389 4323   4.510   7.798   5.009 -1.0660  1.8469 -0.5769
    8MOL   H390 4324   4.255   7.641   4.789  0.2639  0.6332 -0.8599
    8MOL   H391 4325   4.294   7.445   4.657 -2.1273 -2.6950  3.4390
    8MOL   H392 4326   4.550   7.198   4.904 -0.1736 -0.2558 -0.9636
    8MOL   H393 4327   4.719   7.201   5.089 -2.1274 -2.0674 -0.3491
    8MOL   C394 4328   4.361   7.883   4.917  0.1194  0.4561  0.3939
    8MOL   C395 4329   4.400   7.994   5.008  0.2349 -0.1265 -0.7868
    8MOL   C396 4330   4.344   8.127   4.979 -0.6134  0.4482  0.5148
    8MOL   C397 4331   4.389   0.083   5.060 -0.1939  0.1779  0.0768
    8MOL   C398 4332   4.466   0.066   5.177  0.3183  0.1591 -0.0936
    8MOL   C399 4333   4.508   0.184   5.254 -0.0071 -0.0370 -0.5021
    8MOL   N400 4334   4.414   0.261   5.304  0.0105 -0.0041 -0.1413
    8MOL   C401 4335   4.436   0.391   5.366  0.6350 -0.0955 -0.2900
    8MOL   C402 4336   4.325   0.442   5.443  0.1580  0.0078  0.3326
    8MOL   C403 4337   4.327   0.573   5.487 -0.6249 -0.3403  0.6124
    8MOL   C404 4338   4.445   0.659   5.466  0.6483  1.4409 -0.0987
    8MOL   N405 4339   4.458   0.790   5.509  0.4861 -0.5973  0.1836
    8MOL   C406 4340   4.551   0.606   5.389  0.4280 -0.3167 -0.0753
    8MOL   C407 4341   4.548   0.477   5.334 -0.4332  0.1745 -0.1084
    8MOL   O408 4342   4.623   0.191   5.302  0.3072 -0.1978  0.4146
    8MOL   C409 4343   4.503   8.085   5.212 -0.2377 -0.5388 -0.0862
    8MOL   C410 4344   4.472   7.977   5.129 -0.6368  0.3298 -0.0310
    8MOL   O411 4345   4.262   7.888   4.845 -0.5945  0.3372  0.1376
    8MOL   H412 4346   4.286   8.138   4.889 -0.6244  1.3109  0.6229
    8MOL   H413 4347   4.367   0.186   5.037  0.4170 -0.2383 -2.5990
    8MOL   H414 4348   4.319   0.229   5.299  0.4255 -1.1556 -0.7393
    8MOL   H415 4349   4.239   0.380   5.465  0.6014  0.2529  2.7946
    8MOL   H416 4350   4.247   0.608   5.551  0.6737 -0.5994  2.4057
    8MOL   H417 4351   4.532   0.844   5.466  0.5522  0.9419  2.1947
    8MOL   H418 4352   4.634   0.674   5.369 -1.6350  2.9039  1.8943
    8MOL   H419 4353   4.631   0.444   5.273  0.1405  1.6216 -0.1386
    8MOL   H420 4354   4.571   8.063   5.293  0.3907  0.6991 -0.2727
    8MOL   H421 4355   4.511   7.879   5.152 -0.4166  0.3252 -0.4181
    8MOL   C422 4356   4.423   0.837   5.629 -0.7153  0.0331  0.3486
    8MOL   C423 4357   4.464   0.974   5.665 -0.0631  0.7541  0.0527
    8MOL   C424 4358   4.473   1.079   5.576 -0.6763 -0.6290  0.5302
    8MOL   C425 4359   4.520   1.204   5.611  0.4057  0.1864  0.0700
    8MOL   C426 4360   4.530   1.237   5.747 -0.4103  0.8244 -0.5236
    8MOL   C427 4361   4.553   1.382   5.791 -0.3290 -0.4572 -0.1834
    8MOL   N428 4362   4.500   1.415   5.907 -0.0086  0.2023  0.3069
    8MOL   C429 4363   4.460   1.538   5.960 -0.0202 -0.1409  0.2004
    8MOL   C430 4364   4.420   1.640   5.879 -0.8389  0.1372  0.2560
    8MOL   C431 4365   4.382   1.765   5.928  0.2706  0.4129 -0.4938
    8MOL   C432 4366   4.392   1.788   6.063  0.3427 -0.0222 -0.2757
    8MOL   N433 4367   4.361   1.919   6.104  0.4210  1.1866  0.3373
    8MOL   C434 4368   4.443   1.693   6.150 -0.0738 -0.2374  1.1878
    8MOL   C435 4369   4.472   1.564   6.099 -0.2017 -0.7639 -0.4671
    8MOL   O436 4370   4.615   1.468   5.726 -0.3327  0.7161 -0.1191
    8MOL   C437 4371   4.518   1.131   5.843 -0.2605  0.3390  0.0759
    8MOL   C438 4372   4.486   0.999   5.799 -0.1299 -0.4808 -0.8163
    8MOL   O439 4373   4.358   0.764   5.702  0.0710 -0.4859  0.3114
    8MOL   H440 4374   4.448   1.052   5.475 -1.5471 -0.2287  0.6367
    8MOL   H441 4375   4.531   1.287   5.542 -2.9900  1.7815  1.3057
    8MOL   H442 4376   4.471   1.342   5.970  0.0461  0.0799  0.1908
    8MOL   H443 4377   4.408   1.637   5.772 -2.4500 -0.2248  0.4312
    8MOL   H444 4378   4.348   1.839   5.857  2.9681  1.3321 -0.8874
    8MOL   H445 4379   4.379   1.993   6.038  0.9532  0.3955 -0.4146
    8MOL   H446 4380   4.460   1.694   6.257  0.9114  1.4009  1.0209
    8MOL   H447 4381   4.505   1.487   6.167 -0.0139  0.3994  0.7890
    8MOL   H448 4382   4.514   1.132   5.951 -1.6970 -1.9534  0.0741
    8MOL   H449 4383   4.459   0.921   5.869 -2.8834 -0.6108 -1.9435
    8MOL   C450 4384   4.320   1.950   6.228 -0.0446 -0.2561 -0.1678
    8MOL   C451 4385   4.246   1.854   6.319  0.4217 -0.3465  0.4116
    8MOL   C452 4386   4.249   1.874   6.461  0.6598 -0.9117 -0.9125
    8MOL   C453 4387   4.180   1.785   6.548  0.3849  0.5478 -0.0499
    8MOL   C454 4388   4.097   1.685   6.497  0.3368  0.0123  0.5642
    8MOL   C455 4389   4.020   1.593   6.582  0.0591 -0.4777 -0.2334
    8MOL   N456 4390   3.889   1.602   6.556 -0.3310  0.1854  0.3983
    8MOL   C457 4391   3.791   1.511   6.622  0.7187  0.4587  0.6774
    8MOL   C458 4392   3.692   1.459   6.535 -0.9928 -0.3416  0.1804
    8MOL   C459 4393   3.603   1.364   6.585 -0.5481  0.3158  0.6454
    8MOL   C460 4394   3.611   1.316   6.715  0.7686 -0.8486 -0.8990
    8MOL   N461 4395   3.521   1.222   6.760 -0.4334 -0.2285  0.5257
    8MOL   C462 4396   3.704   1.371   6.806  0.0793  0.3189 -0.8962
    8MOL   C463 4397   3.795   1.468   6.757 -0.3498 -0.7790 -0.0714
    8MOL   O464 4398   4.079   1.527   6.669  0.1664  0.0688 -0.0102
    8MOL   C465 4399   4.087   1.672   6.360 -0.5561  0.0408 -0.6081
    8MOL   C466 4400   4.162   1.754   6.265  0.3032  0.0097 -0.2217
    8MOL   O467 4401   4.353   2.057   6.275  0.9262 -0.3500  1.0484
    8MOL   H468 4402   4.314   1.954   6.494 -0.5433  0.1092 -1.0000
    8MOL   H469 4403   4.188   1.802   6.654  0.8190  3.1637 -0.4616
    8MOL   H470 4404   3.840   1.662   6.491  0.8228 -0.3178 -0.9660
    8MOL   H471 4405   3.679   1.495   6.434  1.0158 -1.7550 -0.6419
    8MOL   H472 4406   3.533   1.310   6.523  0.8352 -1.3979  0.5245
    8MOL   H473 4407   3.428   1.225   6.720  0.9054  1.4644 -2.6714
    8MOL   H474 4408   3.706   1.332   6.906 -0.0052 -0.7095 -1.2910
    8MOL   H475 4409   3.873   1.504   6.822  0.0442  0.9272 -1.4563
    8MOL   H476 4410   4.031   1.587   6.323  0.9420 -0.0015 -2.9113
    8MOL   H477 4411   4.145   1.735   6.160 -0.1550  0.7659 -0.2909
    8MOL   C478 4412   3.536   1.115   6.844  0.4659 -0.8025  0.3793
    8MOL   C479 4413   3.419   1.026   6.854  0.6207  0.4008  0.5555
    8MOL   C480 4414   3.377   0.976   6.982 -0.0625  0.1875 -0.2595
    8MOL   C481 4415   3.269   0.883   6.982 -1.1730  0.6068 -0.5755
    8MOL   C482 4416   3.185   0.861   6.869 -0.0164 -0.5673  0.3242
    8MOL   C483 4417   3.065   0.775   6.875 -0.5386  0.3387 -0.0280
    8MOL   N484 4418   3.036   0.716   6.757 -0.0388  0.2332 -0.3410
    8MOL   C485 4419   2.920   0.646   6.719  0.3204 -0.0514  0.1551
    8MOL   C486 4420   2.931   0.541   6.624 -0.3606  0.0506 -0.5354
    8MOL   C487 4421   2.816   0.467   6.590 -0.2947  0.4523 -0.4588
    8MOL   C488 4422   2.686   0.503   6.640  0.2763  0.1951 -0.7846
    8MOL   N489 4423   2.569   0.446   6.581  0.6098  0.6581 -0.3969
    8MOL   C490 4424   2.674   0.608   6.728  0.0566  0.3283 -0.2482
    8MOL   C491 4425   2.792   0.673   6.770  0.0509  0.1227  0.7568
    8MOL   O492 4426   2.995   0.761   6.978 -0.6654  0.6432 -0.1450
    8MOL   C493 4427   3.221   0.925   6.746  0.7142  0.3046  0.7155
    8MOL   C494 4428   3.338   1.001   6.735  0.2929  0.0850 -0.2035
    8MOL   O495 4429   3.636   1.090   6.911  0.7525  0.1113  0.6630
    8MOL   H496 4430   3.450   0.983   7.062  0.1229 -2.0826 -0.2150
    8MOL   H497 4431   3.237   0.831   7.071  2.5060  0.1253  0.5522
    8MOL   H498 4432   3.103   0.732   6.684  1.6379  0.3593  1.1905
    8MOL   H499 4433   3.028   0.528   6.577 -1.2611 -0.8233 -2.2009
    8MOL   H500 4434   2.827   0.399   6.507 -2.8767 -0.3075 -0.2217
    8MOL   H501 4435   2.479   0.490   6.592  0.2014  0.1106 -1.4620
    8MOL   H502 4436   2.580   0.644   6.765  0.1162 -0.5591  0.7909
    8MOL   H503 4437   2.778   0.753   6.842 -1.5741 -0.0382  0.6363
    8MOL   H504 4438   3.155   0.923   6.661  1.0496  0.5744  0.4495
    8MOL   H505 4439   3.365   1.033   6.635  0.1751  2.0236  0.3803
    8MOL   C506 4440   2.540   0.315   6.576 -0.5297 -0.0527 -0.4865
    8MOL   C507 4441   2.401   0.293   6.623  0.9599  0.1254  0.3155
    8MOL   C508 4442   2.299   0.330   6.531  0.0988 -0.2513 -0.2614
    8MOL   C509 4443   2.171   0.347   6.586  0.2323 -0.2545  0.2529
    8MOL   C510 4444   2.142   0.332   6.719  0.2149  0.2545  0.7099
    8MOL   C511 4445   2.013   0.393   6.767  0.1703  0.1556  1.4086
    8MOL   N512 4446   2.015   0.520   6.791 -0.1283 -0.0394  0.7524
    8MOL   C513 4447   2.126   0.610   6.780  0.0302 -0.1678  1.0334
    8MOL   C514 4448   2.123   0.717   6.682 -0.8171  0.5203 -0.3692
    8MOL   C515 4449   2.239   0.802   6.664  0.1769  0.0475 -0.2397
    8MOL   C516 4450   2.346   0.790   6.753 -0.2891 -0.1656 -0.1094
    8MOL   N517 4451   2.456   0.873   6.718 -0.0310  1.0188  0.1352
    8MOL   C518 4452   2.343   0.684   6.853  0.4807  0.5915  0.3008
    8MOL   C519 4453   2.231   0.599   6.866  0.1641 -1.0434 -0.0599
    8MOL   O520 4454   1.908   0.327   6.772 -0.5501  1.0999  0.0650
    8MOL   C521 4455   2.236   0.291   6.803  0.3350  0.7770  0.0766
    8MOL   C522 4456   2.370   0.262   6.757 -0.0929 -0.1380  0.1479
    8MOL   O523 4457   2.618   0.224   6.561 -0.5167 -0.0245  0.2916
    8MOL   H524 4458   2.313   0.333   6.424 -0.0900  1.4055 -0.2439
    8MOL   H525 4459   2.100   0.390   6.517  1.5392  0.6893 -0.5365
    8MOL   H526 4460   1.924   0.562   6.802  0.1810  0.0577  3.3475
    8MOL   H527 4461   2.036   0.720   6.618 -0.5119  1.8920 -0.7448
    8MOL   H528 4462   2.230   0.874   6.584 -0.5837  1.7915  1.3658
    8MOL   H529 4463   2.468   0.896   6.621 -0.5552  0.6629 -0.0186
    8MOL   H530 4464   2.424   0.671   6.923  1.0731  0.1914 -0.4465
    8MOL   H531 4465   2.225   0.530   6.949 -1.2189 -0.1366  0.5988
    8MOL   H532 4466   2.214   0.295   6.909 -1.0351  0.1683 -0.1796
    8MOL   H533 4467   2.451   0.236   6.825  0.3932  1.4240  0.1706
    8MOL   C534 4468   2.546   0.935   6.789  1.1239  0.0253 -1.0476
    8MOL   C535 4469   2.645   1.021   6.713  0.4550 -0.4861  0.9766
    8MOL   C536 4470   2.591   1.114   6.617  0.1416  0.1420 -0.1786
    8MOL   C537 4471   2.669   1.203   6.546 -0.2434  0.0089  0.0022
    8MOL   C538 4472   2.812   1.196   6.562  0.0693  0.1368  0.2998
    8MOL   C539 4473   2.899   1.283   6.476  0.1720 -0.4083 -0.1100
    8MOL   N540 4474   3.035   1.261   6.481  0.1991  0.5606  0.1538
    8MOL   C541 4475   3.130   1.324   6.404 -0.1680 -0.8432 -0.1572
    8MOL   C542 4476   3.246   1.253   6.362  0.1219 -0.5296  0.4090
    8MOL   C543 4477   3.327   1.305   6.258 -0.7432 -0.2499  0.1335
    8MOL   C544 4478   3.313   1.439   6.215 -0.0168  0.1230 -0.1123
    8MOL   N545 4479   3.396   1.492   6.118  0.6198  0.8074  0.7871
    8MOL   C546 4480   3.210   1.518   6.264  0.0780 -0.8348 -0.6978
    8MOL   C547 4481   3.119   1.459   6.358 -0.1130  0.1744 -0.6556
    8MOL   O548 4482   2.843   1.369   6.414 -0.0351 -0.1214  0.7194
    8MOL   C549 4483   2.861   1.111   6.660  0.2288  0.4773 -0.3552
    8MOL   C550 4484   2.785   1.018   6.734 -0.2527  0.8034 -0.6460
    8MOL   O551 4485   2.551   0.926   6.909 -0.2082  0.2136 -0.6519
    8MOL   H552 4486   2.484   1.115   6.610  0.2363  0.9742 -1.9096
    8MOL   H553 4487   2.618   1.268   6.477 -0.0415  0.0676 -0.0919
    8MOL   H554 4488   3.055   1.174   6.528 -1.8240  0.5159  0.9539
    8MOL   H555 4489   3.262   1.147   6.373 -0.5583 -0.4695  2.0053
    8MOL   H556 4490   3.400   1.247   6.203 -0.4999 -0.8069  1.0416
    8MOL   H557 4491   3.434   1.418   6.061 -3.9831  1.9537 -4.1503
    8MOL   H558 4492   3.202   1.624   6.242  0.6154 -0.0497  2.5974
    8MOL   H559 4493   3.041   1.524   6.394  2.0805  1.7510  1.4432
    8MOL   H560 4494   2.967   1.115   6.682 -0.0853  2.3213  0.9504
    8MOL   H561 4495   2.836   0.951   6.800 -1.3623  0.7410  0.1735
    8MOL   H562 4496   3.370   1.571   6.061  1.4360  0.4448 -0.1203
    9MOL     C1 4497   3.566   3.743   7.377  0.4591 -0.4125  0.4482
    9MOL     C2 4498   3.449   3.822   7.445 -0.0123  0.3047 -0.8173
    9MOL     C3 4499   3.460   3.963   7.465 -0.2247  0.0970  1.0090
    9MOL     C4 4500   3.362   4.035   7.542  0.0015 -0.5258 -0.2783
    9MOL     C5 4501   3.245   3.965   7.586  0.0523 -0.5876  0.5479
    9MOL     C6 4502   3.147   4.048   7.668 -0.4669 -0.2274  0.9097
    9MOL     N7 4503   3.037   3.993   7.714 -0.9784 -0.3202  0.0626
    9MOL     C8 4504   2.960   4.010   7.833 -0.7134 -0.1632  0.4561
    9MOL     C9 4505   2.834   3.956   7.841  0.5883  0.2864  0.5978
    9MOL    C10 4506   2.750   3.981   7.954 -0.3536  0.8444  0.1852
    9MOL    C11 4507   2.796   4.061   8.062 -0.4160 -0.3433  0.4614
    9MOL    N12 4508   2.711   4.083   0.031 -0.5623  0.1974  0.1087
    9MOL    C13 4509   2.918   4.129   8.050  0.2087 -0.4582  0.0493
    9MOL    C14 4510   2.998   4.099   7.936  0.8235 -0.3442  0.2996
    9MOL    O15 4511   3.160   4.170   7.686 -0.2006  1.0386 -0.2581
    9MOL    C16 4512   3.230   3.825   7.564 -0.4540 -0.3868 -0.7400
    9MOL    C17 4513   3.334   3.754   7.499  0.0403 -0.5462  0.0521
    9MOL    O18 4514   3.663   3.805   7.332 -0.1702  0.2201 -0.0063
    9MOL    H19 4515   3.543   4.016   7.422  0.0877  0.0227  1.5126
    9MOL    H20 4516   3.375   4.139   7.568  3.9754 -0.6266 -1.4533
    9MOL    H21 4517   3.004   3.918   7.656 -1.4117 -0.1554  0.0975
    9MOL    H22 4518   2.784   3.901   7.762  1.3956 -1.9038  1.5691
    9MOL    H23 4519   2.649   3.942   7.954 -0.0452  0.0373  0.5558
    9MOL    H24 4520   2.693   4.178   0.062 -1.9788 -0.2802  0.7834
    9MOL    H25 4521   2.945   4.197   8.129 -0.8117 -1.3839  1.2271
    9MOL    H26 4522   3.096   4.143   7.922  0.8449 -0.6447 -0.5582
    9MOL    H27 4523   3.141   3.774   7.599 -0.5922  0.9266  0.8829
    9MOL    H28 4524   3.324   3.646   7.495 -1.2307 -0.3662 -2.9708
    9MOL    H29 4525   3.549   3.636   7.368 -4.3551  0.3235 -0.8222
    9MOL    C30 4526   2.698   3.991   0.125  0.6929  0.0476 -0.1160
    9MOL    C31 4527   2.655   4.051   0.257 -0.5841 -0.5965 -0.5792
    9MOL    C32 4528   2.691   3.982   0.377 -0.4476  0.2706  0.4945
    9MOL    C33 4529   2.660   4.038   0.502  0.6719 -0.7881 -0.2822
    9MOL    C34 4530   2.588   4.161   0.513  0.3529 -0.0059 -0.1919
    9MOL    C35 4531   2.544   4.224   0.646 -0.1595  0.2763  0.1545
    9MOL    N36 4532   2.534   4.356   0.640  0.0691  0.2711 -0.2380
    9MOL    C37 4533   2.479   4.447   0.734 -0.0965  0.7926  0.6359
    9MOL    C38 4534   2.456   4.423   0.869 -0.1611 -0.5782 -0.3349
    9MOL    C39 4535   2.383   4.515   0.946  0.3377  0.1754 -0.2757
    9MOL    C40 4536   2.338   4.641   0.896  0.1241 -0.2274  0.6964
    9MOL    N41 4537   2.270   4.726   0.982 -0.4656 -0.1136 -0.0578
    9MOL    C42 4538   2.366   4.671   0.762  0.1665  0.5460 -0.8089
    9MOL    C43 4539   2.437   4.573   0.681 -0.1997 -0.5303  0.5741
    9MOL    O44 4540   2.530   4.160   0.752  0.4183  1.0673 -0.0210
    9MOL    C45 4541   2.548   4.223   0.392  0.4319 -0.6239  0.6676
    9MOL    C46 4542   2.584   4.174   0.264 -0.3713  0.0128 -0.3357
    9MOL    O47 4543   2.719   3.869   0.111 -0.5015  0.1027 -0.0113
    9MOL    H48 4544   2.742   3.887   0.368  2.4881  2.0960 -3.3336
    9MOL    H49 4545   2.691   3.980   0.588 -0.3251 -1.0977 -0.1299
    9MOL    H50 4546   2.554   4.396   0.549 -0.4132  0.0498 -0.4384
    9MOL    H51 4547   2.481   4.332   0.921 -2.5607 -0.4264  1.1380
    9MOL    H52 4548   2.369   4.492   1.051 -0.6462 -0.7807 -0.6067
    9MOL    H53 4549   2.307   4.731   1.076 -2.3249 -0.5707  0.7158
    9MOL    H54 4550   2.340   4.766   0.717 -1.1962 -0.0192 -1.2451
    9MOL    H55 4551   2.456   4.585   0.576 -0.1877 -0.6229  0.5648
    9MOL    H56 4552   2.485   4.311   0.396 -0.6967 -1.4584  1.7348
    9MOL    H57 4553   2.563   4.230   0.174 -1.7091 -0.8411 -0.5739
    9MOL    C58 4554   2.140   4.761   0.964 -0.0535  0.1176  0.0139
    9MOL    C59 4555   2.069   4.806   1.088  0.1386 -0.1811  0.0310
    9MOL    C60 4556   2.131   4.796   1.217 -0.4796 -0.4090  0.3931
    9MOL    C61 4557   2.054   4.826   1.334  0.0355  0.3456  0.2971
    9MOL    C62 4558   1.918   4.867   1.321  1.1199 -0.2694 -0.2586
    9MOL    C63 4559   1.832   4.898   1.443 -0.1819 -0.0177  0.2427
    9MOL    N64 4560   1.813   4.794   1.520 -0.6381  0.2310  0.3408
    9MOL    C65 4561   1.765   4.795   1.650 -0.2341 -0.8835  0.4186
    9MOL    C66 4562   1.697   4.689   1.709 -0.0844  0.2046  0.3243
    9MOL    C67 4563   1.650   4.686   1.839 -0.3628 -0.7358 -0.2538
    9MOL    C68 4564   1.679   4.800   1.921 -0.0551  0.1501 -0.1333
    9MOL    N69 4565   1.649   4.786   2.060 -0.0934  0.6988  0.8360
    9MOL    C70 4566   1.762   4.902   1.870  0.6579 -0.0529 -0.5016
    9MOL    C71 4567   1.794   4.904   1.732 -0.6297  0.4856 -1.2189
    9MOL    O72 4568   1.788   5.015   1.457 -0.1463 -0.1338 -0.1213
    9MOL    C73 4569   1.854   4.873   1.193 -0.2571  0.1694 -0.3270
    9MOL    C74 4570   1.933   4.839   1.083 -0.3990  0.2118  1.2550
    9MOL    O75 4571   2.082   4.765   0.854 -0.0347  0.4058 -0.1484
    9MOL    H76 4572   2.231   4.759   1.232  0.0622  1.5079  1.6942
    9MOL    H77 4573   2.090   4.812   1.435 -2.5131  1.7766  1.4388
    9MOL    H78 4574   1.823   4.704   1.475 -1.7422 -0.0535  0.6363
    9MOL    H79 4575   1.682   4.595   1.657  0.5575  0.5441 -0.4770
    9MOL    H80 4576   1.614   4.590   1.873 -1.5261 -0.6563 -1.2450
    9MOL    H81 4577   1.619   4.699   2.101  0.8766  0.1199  0.3322
    9MOL    H82 4578   1.804   4.983   1.926  2.8547 -1.2084 -0.4117
    9MOL    H83 4579   1.853   4.990   1.703  0.7633  0.7661  2.2316
    9MOL    H84 4580   1.747   4.884   1.184 -0.1734  0.0905 -1.3913
    9MOL    H85 4581   1.880   4.845   0.989  1.5250 -0.3960  0.0991
    9MOL    C86 4582   1.686   4.877   2.152 -0.3864  0.5084 -0.2750
    9MOL    C87 4583   1.704   4.814   2.285  0.5155  0.9501 -0.3671
    9MOL    C88 4584   1.804   4.715   2.309 -0.3097 -0.1836 -0.3406
    9MOL    C89 4585   1.826   4.675   2.441  0.0008 -0.6129 -0.5052
    9MOL    C90 4586   1.735   4.719   2.541  0.2034 -0.4354 -0.6947
    9MOL    C91 4587   1.773   4.675   2.678 -0.5777 -0.0499 -0.1903
    9MOL    N92 4588   1.667   4.651   2.748  0.3220  0.1691  0.5489
    9MOL    C93 4589   1.676   4.608   2.882  0.4654  0.4190  0.0099
    9MOL    C94 4590   1.778   4.521   2.927  0.1218  0.2509 -0.0225
    9MOL    C95 4591   1.781   4.483   3.058  0.8048 -0.4898 -0.9648
    9MOL    C96 4592   1.668   4.510   3.139 -0.2430  0.2660  0.7484
    9MOL    N97 4593   1.652   4.462   3.274 -0.3723  0.0361  0.1426
    9MOL    C98 4594   1.556   4.579   3.085  0.0497 -0.3512  0.1186
    9MOL    C99 4595   1.562   4.636   2.960  0.0894  0.4392  0.8910
    9MOL   O100 4596   1.894   4.678   2.714 -0.0917 -0.0127 -0.0989
    9MOL   C101 4597   1.621   4.800   2.511  0.5068 -0.1634 -0.5327
    9MOL   C102 4598   1.609   4.854   2.380  0.0291 -0.1430 -0.3560
    9MOL   O103 4599   1.694   5.001   2.143  0.1853 -0.4457  0.0669
    9MOL   H104 4600   1.876   4.690   2.232  1.0358 -0.2017  0.9059
    9MOL   H105 4601   1.918   4.620   2.455  1.5829  1.2453 -3.2312
    9MOL   H106 4602   1.575   4.669   2.711  0.8649 -3.6630 -3.0605
    9MOL   H107 4603   1.851   4.485   2.856  0.5529 -0.7965  0.9439
    9MOL   H108 4604   1.869   4.430   3.091 -0.1922 -0.8740  1.2113
    9MOL   H109 4605   1.559   4.429   3.295 -0.9247  2.5265  1.9173
    9MOL   H110 4606   1.473   4.603   3.149  1.0904  3.3300  0.1898
    9MOL   H111 4607   1.486   4.700   2.919  0.0355 -0.1187  0.1149
    9MOL   H112 4608   1.549   4.838   2.581  0.3415  0.1770 -0.8815
    9MOL   H113 4609   1.524   4.919   2.363  0.6162  0.3323 -1.5646
    9MOL   C114 4610   1.734   4.479   3.384 -0.1337  0.8314 -0.4346
    9MOL   C115 4611   1.692   4.401   3.503 -0.8752  0.2635  0.2395
    9MOL   C116 4612   1.571   4.425   3.561  0.5604  0.6060 -0.1122
    9MOL   C117 4613   1.539   4.359   3.681  0.1296 -0.3746  0.5460
    9MOL   C118 4614   1.623   4.265   3.736  0.3147  0.1596 -0.1045
    9MOL   C119 4615   1.580   4.182   3.854 -0.3021 -0.9992 -0.1125
    9MOL   N120 4616   1.561   4.052   3.834 -1.1845 -0.0747 -0.4880
    9MOL   C121 4617   1.558   3.982   3.711  0.2844 -0.0776  0.6897
    9MOL   C122 4618   1.444   4.002   3.626  0.0970 -0.5174 -0.2819
    9MOL   C123 4619   1.435   3.929   3.505  0.0993 -0.2737  0.4529
    9MOL   C124 4620   1.537   3.836   3.475 -0.9682 -0.4881  0.0964
    9MOL   N125 4621   1.522   3.762   3.359  0.0463 -0.0533 -0.0366
    9MOL   C126 4622   1.647   3.815   3.561 -0.1223  0.1495 -0.3941
    9MOL   C127 4623   1.653   3.883   3.683  0.2703  0.2523  0.7668
    9MOL   O128 4624   1.552   4.237   3.961 -0.1579 -0.2395 -0.3127
    9MOL   C129 4625   1.747   4.237   3.679  0.2564  0.5366  0.2800
    9MOL   C130 4626   1.784   4.308   3.563 -0.2747  0.4075  0.0157
    9MOL   O131 4627   1.845   4.534   3.386  0.0439 -0.0058 -0.5736
    9MOL   H132 4628   1.514   4.511   3.527 -2.7036 -0.7080  1.7594
    9MOL   H133 4629   1.445   4.394   3.722 -0.2569  0.4601 -1.0198
    9MOL   H134 4630   1.526   4.004   3.916 -0.4325 -1.0182 -0.7191
    9MOL   H135 4631   1.370   4.081   3.624  0.3692 -0.2775 -1.0323
    9MOL   H136 4632   1.356   3.957   3.437 -0.8018  0.7368  1.8729
    9MOL   H137 4633   1.434   3.774   3.310  0.5364  3.5699 -0.1992
    9MOL   H138 4634   1.722   3.743   3.535  0.7230  1.0178 -0.3720
    9MOL   H139 4635   1.741   3.884   3.746  1.5807 -1.2740 -0.9727
    9MOL   H140 4636   1.811   4.166   3.729  1.6796  0.8593 -1.0611
    9MOL   H141 4637   1.875   4.295   3.506 -0.9230 -0.8540 -0.7435
    9MOL   C142 4638   1.627   3.738   3.280  0.0863  0.0494 -0.3026
    9MOL   C143 4639   1.597   3.651   3.160  0.6062 -0.0442  0.5775
    9MOL   C144 4640   1.628   3.701   3.028 -0.2660  0.0825  0.8593
    9MOL   C145 4641   1.603   3.611   2.920  0.7141  0.0091  0.0112
    9MOL   C146 4642   1.560   3.481   2.937 -0.5162 -0.3376 -0.0714
    9MOL   C147 4643   1.541   3.384   2.822  0.0227 -0.2062  0.7690
    9MOL   N148 4644   1.506   3.442   2.706 -0.1136 -0.1905 -0.0553
    9MOL   C149 4645   1.512   3.390   2.579  0.3488  0.0286  0.5528
    9MOL   C150 4646   1.526   3.259   2.541  0.5313 -0.1698 -0.5270
    9MOL   C151 4647   1.527   3.227   2.399  0.0791 -0.1852  0.2587
    9MOL   C152 4648   1.525   3.329   2.300  0.2978  0.1507  0.7589
    9MOL   N153 4649   1.535   3.303   2.158  0.4457 -0.5563 -0.1627
    9MOL   C154 4650   1.513   3.460   2.341 -0.0126 -0.1834  0.3091
    9MOL   C155 4651   1.515   3.492   2.479 -0.0775  0.0089 -0.7051
    9MOL   O156 4652   1.522   3.263   2.839 -0.4408 -0.1411  0.0380
    9MOL   C157 4653   1.532   3.435   3.068  0.0326  0.2832  0.3027
    9MOL   C158 4654   1.555   3.519   3.177 -0.9003  0.1784 -0.4251
    9MOL   O159 4655   1.742   3.785   3.291 -0.3589 -1.1314  0.9144
    9MOL   H160 4656   1.652   3.805   3.011  0.0885  0.1722  1.8820
    9MOL   H161 4657   1.624   3.649   2.821  1.2315 -1.3176 -0.3988
    9MOL   H162 4658   1.501   3.542   2.719  1.1288 -0.3007  1.4560
    9MOL   H163 4659   1.545   3.178   2.609 -0.7932 -0.0139  0.0393
    9MOL   H164 4660   1.539   3.121   2.382  0.3441 -0.7088  3.3633
    9MOL   H165 4661   1.571   3.376   2.099  0.0013 -1.1376 -1.1666
    9MOL   H166 4662   1.511   3.531   2.260 -0.2417 -0.2479  0.2596
    9MOL   H167 4663   1.503   3.596   2.506  0.6219 -0.4406  1.4005
    9MOL   H168 4664   1.499   3.334   3.089 -1.0354  0.7828  1.0793
    9MOL   H169 4665   1.551   3.490   3.281  0.7734 -0.9522 -0.6704
    9MOL   C170 4666   1.491   3.196   2.094  0.4756  0.1187  0.6460
    9MOL   C171 4667   1.484   3.214   1.942 -1.1583  0.3858  0.2429
    9MOL   C172 4668   1.551   3.319   1.868 -0.2309  0.0531 -0.4688
    9MOL   C173 4669   1.520   3.336   1.728 -0.5789 -0.8260  0.1289
    9MOL   C174 4670   1.428   3.253   1.665  0.1510 -0.5095  0.6115
    9MOL   C175 4671   1.391   3.275   1.521  0.1189  0.5553  0.1447
    9MOL   N176 4672   1.498   3.291   1.438 -0.0007 -0.3277 -0.2684
    9MOL   C177 4673   1.495   3.340   1.303 -1.0475  0.6172 -0.6408
    9MOL   C178 4674   1.429   3.269   1.203  0.1811 -0.2446 -0.2808
    9MOL   C179 4675   1.431   3.315   1.067 -0.2350  0.6588  0.0235
    9MOL   C180 4676   1.498   3.438   1.042 -0.7908  0.0514 -0.1499
    9MOL   N181 4677   1.502   3.499   0.914  0.1941  0.2636 -0.3453
    9MOL   C182 4678   1.573   3.503   1.145  0.3310 -0.7778 -0.0901
    9MOL   C183 4679   1.566   3.463   1.276  0.1561  0.7364 -0.2723
    9MOL   O184 4680   1.275   3.261   1.482  0.1526 -0.3030  0.4749
    9MOL   C185 4681   1.368   3.148   1.736 -0.6636  0.1468 -0.2052
    9MOL   C186 4682   1.394   3.127   1.871  0.6555 -0.3148 -0.9014
    9MOL   O187 4683   1.436   3.096   2.145  0.4367  0.5789 -0.7095
    9MOL   H188 4684   1.625   3.382   1.915 -0.3501 -0.1545 -0.0030
    9MOL   H189 4685   1.565   3.422   1.681  0.1901 -2.2696 -1.8196
    9MOL   H190 4686   1.584   3.291   1.491 -0.3248  1.9468  0.2948
    9MOL   H191 4687   1.375   3.178   1.221  2.3912 -2.1442 -2.8485
    9MOL   H192 4688   1.374   3.273   0.986 -1.7217  3.5780 -0.5056
    9MOL   H193 4689   1.530   3.440   0.837 -1.6174 -0.5074 -0.4469
    9MOL   H194 4690   1.621   3.596   1.123  0.0750 -0.7575 -0.5704
    9MOL   H195 4691   1.614   3.515   1.358 -0.5980 -1.6489  1.7647
    9MOL   H196 4692   1.303   3.081   1.682 -0.0487 -1.8344  1.4766
    9MOL   H197 4693   1.347   3.041   1.916  0.1410 -0.3768 -1.5524
    9MOL   C198 4694   1.433   3.610   0.885  0.2906 -0.1637 -0.4068
    9MOL   C199 4695   1.444   3.660   0.746 -0.2229  0.4207  0.7555
    9MOL   C200 4696   1.333   3.695   0.663 -0.0289  0.5177  0.0467
    9MOL   C201 4697   1.352   3.754   0.532  0.1495 -0.3708 -0.2833
    9MOL   C202 4698   1.477   3.783   0.487  0.9652 -0.5408  0.1696
    9MOL   C203 4699   1.483   3.865   0.363 -0.3463  0.0096 -0.1714
    9MOL   N204 4700   1.592   3.945   0.364  0.0712  0.3082 -0.7924
    9MOL   C205 4701   1.632   4.047   0.270 -0.2877 -0.4158 -0.0545
    9MOL   C206 4702   1.568   4.073   0.147 -0.3796  0.1604  0.6021
    9MOL   C207 4703   1.602   4.176   0.061  0.2751  0.6343  0.4004
    9MOL   C208 4704   1.714   4.259   0.094 -0.4979 -0.1717 -0.1252
    9MOL   N209 4705   1.761   4.353   0.003  0.5295  0.0783 -0.1668
    9MOL   C210 4706   1.773   4.242   0.221  0.6052 -0.0402  0.2511
    9MOL   C211 4707   1.736   4.136   0.306 -0.1066 -0.1836  0.0864
    9MOL   O212 4708   1.407   3.846   0.271 -0.4043  0.5043 -0.4304
    9MOL   C213 4709   1.586   3.748   0.562 -0.9096  0.3327  0.3238
    9MOL   C214 4710   1.570   3.692   0.689  0.1567  0.1370  0.0401
    9MOL   O215 4711   1.374   3.679   0.974  0.2238 -0.2997 -0.1912
    9MOL   H216 4712   1.232   3.674   0.695 -1.1194  1.6310 -2.5365
    9MOL   H217 4713   1.263   3.782   0.478  0.9134 -0.3576 -1.5509
    9MOL   H218 4714   1.631   3.949   0.457 -0.7464  1.2882 -0.4844
    9MOL   H219 4715   1.497   3.996   0.121  0.3903 -0.7561  1.1619
    9MOL   H220 4716   1.534   4.189   8.124  1.2774  0.5379 -0.4454
    9MOL   H221 4717   1.858   4.373   0.021  1.1815 -2.4595 -0.6649
    9MOL   H222 4718   1.847   4.314   0.253 -0.3888  0.8115  0.6249
    9MOL   H223 4719   1.795   4.124   0.396  1.0120 -3.1505 -0.9816
    9MOL   H224 4720   1.681   3.777   0.521 -0.9796 -0.4248 -0.3852
    9MOL   H225 4721   1.651   3.687   0.759  0.7417  0.8754 -0.5687
    9MOL   C226 4722   1.713   4.404   8.042  0.1468 -0.1867  0.5257
    9MOL   C227 4723   1.810   4.502   7.971 -0.3473 -0.0467  0.4148
    9MOL   C228 4724   1.804   4.527   7.829  0.1874 -0.1207  0.1304
    9MOL   C229 4725   1.899   4.618   7.769  0.2965  0.1924  0.1398
    9MOL   C230 4726   1.990   4.687   7.853 -0.4336 -1.0525 -0.5619
    9MOL   C231 4727   2.095   4.772   7.781  0.1661  0.0867 -0.1480
    9MOL   N232 4728   2.190   4.812   7.871 -0.4865  0.2355  0.3675
    9MOL   C233 4729   2.333   4.811   7.857 -0.4674  0.0465  0.3509
    9MOL   C234 4730   2.406   4.833   7.975 -0.7391 -0.1239 -0.0291
    9MOL   C235 4731   2.544   4.815   7.974 -0.6106 -0.5822 -0.9025
    9MOL   C236 4732   2.612   4.782   7.856  0.2980 -0.0166 -0.0154
    9MOL   N237 4733   2.752   4.760   7.865  0.1552 -0.0410 -0.5161
    9MOL   C238 4734   2.530   4.755   7.740 -0.0276 -0.2660 -0.4673
    9MOL   C239 4735   2.391   4.766   7.740 -0.0263 -0.1257  0.6094
    9MOL   O240 4736   2.090   4.811   7.662  0.0434 -0.1431  0.2884
    9MOL   C241 4737   1.988   4.660   7.991  0.2123  0.1959 -0.0359
    9MOL   C242 4738   1.904   4.570   8.051  0.0098 -0.6571 -0.2962
    9MOL   O243 4739   1.604   4.376   7.989 -0.3464 -0.1385 -0.2650
    9MOL   H244 4740   1.727   4.476   7.772  0.9763 -0.2463 -0.8404
    9MOL   H245 4741   1.905   4.639   7.663  1.8650  1.9030  0.5386
    9MOL   H246 4742   2.150   4.803   7.963 -0.1998 -0.0779  0.4609
    9MOL   H247 4743   2.359   4.855   8.070 -0.3049 -1.4568  0.5115
    9MOL   H248 4744   2.598   4.834   8.066  0.6002 -1.9064 -1.3155
    9MOL   H249 4745   2.802   4.767   7.952 -1.1911 -0.5400  0.3191
    9MOL   H250 4746   2.580   4.724   7.649  1.9892  1.8882 -0.1539
    9MOL   H251 4747   2.343   4.728   7.651 -2.2544  1.8645  0.9226
    9MOL   H252 4748   2.061   4.694   8.063 -0.7903 -0.0390  1.0948
    9MOL   H253 4749   1.911   4.555   0.012 -1.6769 -3.1023 -0.4872
    9MOL   C254 4750   2.835   4.736   7.766 -0.4366 -0.6431  0.5966
    9MOL   C255 4751   2.976   4.716   7.800  0.3304  0.5767  0.0147
    9MOL   C256 4752   3.064   4.674   7.695 -0.2494 -0.1801  0.6325
    9MOL   C257 4753   3.202   4.649   7.720  0.0006 -0.6191 -0.0269
    9MOL   C258 4754   3.251   4.672   7.850  0.1831  0.5240 -1.2700
    9MOL   C259 4755   3.399   4.670   7.885  0.3812  1.3630  0.3358
    9MOL   N260 4756   3.448   4.548   7.915 -0.5747 -0.5537 -0.3236
    9MOL   C261 4757   3.583   4.513   7.930 -0.4144 -0.1359  0.5215
    9MOL   C262 4758   3.625   4.401   8.016 -0.1774  0.0383  0.9444
    9MOL   C263 4759   3.765   4.366   8.012  0.4002  0.2178  0.3477
    9MOL   C264 4760   3.860   4.420   7.923  0.0494  0.4440 -0.0134
    9MOL   N265 4761   4.003   4.385   7.916  0.5116  0.2275 -0.1386
    9MOL   C266 4762   3.812   4.526   7.838  0.3553  0.0950  0.0674
    9MOL   C267 4763   3.680   4.569   7.845  0.4499 -0.4831  0.1592
    9MOL   O268 4764   3.461   4.773   7.889  0.2235  0.6794 -0.4156
    9MOL   C269 4765   3.157   4.698   7.955 -0.2697  0.0069 -0.1040
    9MOL   C270 4766   3.023   4.730   7.929 -0.1077  0.0916 -0.2976
    9MOL   O271 4767   2.806   4.741   7.649  0.1224 -0.0638  0.1246
    9MOL   H272 4768   3.028   4.651   7.596  0.6420  0.3674  0.1732
    9MOL   H273 4769   3.268   4.628   7.637 -2.2545 -0.3244 -1.9389
    9MOL   H274 4770   3.381   4.476   7.892  0.0873 -0.5565 -2.2759
    9MOL   H275 4771   3.555   4.348   8.079  0.4532 -2.5539 -0.4317
    9MOL   H276 4772   3.803   4.285   8.073  1.1994 -1.7988 -2.6990
    9MOL   H277 4773   4.063   4.456   7.877 -0.8362  0.4004 -1.9705
    9MOL   H278 4774   3.884   4.569   7.770 -1.3695  1.9357 -0.6087
    9MOL   H279 4775   3.658   4.648   7.775  0.8454 -0.8286 -0.3574
    9MOL   H280 4776   3.200   4.717   8.052 -0.1309  1.9708 -0.5136
    9MOL   H281 4777   2.971   4.752   8.021  2.5818  0.6288  1.1382
    9MOL   C282 4778   4.068   4.271   7.952  0.5528 -0.3292  0.1047
    9MOL   C283 4779   4.197   4.243   7.882 -0.0408 -0.0447  0.3711
    9MOL   C284 4780   4.206   4.226   7.744 -0.0333 -0.3923 -0.4467
    9MOL   C285 4781   4.329   4.207   7.684  0.8427 -0.2550 -0.4318
    9MOL   C286 4782   4.451   4.199   7.759 -0.1149 -0.0762 -0.1827
    9MOL   C287 4783   4.588   4.158   7.699  0.6957  0.1064 -0.6027
    9MOL   N288 4784   4.696   4.160   7.781  0.0515 -0.5538  0.5322
    9MOL   C289 4785   4.831   4.135   7.754  0.1493 -0.1146 -0.2985
    9MOL   C290 4786   4.925   4.188   7.846  0.0860 -0.1808  0.1231
    9MOL   C291 4787   5.060   4.202   7.808 -0.1061  0.3455 -1.1068
    9MOL   C292 4788   5.107   4.147   7.689 -0.4854  0.2311  0.5036
    9MOL   N293 4789   5.240   4.160   7.647 -0.6872  0.2583 -0.0790
    9MOL   C294 4790   5.020   4.079   7.598 -0.0769  0.0465 -0.4552
    9MOL   C295 4791   4.881   4.079   7.629  0.0434  0.4935 -0.2670
    9MOL   O296 4792   4.600   4.145   7.574  0.0968  0.0476 -0.7379
    9MOL   C297 4793   4.440   4.211   7.892 -0.1939  0.0251 -0.1439
    9MOL   C298 4794   4.316   4.236   7.957  0.3764 -0.0828  0.8010
    9MOL   O299 4795   4.037   4.180   8.029  0.1726  0.0548 -0.0778
    9MOL   H300 4796   4.111   4.220   7.693  0.6349 -1.9027 -1.5550
    9MOL   H301 4797   4.328   4.189   7.577  0.5304  0.5411 -0.5721
    9MOL   H302 4798   4.674   4.190   7.876  2.1554 -2.2412  1.5915
    9MOL   H303 4799   4.897   4.219   7.945  1.8572  0.5084  0.4212
    9MOL   H304 4800   5.127   4.250   7.878 -1.6835  2.0557 -0.7039
    9MOL   H305 4801   5.311   4.122   7.709 -0.9456 -1.3901 -0.7808
    9MOL   H306 4802   5.064   4.036   7.509  1.3940  0.4269  0.0686
    9MOL   H307 4803   4.819   4.032   7.555  0.3772 -2.0111  0.9809
    9MOL   H308 4804   4.525   4.200   7.958 -1.2454 -3.1207  0.7755
    9MOL   H309 4805   4.318   4.239   8.064 -0.1609 -2.0379  0.8861
    9MOL   C310 4806   5.294   4.206   7.529 -0.1311  0.9725 -0.1061
    9MOL   C311 4807   5.183   4.264   7.439 -0.3886  0.2446  0.0864
    9MOL   C312 4808   5.193   4.236   7.298  1.1473  0.3201 -0.2935
    9MOL   C313 4809   5.088   4.275   7.210  0.3888 -0.9795 -0.4024
    9MOL   C314 4810   4.970   4.332   7.265 -1.0840  0.0421 -0.1958
    9MOL   C315 4811   4.858   4.367   7.170  0.0977 -0.4872  0.1334
    9MOL   N316 4812   4.745   4.329   7.225  0.5127  0.4119 -0.0869
    9MOL   C317 4813   4.615   4.362   7.189  0.4838 -0.5358 -0.2095
    9MOL   C318 4814   4.513   4.330   7.286  0.1814  0.2458 -0.3313
    9MOL   C319 4815   4.379   4.327   7.257 -0.4916 -0.1798  0.0517
    9MOL   C320 4816   4.344   4.381   7.127 -0.2698 -0.8102 -0.1601
    9MOL   N321 4817   4.208   4.381   7.085 -0.3771  0.3031 -0.0643
    9MOL   C322 4818   4.439   4.428   7.034  0.4691  0.0781  0.0026
    9MOL   C323 4819   4.574   4.413   7.067  0.3417  0.3074 -0.3730
    9MOL   O324 4820   4.873   4.430   7.065 -0.5123 -0.1907 -0.1939
    9MOL   C325 4821   4.977   4.376   7.399 -0.4235 -0.4615  0.1807
    9MOL   C326 4822   5.084   4.349   7.482 -0.1598 -0.5077  0.6481
    9MOL   O327 4823   5.412   4.209   7.500  0.0654  0.4301  0.0663
    9MOL   H328 4824   5.278   4.177   7.267 -0.7638 -1.6472 -1.9529
    9MOL   H329 4825   5.085   4.261   7.103 -1.3049  3.9417 -1.0907
    9MOL   H330 4826   4.752   4.276   7.310 -0.6925 -0.3340 -0.4466
    9MOL   H331 4827   4.545   4.301   7.384  2.2344  2.5267 -0.2858
    9MOL   H332 4828   4.308   4.302   7.334  0.7549 -1.5155  0.7876
    9MOL   H333 4829   4.141   4.397   7.159 -0.0198 -1.1408  0.5854
    9MOL   H334 4830   4.402   4.474   6.943  0.8804  1.7681  0.6666
    9MOL   H335 4831   4.647   4.441   6.992  0.3707  0.4783 -0.2811
    9MOL   H336 4832   4.884   4.419   7.434 -1.0410 -1.8870  0.3067
    9MOL   H337 4833   5.080   4.386   7.584  0.9689 -2.3848  1.4029
    9MOL   C338 4834   4.154   4.373   6.965 -0.3060  0.0050 -0.5763
    9MOL   C339 4835   4.003   4.378   6.964  0.1004 -0.5388 -0.3085
    9MOL   C340 4836   3.942   4.411   6.843  0.2357 -0.1437  0.0465
    9MOL   C341 4837   3.802   4.408   6.829 -0.0122  0.6692  0.2707
    9MOL   C342 4838   3.720   4.364   6.941 -0.3188  1.0361  0.2279
    9MOL   C343 4839   3.573   4.356   6.921  0.0862 -0.6303 -1.0314
    9MOL   N344 4840   3.492   4.337   7.025 -0.0912 -0.2526 -0.6467
    9MOL   C345 4841   3.349   4.328   7.020  0.2366  0.2056 -0.5290
    9MOL   C346 4842   3.265   4.407   6.941 -0.4796 -0.6547 -0.1103
    9MOL   C347 4843   3.128   4.403   6.956 -0.0220 -0.1602 -0.1482
    9MOL   C348 4844   3.057   4.310   7.035  0.4725  0.4372 -0.3387
    9MOL   N349 4845   2.917   4.290   7.042  0.4850 -0.1154  0.3524
    9MOL   C350 4846   3.144   4.230   7.111  0.1863 -0.7524 -0.1415
    9MOL   C351 4847   3.286   4.235   7.101 -0.1511 -0.2466 -0.0561
    9MOL   O352 4848   3.523   4.364   6.807 -0.1300  0.1393 -0.1955
    9MOL   C353 4849   3.789   4.313   7.052  0.2189 -0.4379 -0.0094
    9MOL   C354 4850   3.926   4.318   7.067 -0.0762  0.5795  0.1529
    9MOL   O355 4851   4.206   4.351   6.857  0.2031 -0.2491  0.1042
    9MOL   H356 4852   3.998   4.433   6.753 -0.7117  1.2627 -0.2095
    9MOL   H357 4853   3.762   4.456   6.741  0.1344  1.7193  0.7653
    9MOL   H358 4854   3.549   4.332   7.108  0.1558  0.9144 -0.7278
    9MOL   H359 4855   3.300   4.483   6.873  0.0341  0.4181  1.3157
    9MOL   H360 4856   3.073   4.467   6.888 -0.4150 -0.4600 -0.1173
    9MOL   H361 4857   2.883   4.245   7.125  0.4501  1.7781  1.4066
    9MOL   H362 4858   3.107   4.155   7.180 -3.6998  2.3241  1.2913
    9MOL   H363 4859   3.356   4.185   7.165 -0.4283  0.9392  1.2014
    9MOL   H364 4860   3.731   4.268   7.131  0.2715 -0.3858  0.0594
    9MOL   H365 4861   3.980   4.282   7.153  1.5574 -0.4374 -1.2857
    9MOL   C366 4862   2.819   4.322   6.950 -0.0722 -0.6199 -0.2005
    9MOL   C367 4863   2.680   4.290   6.989 -0.7014  0.0238 -0.7053
    9MOL   C368 4864   2.580   4.393   6.994 -0.0723 -0.5597 -0.2379
    9MOL   C369 4865   2.448   4.363   7.033  0.0109 -0.0787  0.0427
    9MOL   C370 4866   2.411   4.232   7.060 -0.0253 -0.3061 -0.0750
    9MOL   C371 4867   2.268   4.199   7.093 -0.6386 -0.1534 -0.4863
    9MOL   N372 4868   2.258   4.076   7.147  0.4026 -0.2185 -0.2301
    9MOL   C373 4869   2.133   4.012   7.180 -0.4067 -0.0539 -0.0602
    9MOL   C374 4870   2.130   3.875   7.187  0.5412 -0.0895  0.1003
    9MOL   C375 4871   2.017   3.798   7.217 -0.3849  0.8704 -0.1434
    9MOL   C376 4872   1.899   3.860   7.255  0.3741  1.0384  0.2714
    9MOL   N377 4873   1.779   3.791   7.286 -0.0216  0.6862 -0.7914
    9MOL   C378 4874   1.893   3.999   7.251  0.5444 -0.2939  0.4509
    9MOL   C379 4875   2.009   4.075   7.207 -0.1457  0.3123 -0.2449
    9MOL   O380 4876   2.169   4.265   7.047 -0.0579 -0.3032 -0.3516
    9MOL   C381 4877   2.508   4.132   7.041 -0.0965 -0.3667 -0.0001
    9MOL   C382 4878   2.641   4.158   7.013  0.2694 -0.0805 -0.3512
    9MOL   O383 4879   2.841   4.371   6.836  0.2701 -0.2152 -0.3196
    9MOL   H384 4880   2.613   4.495   6.981 -0.0890 -0.3356  1.3435
    9MOL   H385 4881   2.379   4.444   7.050 -1.3721 -1.1579 -0.3580
    9MOL   H386 4882   2.336   4.012   7.153 -0.4642 -1.2613  0.0472
    9MOL   H387 4883   2.221   3.821   7.165  1.3376  1.4300 -0.4762
    9MOL   H388 4884   2.017   3.690   7.213  0.5642  0.8826 -0.7125
    9MOL   H389 4885   1.692   3.841   7.272 -0.0253  0.8739 -0.0891
    9MOL   H390 4886   1.810   4.067   7.267 -0.4981 -0.7818 -2.5110
    9MOL   H391 4887   1.995   4.182   7.196 -0.5893  0.3072  0.2202
    9MOL   H392 4888   2.479   4.028   7.048 -1.4170 -0.0508 -0.6169
    9MOL   H393 4889   2.717   4.081   6.999  1.6088  1.0518  0.5678
    9MOL   C394 4890   1.759   3.671   7.338  0.2455 -0.0768  0.1501
    9MOL   C395 4891   1.622   3.625   7.339  0.7691 -1.0667  0.0624
    9MOL   C396 4892   1.532   3.618   7.227 -1.4114 -0.9268  0.0400
    9MOL   C397 4893   1.394   3.578   7.235  0.1714 -0.5338 -0.2248
    9MOL   C398 4894   1.351   3.522   7.354 -0.2126 -0.4199  0.3796
    9MOL   C399 4895   1.207   3.477   7.379 -0.1987  0.1765  0.2001
    9MOL   N400 4896   1.134   3.445   7.274 -0.3021  0.2238  0.0935
    9MOL   C401 4897   0.994   3.471   7.251 -0.2375 -0.3173  0.9418
    9MOL   C402 4898   0.930   3.574   7.327  0.0002  0.0211 -0.6242
    9MOL   C403 4899   0.800   3.609   7.299  0.1920 -0.2922 -0.5940
    9MOL   C404 4900   0.726   3.536   7.209  0.2035 -0.3680  0.1844
    9MOL   N405 4901   0.590   3.576   7.187  0.4765 -0.1097 -0.3361
    9MOL   C406 4902   0.784   3.428   7.150  0.2109  0.2003 -0.1819
    9MOL   C407 4903   0.921   3.397   7.163 -0.3788 -0.2053  0.2438
    9MOL   O408 4904   1.159   3.472   7.494  0.3424  0.2253 -0.5067
    9MOL   C409 4905   1.434   3.528   7.472  0.1930  0.8165 -0.8011
    9MOL   C410 4906   1.568   3.575   7.464 -0.0057  0.3811 -0.9353
    9MOL   O411 4907   1.845   3.596   7.371  0.0247  0.1202  0.0395
    9MOL   H412 4908   1.556   3.653   7.127 -0.1648 -0.4075  0.5221
    9MOL   H413 4909   1.328   3.577   7.149  0.8726  0.6329 -0.7920
    9MOL   H414 4910   1.189   3.398   7.203 -1.0373  1.3506 -1.2353
    9MOL   H415 4911   0.983   3.636   7.398 -1.6691 -1.5228  2.0529
    9MOL   H416 4912   0.760   3.688   7.360  1.3925 -0.3356  0.2626
    9MOL   H417 4913   0.565   3.654   7.246 -0.8226 -0.6612 -0.1199
    9MOL   H418 4914   0.735   3.364   7.078  0.5384 -0.1922 -0.0592
    9MOL   H419 4915   0.967   3.313   7.112 -0.2173 -0.4401  0.7780
    9MOL   H420 4916   1.402   3.490   7.567 -2.5010  2.4382 -1.0001
    9MOL   H421 4917   1.627   3.579   7.555 -0.2233  0.5773 -0.8004
    9MOL   C422 4918   0.504   3.542   7.082 -0.6899 -0.3057  0.6056
    9MOL   C423 4919   0.382   3.625   7.060 -0.1482  0.2890  0.5031
    9MOL   C424 4920   0.378   3.755   7.106  0.2134 -0.2598 -0.0276
    9MOL   C425 4921   0.272   3.843   7.072 -0.4582 -0.1411  0.1971
    9MOL   C426 4922   0.194   3.807   6.959 -0.7359  0.1078 -0.1784
    9MOL   C427 4923   0.102   3.903   6.885 -0.2376 -0.0840 -0.5387
    9MOL   N428 4924   0.123   4.031   6.908 -0.7342 -0.3715 -0.0065
    9MOL   C429 4925   0.062   4.143   6.857  0.0694  0.5580  0.5569
    9MOL   C430 4926   8.070   4.162   6.868 -0.0018  0.3462 -0.3158
    9MOL   C431 4927   8.009   4.275   6.817 -0.0359  0.1944  0.1702
    9MOL   C432 4928   8.085   4.375   6.744  0.3025  1.0324  0.0424
    9MOL   N433 4929   8.014   4.487   6.702 -0.5826 -0.5924  0.4681
    9MOL   C434 4930   0.079   4.353   6.731  0.2015 -0.5991  0.6255
    9MOL   C435 4931   0.134   4.239   6.787 -0.4242 -0.2366  0.3643
    9MOL   O436 4932   0.003   3.870   6.819  0.0540  0.7426 -0.4547
    9MOL   C437 4933   0.196   3.671   6.912 -0.1337 -0.2359 -0.5520
    9MOL   C438 4934   0.288   3.578   6.960  0.1111 -0.4393 -0.0817
    9MOL   O439 4935   0.518   3.442   7.010 -0.3402 -0.2467  0.3062
    9MOL   H440 4936   0.445   3.798   7.179  1.9823 -0.2477 -1.6352
    9MOL   H441 4937   0.258   3.938   7.121 -0.8852 -0.7661  1.3018
    9MOL   H442 4938   0.206   4.046   6.963 -0.4589  0.1850 -0.5665
    9MOL   H443 4939   8.001   4.091   6.913  2.1612 -1.7758 -0.2503
    9MOL   H444 4940   7.902   4.280   6.822 -0.0273  2.3875 -1.1178
    9MOL   H445 4941   7.944   4.521   6.766 -0.9638 -0.2794 -0.1122
    9MOL   H446 4942   0.144   4.423   6.680  0.1223 -0.8135  0.2260
    9MOL   H447 4943   0.235   4.203   6.777 -1.0120 -0.8411 -4.7033
    9MOL   H448 4944   0.131   3.639   6.832 -0.0159 -0.7881 -0.4235
    9MOL   H449 4945   0.283   3.477   6.921  0.3496 -0.4954  0.0309
    9MOL   C450 4946   8.023   4.554   6.584 -0.2931 -0.0854 -0.1826
    9MOL   C451 4947   7.918   4.658   6.557  0.8283  0.3360 -0.2577
    9MOL   C452 4948   7.815   4.696   6.652 -0.5516 -0.1648  0.3713
    9MOL   C453 4949   7.717   4.790   6.615 -0.7696  0.6353 -0.8399
    9MOL   C454 4950   7.719   4.853   6.494 -0.6250 -0.9934  0.0747
    9MOL   C455 4951   7.626   4.966   6.459 -0.5329 -0.0040 -0.1194
    9MOL   N456 4952   7.512   4.962   6.530  0.1931 -0.1583 -0.3497
    9MOL   C457 4953   7.429   5.068   6.553  0.9449  0.4404 -0.2609
    9MOL   C458 4954   7.350   5.061   6.668 -0.0026 -0.6518 -0.3965
    9MOL   C459 4955   7.252   5.153   6.685 -0.6209 -0.4847 -0.0001
    9MOL   C460 4956   7.230   5.264   6.601  0.1042 -0.2953  0.5526
    9MOL   N461 4957   7.134   5.359   6.645  0.6958  0.1932 -0.6407
    9MOL   C462 4958   7.317   5.280   6.496  0.8085  0.1116  0.7796
    9MOL   C463 4959   7.414   5.181   6.472 -0.2769 -0.3635  0.4802
    9MOL   O464 4960   7.647   5.039   6.364 -0.5039 -0.0097 -0.1761
    9MOL   C465 4961   7.805   4.801   6.394 -0.1140  0.4556  0.7800
    9MOL   C466 4962   7.915   4.720   6.430  0.9177 -0.0355 -0.2268
    9MOL   O467 4963   8.121   4.536   6.508  0.7932 -0.3104 -0.1505
    9MOL   H468 4964   7.822   4.658   6.753 -1.7777 -0.6155  0.2939
    9MOL   H469 4965   7.648   4.824   6.691  1.9511  2.2273  1.0256
    9MOL   H470 4966   7.508   4.878   6.586  1.2586 -0.3479 -0.5405
    9MOL   H471 4967   7.349   4.970   6.728 -0.4371 -0.3427  0.0698
    9MOL   H472 4968   7.191   5.136   6.773  0.1441  2.2534  1.1055
    9MOL   H473 4969   7.094   5.343   6.737  1.9097 -0.7600 -0.2685
    9MOL   H474 4970   7.314   5.359   6.422  0.1267  0.0664  0.7598
    9MOL   H475 4971   7.472   5.194   6.382 -2.9520  0.3479 -1.1916
    9MOL   H476 4972   7.804   4.835   6.291  0.4964 -0.3240  0.5190
    9MOL   H477 4973   7.990   4.700   6.355 -2.4721 -0.9835 -3.4950
    9MOL   C478 4974   7.112   5.480   6.578  0.3090  0.0340 -0.6334
    9MOL   C479 4975   7.022   5.568   6.658 -0.2247 -0.1969  1.3373
    9MOL   C480 4976   6.984   5.693   6.603 -0.8370 -0.2026  0.4300
    9MOL   C481 4977   6.905   5.778   6.681 -0.3102 -0.0037 -0.0210
    9MOL   C482 4978   6.870   5.751   6.814 -0.1759  0.2074  0.3383
    9MOL   C483 4979   6.799   5.850   6.899  0.1406  0.1255 -0.4892
    9MOL   N484 4980   6.853   5.861   7.020 -0.8871 -0.3055 -0.4387
    9MOL   C485 4981   6.803   5.936   7.129  0.2680  0.1085  0.1377
    9MOL   C486 4982   6.732   6.059   7.110 -0.1020  0.9561  0.4665
    9MOL   C487 4983   6.692   6.134   7.219 -0.1055  0.5220 -0.5488
    9MOL   C488 4984   6.722   6.090   7.350  0.6484  0.2503  1.1020
    9MOL   N489 4985   6.661   6.160   7.453 -0.6807  0.6699  0.0503
    9MOL   C490 4986   6.802   5.972   7.372  0.2036 -0.6656  0.1589
    9MOL   C491 4987   6.842   5.898   7.258  0.1864  0.2043 -0.7812
    9MOL   O492 4988   6.704   5.921   6.860 -0.4824 -0.0660 -0.2347
    9MOL   C493 4989   6.912   5.627   6.862  0.4350  0.0936 -0.4364
    9MOL   C494 4990   6.987   5.537   6.789  0.6670  0.4313 -0.1811
    9MOL   O495 4991   7.122   5.500   6.459 -0.1011  0.1254  0.6605
    9MOL   H496 4992   7.028   5.720   6.509  1.8673  1.4185  2.0855
    9MOL   H497 4993   6.889   5.880   6.651 -2.1018  0.1670  1.4196
    9MOL   H498 4994   6.933   5.802   7.038 -1.1956 -0.1246  1.6569
    9MOL   H499 4995   6.706   6.082   7.008  1.5565 -1.9614 -0.6842
    9MOL   H500 4996   6.622   6.214   7.199 -0.3920  0.2596 -0.5903
    9MOL   H501 4997   6.585   6.223   7.433 -0.5553  0.7493 -0.1800
    9MOL   H502 4998   6.832   5.938   7.470 -0.8862 -0.2380  0.6480
    9MOL   H503 4999   6.898   5.806   7.269 -1.3179 -0.8252 -1.6534
    9MOL   H504 5000   6.893   5.597   6.964  0.9076 -0.8114 -0.6158
    9MOL   H505 5001   7.001   5.448   6.849  1.2427 -0.2753 -1.3405
    9MOL   C506 5002   6.702   6.179   7.580 -0.1771 -0.7264  0.4768
    9MOL   C507 5003   6.606   6.265   7.659  0.3185  0.0102  1.3063
    9MOL   C508 5004   6.596   6.401   7.634 -0.0519 -0.3161 -0.4378
    9MOL   C509 5005   6.513   6.474   7.720 -0.3261 -0.5321  0.5603
    9MOL   C510 5006   6.451   6.414   7.829  0.0976  0.0607  1.1024
    9MOL   C511 5007   6.365   6.501   7.919  0.2356  0.2796 -0.5027
    9MOL   N512 5008   6.259   6.562   7.865  0.6080  0.7756  0.0801
    9MOL   C513 5009   6.206   6.544   7.735 -0.1548 -0.4873  0.0443
    9MOL   C514 5010   6.184   6.652   7.653  0.0809 -0.2670  0.1966
    9MOL   C515 5011   6.144   6.641   7.516 -0.9510  0.0808 -0.4031
    9MOL   C516 5012   6.129   6.511   7.462 -0.7016 -0.6922 -0.1244
    9MOL   N517 5013   6.095   6.503   7.318  0.3828  0.2882  0.1695
    9MOL   C518 5014   6.156   6.398   7.547 -0.3933 -0.2884  0.2396
    9MOL   C519 5015   6.188   6.419   7.681 -0.5324  0.1484 -0.4124
    9MOL   O520 5016   6.408   6.521   8.037  0.0333  0.2302 -0.5129
    9MOL   C521 5017   6.466   6.281   7.854  0.6117 -0.0891 -0.4679
    9MOL   C522 5018   6.539   6.207   7.765 -0.1924  0.9148 -0.5693
    9MOL   O523 5019   6.792   6.117   7.642 -0.8606  0.5067 -0.5044
    9MOL   H524 5020   6.645   6.431   7.542  1.9874 -2.7042 -0.2146
    9MOL   H525 5021   6.504   6.579   7.699  0.7521 -0.3501  0.9450
    9MOL   H526 5022   6.210   6.625   7.928  1.4395  0.4838  1.0260
    9MOL   H527 5023   6.207   6.753   7.684  0.4307  0.1154 -1.2782
    9MOL   H528 5024   6.137   6.726   7.449 -2.1968  0.1788 -0.1608
    9MOL   H529 5025   6.143   6.567   7.257 -0.4353 -0.6003 -1.4390
    9MOL   H530 5026   6.141   6.297   7.512  2.0030 -1.0227  1.2637
    9MOL   H531 5027   6.207   6.330   7.740 -1.3293 -0.9762 -1.8352
    9MOL   H532 5028   6.409   6.235   7.933  0.1096 -1.6900 -1.7303
    9MOL   H533 5029   6.534   6.101   7.779 -1.8896  1.0009 -0.4331
    9MOL   C534 5030   6.009   6.414   7.266 -0.1770 -0.1044  0.7745
    9MOL   C535 5031   5.998   6.409   7.117 -0.0723 -0.1619  0.1971
    9MOL   C536 5032   5.911   6.317   7.060 -0.3468  0.4469  0.0338
    9MOL   C537 5033   5.888   6.309   6.922 -0.3301 -0.2106 -0.1280
    9MOL   C538 5034   5.978   6.382   6.841  0.1893 -0.5217  0.3683
    9MOL   C539 5035   5.981   6.380   6.697  0.6230  0.3877 -0.3264
    9MOL   N540 5036   6.044   6.273   6.656 -0.2176 -0.3394 -0.0263
    9MOL   C541 5037   6.097   6.223   6.536 -0.1238  0.2030 -0.2443
    9MOL   C542 5038   6.183   6.112   6.549 -1.2604 -0.2784  0.5513
    9MOL   C543 5039   6.236   6.057   6.435 -0.3529  0.1306 -0.4280
    9MOL   C544 5040   6.185   6.098   6.309 -0.2025  0.2670 -0.5418
    9MOL   N545 5041   6.225   6.038   6.187  0.3452  0.4774 -0.5121
    9MOL   C546 5042   6.099   6.210   6.293  0.1076 -0.2973 -0.6985
    9MOL   C547 5043   6.060   6.279   6.405 -0.0651  0.1502 -0.0319
    9MOL   O548 5044   5.943   6.476   6.633 -0.5348 -0.0694 -0.2938
    9MOL   C549 5045   6.082   6.465   6.896  0.0557  0.2474 -0.6580
    9MOL   C550 5046   6.088   6.473   7.035  0.3887  0.1048 -0.1225
    9MOL   O551 5047   5.944   6.340   7.337  0.0212 -0.3064  0.1751
    9MOL   H552 5048   5.846   6.262   7.126 -1.6482  2.8556  0.8395
    9MOL   H553 5049   5.812   6.247   6.877 -1.1050 -0.4669  1.4956
    9MOL   H554 5050   6.060   6.205   6.729 -0.9427 -1.9940 -1.3797
    9MOL   H555 5051   6.229   6.073   6.639 -3.0444  0.0884  1.6446
    9MOL   H556 5052   6.303   5.973   6.439  0.1302  0.4679 -1.3883
    9MOL   H557 5053   6.306   5.978   6.181  1.1336  1.3934  0.8406
    9MOL   H558 5054   6.063   6.244   6.197 -1.1470 -1.9114 -0.8378
    9MOL   H559 5055   5.987   6.357   6.389 -0.5343 -0.3780 -0.5139
    9MOL   H560 5056   6.158   6.512   6.835 -0.6274 -0.6033 -2.1785
    9MOL   H561 5057   6.167   6.538   7.069  0.5632  0.3317 -0.9349
    9MOL   H562 5058   6.191   6.072   6.098 -4.3289 -1.8282  0.2393
   10MOL     C1 5059   3.554   8.116   7.691 -0.8916  0.3018  0.7474
   10MOL     C2 5060   3.563   0.102   7.748 -0.2598  0.8671  0.0397
   10MOL     C3 5061   3.469   0.197   7.717 -0.1413  0.1411 -1.0615
   10MOL     C4 5062   3.457   0.321   7.782 -0.9262 -0.1769  0.0673
   10MOL     C5 5063   3.540   0.345   7.895 -0.3075  0.2687 -0.2950
   10MOL     C6 5064   3.514   0.469   7.984 -0.3348  0.2667  0.1470
   10MOL     N7 5065   3.556   0.454   8.111  0.8804  0.3856 -0.4173
   10MOL     C8 5066   3.543   0.543   0.076  0.5438 -0.0439 -0.6363
   10MOL     C9 5067   3.511   0.678   0.058  0.2740  0.2643 -0.4027
   10MOL    C10 5068   3.491   0.766   0.168  1.2239  0.0786  0.0857
   10MOL    C11 5069   3.519   0.714   0.299 -0.0709 -0.7925 -0.7424
   10MOL    N12 5070   3.500   0.800   0.407 -0.4491 -0.4483  0.0206
   10MOL    C13 5071   3.555   0.579   0.315  0.0680 -0.8278 -0.2517
   10MOL    C14 5072   3.570   0.499   0.206 -0.3053  0.3679  0.4562
   10MOL    O15 5073   3.445   0.561   7.944  0.2219  0.5781  0.1945
   10MOL    C16 5074   3.644   0.253   7.926 -0.1983  0.1426  0.2234
   10MOL    C17 5075   3.658   0.132   7.848 -0.4616  0.1300  0.2320
   10MOL    O18 5076   3.609   8.014   7.737  0.3720  0.1778  0.1392
   10MOL    H19 5077   3.400   0.179   7.636 -1.2067 -0.4167 -0.0472
   10MOL    H20 5078   3.387   0.399   7.754 -0.1630  1.0869  1.5871
   10MOL    H21 5079   3.612   0.372   8.133  0.0003  0.4226  2.1148
   10MOL    H22 5080   3.501   0.726   8.107 -0.4686  1.5149  0.2743
   10MOL    H23 5081   3.460   0.869   0.160 -2.1789 -0.8459  0.5441
   10MOL    H24 5082   3.459   0.892   0.396 -0.0573 -0.1227  1.2087
   10MOL    H25 5083   3.565   0.524   0.407  0.6884 -3.5137 -1.8865
   10MOL    H26 5084   3.586   0.394   0.222  2.7318  0.1002 -3.5395
   10MOL    H27 5085   3.715   0.278   8.003  0.2157 -0.4223  0.0243
   10MOL    H28 5086   3.739   0.062   7.861 -1.9044 -1.7957 -0.7476
   10MOL    H29 5087   3.492   8.117   7.601 -0.4966 -2.8413  0.3921
   10MOL    C30 5088   3.554   0.789   0.529  0.3758 -0.6885 -0.4153
   10MOL    C31 5089   3.537   0.917   0.604 -0.4759 -0.2101 -0.2442
   10MOL    C32 5090   3.408   0.974   0.619  0.2003 -0.6661  0.2509
   10MOL    C33 5091   3.392   1.069   0.716  0.0258 -0.5153 -0.5003
   10MOL    C34 5092   3.500   1.117   0.795 -0.3064  0.6436 -0.2470
   10MOL    C35 5093   3.487   1.232   0.896  0.0170  0.4898 -0.6828
   10MOL    N36 5094   3.370   1.302   0.882 -0.1919  0.2802  0.2251
   10MOL    C37 5095   3.347   1.433   0.920 -0.0176 -0.2208  0.0941
   10MOL    C38 5096   3.261   1.507   0.835  0.2535 -0.0970 -0.2345
   10MOL    C39 5097   3.236   1.642   0.862 -0.5303 -0.5101 -0.0142
   10MOL    C40 5098   3.304   1.709   0.962 -0.4599 -0.1153  0.2318
   10MOL    N41 5099   3.300   1.848   0.966 -0.1866  0.1435 -0.2189
   10MOL    C42 5100   3.387   1.637   1.051 -0.9553  0.2841  0.1080
   10MOL    C43 5101   3.408   1.500   1.028  0.1764 -0.4157 -0.4147
   10MOL    O44 5102   3.586   1.261   0.959  0.0659 -0.3244  0.2967
   10MOL    C45 5103   3.629   1.071   0.756 -0.0907 -0.3959 -0.8562
   10MOL    C46 5104   3.651   0.974   0.661  0.3537  0.3355 -0.0715
   10MOL    O47 5105   3.615   0.690   0.579  0.1160 -0.4152  0.5474
   10MOL    H48 5106   3.318   0.940   0.570  0.8685  0.8937 -2.1578
   10MOL    H49 5107   3.289   1.098   0.729  0.2630  0.4472 -0.7013
   10MOL    H50 5108   3.304   1.264   0.815 -0.5602 -0.5432  1.0508
   10MOL    H51 5109   3.214   1.462   0.749  1.5948  0.5599 -1.3251
   10MOL    H52 5110   3.168   1.693   0.795  1.0250  2.3627  0.5130
   10MOL    H53 5111   3.275   1.895   0.880 -0.0168  1.9593  0.6981
   10MOL    H54 5112   3.435   1.688   1.134 -1.8753  2.1661 -0.4976
   10MOL    H55 5113   3.483   1.450   1.088  1.1414 -0.2933 -1.4994
   10MOL    H56 5114   3.722   1.106   0.797 -0.5362  2.0409 -1.8532
   10MOL    H57 5115   3.749   0.929   0.651  0.3586  0.1060  0.9363
   10MOL    C58 5116   3.321   1.932   1.074  0.2981 -0.1870 -0.5530
   10MOL    C59 5117   3.290   2.078   1.046  0.3525  0.8333 -0.0765
   10MOL    C60 5118   3.200   2.127   0.945  0.7275 -0.5571 -1.0443
   10MOL    C61 5119   3.177   2.267   0.934 -0.1841  0.5751  0.2819
   10MOL    C62 5120   3.252   2.365   1.003 -0.7879 -0.0543 -0.1598
   10MOL    C63 5121   3.242   2.514   0.966  0.1075  0.0200  0.1047
   10MOL    N64 5122   3.130   2.555   0.894 -0.0098  0.4936 -0.0666
   10MOL    C65 5123   3.087   2.685   0.867 -0.0781 -0.2041 -0.4080
   10MOL    C66 5124   3.007   2.702   0.751 -0.1575  0.0211 -0.1133
   10MOL    C67 5125   2.969   2.831   0.719 -0.0565  0.3532  0.2027
   10MOL    C68 5126   3.008   2.942   0.791  0.0773  0.8401  0.1529
   10MOL    N69 5127   2.988   3.073   0.734 -0.8838 -0.0965  0.2409
   10MOL    C70 5128   3.071   2.924   0.914 -0.2338  0.0168  0.4958
   10MOL    C71 5129   3.119   2.796   0.951 -0.0998  0.3064  0.0419
   10MOL    O72 5130   3.316   2.599   1.016 -0.3335 -0.5058  0.0020
   10MOL    C73 5131   3.340   2.321   1.103 -0.7280  0.0579  0.3253
   10MOL    C74 5132   3.361   2.177   1.120  0.3701  0.0275  0.3909
   10MOL    O75 5133   3.332   1.892   1.192 -0.5272 -0.4302 -0.4443
   10MOL    H76 5134   3.164   2.060   0.868  0.1835 -2.2351  0.6290
   10MOL    H77 5135   3.113   2.294   0.851 -1.1001 -1.4794  0.2727
   10MOL    H78 5136   3.067   2.479   0.875 -1.1005  0.5918  2.8039
   10MOL    H79 5137   2.998   2.617   0.685  0.1938  0.2695 -0.4823
   10MOL    H80 5138   2.913   2.848   0.628 -1.8261  3.0865  1.7497
   10MOL    H81 5139   2.998   3.079   0.634  0.8468 -0.0682  0.4123
   10MOL    H82 5140   3.101   3.005   0.980  0.3654 -1.3810  1.9670
   10MOL    H83 5141   3.181   2.784   1.039 -3.1342 -0.7926  2.1058
   10MOL    H84 5142   3.391   2.398   1.159  1.2408 -0.8004 -0.2272
   10MOL    H85 5143   3.434   2.146   1.194 -0.8535  2.0699  2.5231
   10MOL    C86 5144   2.988   3.196   0.796 -0.6283  0.1461 -0.2138
   10MOL    C87 5145   3.007   3.306   0.698 -0.1212 -0.5457  0.3665
   10MOL    C88 5146   2.927   3.420   0.693  0.2136 -0.5681  0.1324
   10MOL    C89 5147   2.963   3.518   0.602 -0.1868  1.0615  0.0679
   10MOL    C90 5148   3.084   3.509   0.524 -0.3468 -0.5244 -0.7268
   10MOL    C91 5149   3.141   3.622   0.439 -0.1987 -0.3831  0.3796
   10MOL    N92 5150   3.266   3.656   0.473  0.1997  0.3358  0.0793
   10MOL    C93 5151   3.350   3.748   0.400  1.0123  0.0320 -0.0209
   10MOL    C94 5152   3.451   3.813   0.476  0.8017  0.2080 -0.4198
   10MOL    C95 5153   3.527   3.911   0.416  0.2190 -1.0995  1.1671
   10MOL    C96 5154   3.512   3.943   0.277  0.0539 -0.4098 -0.3110
   10MOL    N97 5155   3.598   4.031   0.222  0.2757 -0.3205 -0.1398
   10MOL    C98 5156   3.417   3.876   0.198  0.1070  0.1579 -0.4134
   10MOL    C99 5157   3.337   3.776   0.260  0.5090  0.2066 -0.0154
   10MOL   O100 5158   3.068   3.680   0.355 -0.6644 -0.2473  0.0406
   10MOL   C101 5159   3.166   3.390   0.533  0.0284 -0.0864  0.0171
   10MOL   C102 5160   3.120   3.291   0.620 -0.0043  0.0437 -0.1076
   10MOL   O103 5161   2.979   3.226   0.918 -0.4349 -0.6699 -0.2881
   10MOL   H104 5162   2.851   3.428   0.769  1.4769  2.0742  1.1693
   10MOL   H105 5163   2.905   3.609   0.593  0.2356  1.0763 -2.7680
   10MOL   H106 5164   3.293   3.622   0.564 -1.9743  0.8010  0.9036
   10MOL   H107 5165   3.469   3.784   0.578  1.2521  1.9425  0.0039
   10MOL   H108 5166   3.610   3.956   0.469  2.2280 -1.9565 -1.1306
   10MOL   H109 5167   3.654   3.993   0.147  2.2609  1.0679  0.5649
   10MOL   H110 5168   3.405   3.901   0.094 -0.6323 -0.0848 -0.3953
   10MOL   H111 5169   3.253   3.740   0.203  0.0530 -0.7634  1.2273
   10MOL   H112 5170   3.262   3.379   0.485 -0.6913  1.1497 -1.7227
   10MOL   H113 5171   3.178   3.203   0.641  2.4499  0.7427 -3.4661
   10MOL   C114 5172   3.621   4.154   0.266  0.7545 -0.1652  0.2156
   10MOL   C115 5173   3.747   4.219   0.216 -0.4018 -1.2577 -0.7822
   10MOL   C116 5174   3.852   4.145   0.169 -0.6095 -0.4665  0.6191
   10MOL   C117 5175   3.978   4.205   0.153 -0.4992 -0.3969  0.7033
   10MOL   C118 5176   3.996   4.345   0.171  0.2415 -0.1162 -0.5991
   10MOL   C119 5177   4.131   4.406   0.155  0.7505  0.5780  0.7826
   10MOL   N120 5178   4.173   4.459   0.265  0.2469 -0.7797  0.2670
   10MOL   C121 5179   4.248   4.579   0.275  0.0367 -0.8476  0.7206
   10MOL   C122 5180   4.209   4.666   0.379  0.6921 -0.1820 -0.7396
   10MOL   C123 5181   4.265   4.795   0.390  0.8145  0.3950 -0.0231
   10MOL   C124 5182   4.357   4.839   0.292  0.3383  0.0547  0.0481
   10MOL   N125 5183   4.402   4.967   0.309  0.0489  0.2132 -0.7444
   10MOL   C126 5184   4.395   4.752   0.183  0.0212 -0.5007  0.4740
   10MOL   C127 5185   4.339   4.625   0.176  0.2994  0.5244 -0.5675
   10MOL   O128 5186   4.190   4.397   0.049 -0.3472  0.3610  0.0539
   10MOL   C129 5187   3.881   4.423   0.207 -0.2508 -0.1582 -0.3225
   10MOL   C130 5188   3.754   4.361   0.230 -0.4592 -0.0127  0.0667
   10MOL   O131 5189   3.550   4.214   0.346 -0.6213 -0.2987 -0.3075
   10MOL   H132 5190   3.851   4.038   0.156  0.7385 -0.3093 -1.0789
   10MOL   H133 5191   4.062   4.151   0.112 -1.3729  0.3592 -2.1829
   10MOL   H134 5192   4.099   4.442   0.331  0.5977  1.5040  1.2957
   10MOL   H135 5193   4.152   4.617   0.456  0.4022 -1.6722 -1.8838
   10MOL   H136 5194   4.229   4.859   0.469 -1.1690  1.3953 -1.6998
   10MOL   H137 5195   4.378   5.004   0.400  0.4542 -2.1547  0.3447
   10MOL   H138 5196   4.468   4.784   0.110  1.5347  1.3494  2.7047
   10MOL   H139 5197   4.370   4.564   0.092  0.1819  0.9497 -0.9230
   10MOL   H140 5198   3.885   4.531   0.208  0.4978 -0.1861  0.2918
   10MOL   H141 5199   3.663   4.419   0.240  0.0840  1.2125 -1.7637
   10MOL   C142 5200   4.404   5.058   0.218  0.3033 -0.3242  0.3888
   10MOL   C143 5201   4.408   5.198   0.277 -0.0779 -0.5192  0.0040
   10MOL   C144 5202   4.414   5.303   0.196  0.0578 -0.8066 -0.1127
   10MOL   C145 5203   4.414   5.434   0.241 -0.1973 -0.8788 -0.2589
   10MOL   C146 5204   4.415   5.458   0.375 -0.5044 -0.0599 -0.2521
   10MOL   C147 5205   4.428   5.599   0.429 -0.4564 -0.2697  0.7954
   10MOL   N148 5206   4.481   5.606   0.549  0.3397  0.0195 -0.0789
   10MOL   C149 5207   4.495   5.718   0.633 -0.5299  0.1160  0.0234
   10MOL   C150 5208   4.548   5.684   0.756 -0.0830  0.2817  0.6629
   10MOL   C151 5209   4.571   5.783   0.855  0.4303 -0.0778  0.0207
   10MOL   C152 5210   4.542   5.919   0.823  0.0630  0.3106  0.2432
   10MOL   N153 5211   4.578   6.013   0.922  1.2044 -0.5119 -0.0224
   10MOL   C154 5212   4.492   5.953   0.698  0.3630  0.2095  0.4981
   10MOL   C155 5213   4.478   5.857   0.595  0.0460 -0.5140 -0.0164
   10MOL   O156 5214   4.398   5.698   0.356 -0.0190  0.0361  0.1354
   10MOL   C157 5215   4.404   5.346   0.466 -0.2016 -0.4287  0.8970
   10MOL   C158 5216   4.405   5.216   0.417  0.0183 -0.0740 -0.2530
   10MOL   O159 5217   4.427   5.042   0.097  0.1344 -0.2175 -0.5457
   10MOL   H160 5218   4.401   5.282   0.090 -1.7318 -0.4798  0.0174
   10MOL   H161 5219   4.405   5.512   0.166  1.0042 -0.9168 -0.4505
   10MOL   H162 5220   4.482   5.514   0.590 -0.2968  0.4225  0.8669
   10MOL   H163 5221   4.570   5.581   0.782  2.0229  0.8678  1.3230
   10MOL   H164 5222   4.601   5.757   0.956 -2.6216  0.1613  1.0735
   10MOL   H165 5223   4.633   5.985   1.002  0.5413 -1.8954 -0.0337
   10MOL   H166 5224   4.483   6.059   0.682 -0.6321  0.4008  2.1381
   10MOL   H167 5225   4.457   5.889   0.494 -1.4276 -2.4042 -0.3322
   10MOL   H168 5226   4.382   5.362   0.570  0.5652  1.5489  0.7722
   10MOL   H169 5227   4.392   5.142   0.495 -0.1490  0.8699  0.6096
   10MOL   C170 5228   4.519   6.136   0.931  0.8670 -0.8374 -0.4800
   10MOL   C171 5229   4.535   6.200   1.061  0.0342 -0.5013  0.9795
   10MOL   C172 5230   4.425   6.270   1.121 -0.7213  0.2382 -0.6825
   10MOL   C173 5231   4.441   6.338   1.243 -0.2445  0.2406  0.4744
   10MOL   C174 5232   4.573   6.338   1.300 -0.6634  0.4915  0.5778
   10MOL   C175 5233   4.607   6.418   1.419 -0.2852  0.1109 -0.0325
   10MOL   N176 5234   4.508   6.425   1.501  0.2679 -0.7811  0.3395
   10MOL   C177 5235   4.487   6.514   1.612  0.3667 -0.9182  0.1211
   10MOL   C178 5236   4.589   6.594   1.676 -0.1601 -0.0832 -0.0648
   10MOL   C179 5237   4.542   6.692   1.768 -0.6687  0.5153  0.4492
   10MOL   C180 5238   4.411   6.708   1.803 -0.3710  0.7837 -0.0551
   10MOL   N181 5239   4.369   6.813   1.890  0.2373  0.1999  0.3641
   10MOL   C182 5240   4.314   6.617   1.748  0.2646 -0.2659 -0.0777
   10MOL   C183 5241   4.353   6.525   1.653  0.0886 -0.0624  0.1863
   10MOL   O184 5242   4.722   6.460   1.449 -0.1625  0.1740  0.0653
   10MOL   C185 5243   4.677   6.262   1.240  0.1517  0.0270  0.6482
   10MOL   C186 5244   4.659   6.192   1.121  0.0104  0.3261 -0.2454
   10MOL   O187 5245   4.447   6.189   0.848 -0.4033  0.4690 -0.1937
   10MOL   H188 5246   4.330   6.281   1.072 -1.1012  2.2449  0.4393
   10MOL   H189 5247   4.376   6.412   1.286  1.5216  0.8253  2.1771
   10MOL   H190 5248   4.433   6.363   1.476 -0.7785  0.4977  0.2619
   10MOL   H191 5249   4.694   6.599   1.650  0.3097  0.2822  1.8097
   10MOL   H192 5250   4.613   6.761   1.812 -0.5944 -0.0555  1.2376
   10MOL   H193 5251   4.304   6.878   1.848 -0.1405 -0.4445 -0.0722
   10MOL   H194 5252   4.207   6.627   1.757  0.5734  2.3021  1.2500
   10MOL   H195 5253   4.278   6.476   1.592  1.9662 -3.1193  0.2307
   10MOL   H196 5254   4.779   6.261   1.276  1.0877  1.0165 -1.9135
   10MOL   H197 5255   4.750   6.155   1.076  0.3290  1.6394 -0.7098
   10MOL   C198 5256   4.423   6.860   2.002 -0.4618  0.2769 -0.7118
   10MOL   C199 5257   4.502   6.767   2.099  0.7586  0.1863  0.4669
   10MOL   C200 5258   4.588   6.822   2.198 -0.7310  0.2494 -0.1094
   10MOL   C201 5259   4.663   6.745   2.286 -0.5813  0.3354  0.1941
   10MOL   C202 5260   4.638   6.602   2.286  0.0631  0.2069 -0.1043
   10MOL   C203 5261   4.718   6.517   2.386  0.4586 -0.1976  0.0686
   10MOL   N204 5262   4.786   6.413   2.330  0.3512 -0.0581 -0.3867
   10MOL   C205 5263   4.862   6.307   2.389  0.5737 -0.3692  0.1952
   10MOL   C206 5264   4.921   6.213   2.302 -0.2573 -0.0555 -0.1757
   10MOL   C207 5265   4.999   6.109   2.346  0.5935  0.4377 -0.1260
   10MOL   C208 5266   5.021   6.098   2.487  0.9225 -0.3757 -0.2912
   10MOL   N209 5267   5.101   5.995   2.532 -0.6035  0.3065  0.7536
   10MOL   C210 5268   4.960   6.192   2.577  0.2855  0.5565  0.1157
   10MOL   C211 5269   4.880   6.294   2.527  0.4749  0.1964  0.3367
   10MOL   O212 5270   4.722   6.542   2.505  0.0621  0.0486  0.1331
   10MOL   C213 5271   4.559   6.545   2.187 -0.0936 -0.3257  0.6265
   10MOL   C214 5272   4.481   6.623   2.098 -0.1460 -0.1046 -0.3095
   10MOL   O215 5273   4.422   6.980   2.027 -0.2764 -0.3719  0.7052
   10MOL   H216 5274   4.593   6.930   2.200  0.5671  0.1761  1.2657
   10MOL   H217 5275   4.723   6.803   2.355 -0.7580 -0.3832  0.9588
   10MOL   H218 5276   4.766   6.402   2.232  1.2048  1.4336 -0.7359
   10MOL   H219 5277   4.917   6.219   2.194  0.3344 -2.6346 -0.3657
   10MOL   H220 5278   5.042   6.044   2.272 -0.4786  0.8760 -1.1501
   10MOL   H221 5279   5.076   5.901   2.503  0.3719  0.0625  0.6622
   10MOL   H222 5280   4.967   6.167   2.682  3.5471 -1.3105 -0.4812
   10MOL   H223 5281   4.831   6.355   2.601 -2.1700 -2.0440  0.4955
   10MOL   H224 5282   4.544   6.438   2.180  1.9184 -0.7054  1.5487
   10MOL   H225 5283   4.402   6.572   2.045 -0.8449  3.1207 -2.4654
   10MOL   C226 5284   5.188   5.993   2.633 -0.5381 -0.3291  0.1099
   10MOL   C227 5285   5.245   5.857   2.654 -0.1483 -0.1442  0.2539
   10MOL   C228 5286   5.171   5.741   2.635  0.3056 -1.2770 -0.2257
   10MOL   C229 5287   5.225   5.610   2.652  0.4157  0.4747  0.4919
   10MOL   C230 5288   5.362   5.599   2.700 -0.6685  0.8816 -0.2777
   10MOL   C231 5289   5.430   5.466   2.728  0.1022 -0.5010 -0.5585
   10MOL   N232 5290   5.394   5.370   2.648 -0.3783 -1.0046  0.0397
   10MOL   C233 5291   5.393   5.237   2.672  0.1215  0.7482 -0.4793
   10MOL   C234 5292   5.472   5.182   2.769 -0.2312  0.0327 -0.1782
   10MOL   C235 5293   5.475   5.048   2.792 -0.2969  0.5611  0.1625
   10MOL   C236 5294   5.377   4.964   2.730  0.1133  0.3373 -0.6442
   10MOL   N237 5295   5.378   4.820   2.763 -0.0429  0.3661  0.2060
   10MOL   C238 5296   5.304   5.015   2.624 -0.2815 -0.0143  0.4417
   10MOL   C239 5297   5.312   5.151   2.591 -0.0695  0.2552  0.2291
   10MOL   O240 5298   5.499   5.458   2.829 -0.3360  0.4176 -0.3300
   10MOL   C241 5299   5.432   5.721   2.723 -0.8239  0.6295  0.4210
   10MOL   C242 5300   5.373   5.848   2.707  0.3969 -0.0282 -0.2655
   10MOL   O243 5301   5.219   6.096   2.693  0.3300  0.3493  0.0861
   10MOL   H244 5302   5.067   5.752   2.607 -0.0874  1.3118  2.1079
   10MOL   H245 5303   5.151   5.533   2.665  1.2844 -0.4769 -0.1775
   10MOL   H246 5304   5.340   5.400   2.568  2.1585  1.6921 -0.7416
   10MOL   H247 5305   5.548   5.241   2.817  0.2720  0.6837 -1.7488
   10MOL   H248 5306   5.543   5.007   2.865  0.0953  0.3833 -0.2995
   10MOL   H249 5307   5.455   4.786   2.820  1.8475 -1.8237 -3.4545
   10MOL   H250 5308   5.255   4.938   2.566 -0.3840  0.3079  0.0954
   10MOL   H251 5309   5.245   5.181   2.511 -0.2848 -1.0812 -0.1114
   10MOL   H252 5310   5.538   5.710   2.743 -0.6625 -1.8189 -1.5672
   10MOL   H253 5311   5.428   5.938   2.729  1.9348 -0.7732 -0.9255
   10MOL   C254 5312   5.283   4.724   2.760  0.2828 -0.2616 -0.0486
   10MOL   C255 5313   5.330   4.596   2.816 -0.2712  0.2256  0.4639
   10MOL   C256 5314   5.467   4.562   2.822  0.3355  0.2041 -0.4072
   10MOL   C257 5315   5.520   4.442   2.882 -0.6824 -0.5381  0.5328
   10MOL   C258 5316   5.433   4.341   2.920  0.8832 -0.2318  0.2889
   10MOL   C259 5317   5.486   4.207   2.962  0.1271 -0.0210 -0.1907
   10MOL   N260 5318   5.624   4.201   2.970 -0.5627 -0.1702  0.2105
   10MOL   C261 5319   5.709   4.093   2.980  0.5181  0.4575 -0.1609
   10MOL   C262 5320   5.704   3.998   2.881  0.6605 -0.2480 -0.4742
   10MOL   C263 5321   5.807   3.902   2.873  0.2602  0.1789  0.0509
   10MOL   C264 5322   5.911   3.907   2.974  0.2570 -0.1230 -0.0501
   10MOL   N265 5323   6.007   3.811   2.952 -0.2992  0.1916  0.0737
   10MOL   C266 5324   5.903   3.987   3.089  0.0829  0.2634  0.2990
   10MOL   C267 5325   5.807   4.089   3.077 -0.4100  0.7695  0.6219
   10MOL   O268 5326   5.413   4.114   2.996 -0.5918  0.3717 -0.1483
   10MOL   C269 5327   5.292   4.362   2.910  1.3653 -0.1922 -0.7166
   10MOL   C270 5328   5.247   4.489   2.862 -0.5009  0.1184  0.2042
   10MOL   O271 5329   5.167   4.738   2.727  0.2309  0.2936 -0.3802
   10MOL   H272 5330   5.540   4.629   2.779  0.7656 -0.7651 -1.1804
   10MOL   H273 5331   5.626   4.426   2.865 -1.1462 -1.1966 -1.9133
   10MOL   H274 5332   5.669   4.291   2.972 -1.8589  0.5403 -1.1760
   10MOL   H275 5333   5.631   4.014   2.803  0.7248 -2.8693 -1.1171
   10MOL   H276 5334   5.824   3.841   2.786  4.0672  0.9897  0.1141
   10MOL   H277 5335   6.044   3.761   3.033  0.0313  0.1492 -0.1021
   10MOL   H278 5336   5.985   3.992   3.160  0.0324 -2.3891  0.5680
   10MOL   H279 5337   5.791   4.165   3.152 -2.7783 -0.4678  1.4093
   10MOL   H280 5338   5.224   4.283   2.939  0.8415 -0.0203 -1.4695
   10MOL   H281 5339   5.142   4.513   2.855 -0.3338  1.0411  0.7993
   10MOL   C282 5340   6.084   3.797   2.846  0.3283  0.2770 -0.2589
   10MOL   C283 5341   6.174   3.670   2.840 -0.2337 -0.7504  0.0116
   10MOL   C284 5342   6.185   3.572   2.941 -0.6501  0.8147 -0.6470
   10MOL   C285 5343   6.264   3.456   2.918 -0.0833 -2.2341  0.0718
   10MOL   C286 5344   6.351   3.447   2.811  0.6681  0.2559 -0.0881
   10MOL   C287 5345   6.437   3.328   2.788 -0.4025 -0.9681 -0.4011
   10MOL   N288 5346   6.554   3.354   2.727  0.2624 -0.2522 -0.2273
   10MOL   C289 5347   6.654   3.260   2.691 -0.6003 -0.7501  1.1881
   10MOL   C290 5348   6.743   3.310   2.596 -0.5001 -0.0336 -0.0627
   10MOL   C291 5349   6.844   3.231   2.550 -0.1923  1.1677 -1.2926
   10MOL   C292 5350   6.851   3.093   2.585 -0.5976  0.1183  0.2299
   10MOL   N293 5351   6.957   3.010   2.538 -0.3127 -0.0760  0.3282
   10MOL   C294 5352   6.759   3.043   2.683  0.2089 -0.0046  0.0224
   10MOL   C295 5353   6.663   3.125   2.733 -0.3512  0.8191  0.3749
   10MOL   O296 5354   6.402   3.223   2.840 -0.7663  0.4554 -0.0472
   10MOL   C297 5355   6.356   3.552   2.719  0.7717  0.0679  0.1516
   10MOL   C298 5356   6.275   3.666   2.742 -0.2068 -0.4062  0.9204
   10MOL   O299 5357   6.098   3.891   2.770 -0.1233 -0.3040 -0.4643
   10MOL   H300 5358   6.119   3.578   3.027 -1.1827  0.8438 -1.0536
   10MOL   H301 5359   6.262   3.389   3.003 -1.2078  1.0252  2.7619
   10MOL   H302 5360   6.563   3.448   2.693 -0.4242  0.0001  0.2734
   10MOL   H303 5361   6.741   3.414   2.566 -0.0092  0.3807  1.2906
   10MOL   H304 5362   6.913   3.281   2.484  0.1260  2.0063 -0.3345
   10MOL   H305 5363   6.938   2.923   2.489  2.1232  0.6445 -1.9619
   10MOL   H306 5364   6.758   2.941   2.719  0.4961  0.8523  2.5587
   10MOL   H307 5365   6.603   3.077   2.808 -0.2321 -2.4457 -1.5279
   10MOL   H308 5366   6.414   3.547   2.628 -0.7376  0.7711 -0.8765
   10MOL   H309 5367   6.278   3.746   2.670 -2.3031 -1.6926 -0.6659
   10MOL   C310 5368   7.089   3.033   2.558 -0.0520  0.9742 -0.7405
   10MOL   C311 5369   7.121   3.147   2.652  0.2034 -0.1922  0.3469
   10MOL   C312 5370   7.165   3.269   2.590 -0.8020  0.3400 -0.3807
   10MOL   C313 5371   7.233   3.369   2.668 -0.3057 -0.1024  0.3892
   10MOL   C314 5372   7.242   3.354   2.809  0.3567 -0.1310 -0.6047
   10MOL   C315 5373   7.316   3.456   2.886 -0.1203 -0.1434  0.7264
   10MOL   N316 5374   7.265   3.576   2.903  0.2673  0.4371  0.0298
   10MOL   C317 5375   7.145   3.638   2.852  0.6383 -1.2679  0.5840
   10MOL   C318 5376   7.143   3.768   2.805  0.3076 -0.4740 -0.0102
   10MOL   C319 5377   7.024   3.834   2.778  0.7169  0.2039  0.5526
   10MOL   C320 5378   6.903   3.762   2.782 -0.2767 -0.5283 -0.4247
   10MOL   N321 5379   6.787   3.835   2.752  0.2815 -0.4081 -0.0109
   10MOL   C322 5380   6.908   3.622   2.807 -0.0663 -0.8426  0.6071
   10MOL   C323 5381   7.024   3.565   2.853 -0.6889 -0.5852  0.4029
   10MOL   O324 5382   7.421   3.420   2.939  0.0222 -0.0316 -0.0626
   10MOL   C325 5383   7.180   3.239   2.866 -0.4702  0.7382 -0.3268
   10MOL   C326 5384   7.121   3.135   2.791  0.1804 -0.2410  0.1996
   10MOL   O327 5385   7.171   2.971   2.494  0.2483  0.2718  0.1362
   10MOL   H328 5386   7.153   3.275   2.482  0.2463  1.5536 -0.4474
   10MOL   H329 5387   7.284   3.452   2.621 -2.3188  2.0988  1.9603
   10MOL   H330 5388   7.329   3.643   2.943  0.3952 -0.1692  0.8299
   10MOL   H331 5389   7.238   3.821   2.803 -1.1986  2.3571  0.3731
   10MOL   H332 5390   7.035   3.941   2.766 -2.0706  0.4173 -0.4861
   10MOL   H333 5391   6.800   3.934   2.739 -0.4940 -0.4092 -0.8463
   10MOL   H334 5392   6.819   3.562   2.794  0.4477 -1.5124  0.1715
   10MOL   H335 5393   7.017   3.462   2.884  2.1707 -0.5924  1.2216
   10MOL   H336 5394   7.179   3.213   2.970  0.5736 -0.3566 -0.5862
   10MOL   H337 5395   7.079   3.051   2.844 -1.0907 -0.4642 -1.1387
   10MOL   C338 5396   6.671   3.796   2.692  0.0130 -0.0055  0.6592
   10MOL   C339 5397   6.568   3.900   2.660  0.2999 -0.5819  0.1108
   10MOL   C340 5398   6.464   3.885   2.566 -0.4130 -0.3371  0.6942
   10MOL   C341 5399   6.372   3.989   2.544 -0.1624  0.4542 -0.0480
   10MOL   C342 5400   6.380   4.116   2.613  0.3146  0.0211 -0.2501
   10MOL   C343 5401   6.266   4.213   2.600 -0.7052 -0.0053 -0.0174
   10MOL   N344 5402   6.151   4.153   2.618 -0.2762  0.3072  0.2841
   10MOL   C345 5403   6.018   4.202   2.596  0.2949  1.0013 -0.2914
   10MOL   C346 5404   5.915   4.108   2.568  0.0069  0.2646 -0.1358
   10MOL   C347 5405   5.788   4.153   2.522 -0.6320  0.3541  0.3636
   10MOL   C348 5406   5.761   4.291   2.517  0.1948  0.3407 -0.0362
   10MOL   N349 5407   5.632   4.344   2.487  0.5794  0.7271  0.3584
   10MOL   C350 5408   5.860   4.379   2.567 -0.2871 -0.3224 -0.4727
   10MOL   C351 5409   5.992   4.339   2.599  0.4974  0.0210  0.2222
   10MOL   O352 5410   6.281   4.334   2.586 -0.4817 -0.3005 -0.0922
   10MOL   C353 5411   6.482   4.128   2.709  0.4102 -0.1874 -0.1066
   10MOL   C354 5412   6.566   4.018   2.737  0.1559 -0.2621 -0.5271
   10MOL   O355 5413   6.640   3.679   2.669 -0.5564  0.7205  0.4652
   10MOL   H356 5414   6.458   3.788   2.519 -1.8132 -1.1523  2.4516
   10MOL   H357 5415   6.296   3.967   2.470 -1.5487 -0.0322  1.5112
   10MOL   H358 5416   6.151   4.055   2.643 -1.1034 -0.1199 -1.3233
   10MOL   H359 5417   5.939   4.003   2.582  2.0313  0.7250 -0.0220
   10MOL   H360 5418   5.714   4.080   2.496 -0.6558  0.0767  1.1758
   10MOL   H361 5419   5.632   4.442   2.466  1.1187  0.9760  1.4873
   10MOL   H362 5420   5.842   4.486   2.568  1.3040 -0.0238 -1.7048
   10MOL   H363 5421   6.063   4.417   2.623  1.0882 -0.5527  0.3256
   10MOL   H364 5422   6.473   4.215   2.773  1.0500  0.2386 -0.5866
   10MOL   H365 5423   6.627   4.022   2.825  1.1582  0.8109 -1.2577
   10MOL   C366 5424   5.514   4.292   2.519  0.3008  0.1918  0.1715
   10MOL   C367 5425   5.400   4.388   2.493  0.5355  0.5150 -0.4409
   10MOL   C368 5426   5.417   4.514   2.429 -0.0566 -0.1581  0.4741
   10MOL   C369 5427   5.305   4.594   2.406  0.2792  0.2520  0.5008
   10MOL   C370 5428   5.178   4.556   2.440  0.6331  0.3815 -1.0678
   10MOL   C371 5429   5.063   4.642   2.397  0.7245 -0.7130  0.0084
   10MOL   N372 5430   4.983   4.683   2.499  0.0467 -0.2697  0.1067
   10MOL   C373 5431   4.855   4.737   2.484 -0.1929 -0.0676 -0.2233
   10MOL   C374 5432   4.826   4.823   2.374  1.4438  0.3163 -0.1460
   10MOL   C375 5433   4.696   4.875   2.356 -0.3873 -0.3116 -0.4370
   10MOL   C376 5434   4.601   4.848   2.455  0.4508  0.1349  1.2550
   10MOL   N377 5435   4.473   4.909   2.447 -0.2146  0.1541 -0.8074
   10MOL   C378 5436   4.627   4.763   2.561 -0.7336 -0.4490 -0.7437
   10MOL   C379 5437   4.761   4.715   2.584 -0.6087  0.3422  0.7644
   10MOL   O380 5438   5.036   4.670   2.282  0.0501 -0.0075  0.1167
   10MOL   C381 5439   5.160   4.437   2.510 -0.0454 -0.9239 -0.2755
   10MOL   C382 5440   5.268   4.350   2.539  0.4667  0.6818  0.9541
   10MOL   O383 5441   5.495   4.184   2.581 -0.5117 -0.2152  0.6729
   10MOL   H384 5442   5.514   4.552   2.401  0.4405 -2.1850 -0.6478
   10MOL   H385 5443   5.319   4.688   2.356  5.4625 -0.6355  0.0154
   10MOL   H386 5444   5.018   4.657   2.590  3.1458  1.4415 -0.5372
   10MOL   H387 5445   4.907   4.855   2.310  1.3808  1.6467  0.4209
   10MOL   H388 5446   4.678   4.949   2.279 -1.8493  1.6127  1.6608
   10MOL   H389 5447   4.394   4.869   2.495  0.3952  2.6445  2.4781
   10MOL   H390 5448   4.545   4.739   2.628 -1.0564  0.3026 -0.8659
   10MOL   H391 5449   4.782   4.653   2.669 -2.4713  2.9331  3.2142
   10MOL   H392 5450   5.061   4.412   2.547 -0.7653  1.3169 -0.6118
   10MOL   H393 5451   5.251   4.253   2.582 -1.1142 -0.0973 -1.3654
   10MOL   C394 5452   4.448   5.035   2.398 -0.1080 -0.1744 -0.8322
   10MOL   C395 5453   4.300   5.062   2.369  0.0735 -0.2693  0.1188
   10MOL   C396 5454   4.214   4.956   2.350  0.3748  0.0807 -0.1372
   10MOL   C397 5455   4.079   4.976   2.312  0.6918  0.2898 -0.9167
   10MOL   C398 5456   4.030   5.109   2.300  0.3857  0.0823 -0.0345
   10MOL   C399 5457   3.891   5.139   2.264  0.0175  0.0879  0.0667
   10MOL   N400 5458   3.801   5.047   2.307  0.6335 -0.0449  0.2237
   10MOL   C401 5459   3.669   5.028   2.271 -0.4323  0.2188  0.2306
   10MOL   C402 5460   3.601   5.143   2.219  0.6668  0.0345  0.3738
   10MOL   C403 5461   3.469   5.133   2.167 -0.0545  0.4213 -0.2468
   10MOL   C404 5462   3.407   5.007   2.170  0.6236  0.5476 -0.2104
   10MOL   N405 5463   3.277   5.033   2.115  0.0777  0.0442 -1.0334
   10MOL   C406 5464   3.465   4.896   2.239  0.2059  0.7194 -0.1204
   10MOL   C407 5465   3.598   4.910   2.288  0.8095  0.1205  0.4650
   10MOL   O408 5466   3.870   5.244   2.198 -0.2726 -0.7493  0.5704
   10MOL   C409 5467   4.118   5.217   2.315 -0.8420 -0.3825  0.1533
   10MOL   C410 5468   4.254   5.193   2.352 -0.2774  0.2036  0.5354
   10MOL   O411 5469   4.529   5.124   2.373 -0.2662 -0.0830  0.1811
   10MOL   H412 5470   4.254   4.856   2.344 -1.5681 -0.6484 -1.3165
   10MOL   H413 5471   4.010   4.896   2.292 -1.1240  1.7166 -0.4602
   10MOL   H414 5472   3.837   4.967   2.358  1.1311  0.7890  1.2083
   10MOL   H415 5473   3.643   5.242   2.225 -1.4909  1.0202 -0.2291
   10MOL   H416 5474   3.419   5.226   2.146 -1.1526 -0.2556 -0.6579
   10MOL   H417 5475   3.254   5.127   2.086 -1.6068  0.1102  0.4272
   10MOL   H418 5476   3.407   4.806   2.254 -0.0937  1.0376  0.6897
   10MOL   H419 5477   3.645   4.826   2.335 -2.3451 -1.0402  1.6547
   10MOL   H420 5478   4.097   5.320   2.291  0.5537  0.1642  1.2344
   10MOL   H421 5479   4.329   5.271   2.358 -0.8896  0.7806  0.7773
   10MOL   C422 5480   3.179   4.959   2.063  0.1644  0.1722  0.3005
   10MOL   C423 5481   3.177   4.805   2.059 -0.2346 -0.0930 -0.1023
   10MOL   C424 5482   3.289   4.729   2.030  0.6352  0.4278  0.9881
   10MOL   C425 5483   3.279   4.590   2.036 -0.2210 -0.3881 -0.6023
   10MOL   C426 5484   3.157   4.521   2.072 -1.2094 -0.5509  0.0725
   10MOL   C427 5485   3.146   4.369   2.078 -0.1405  0.5588  0.6036
   10MOL   N428 5486   3.240   4.302   1.996  0.3434 -0.0209  0.1984
   10MOL   C429 5487   3.287   4.162   2.011  0.3944 -0.3076 -0.8946
   10MOL   C430 5488   3.383   4.123   1.916 -0.1369 -0.4699  0.2285
   10MOL   C431 5489   3.453   4.000   1.932 -0.0488  0.0301  0.2968
   10MOL   C432 5490   3.420   3.910   2.032 -0.5612 -0.0798 -0.4051
   10MOL   N433 5491   3.484   3.788   2.054 -0.2317  0.4354 -0.3934
   10MOL   C434 5492   3.325   3.949   2.125  0.3533 -0.2127 -0.2360
   10MOL   C435 5493   3.255   4.073   2.114  0.3773  0.3738 -0.1376
   10MOL   O436 5494   3.066   4.314   2.150 -0.5043 -0.3567  0.2966
   10MOL   C437 5495   3.043   4.598   2.095 -0.0991  0.3900 -0.0584
   10MOL   C438 5496   3.054   4.739   2.093  0.6117  0.4723 -0.8442
   10MOL   O439 5497   3.080   5.014   2.008 -0.0277 -0.0103 -0.3187
   10MOL   H440 5498   3.384   4.771   2.000  0.0991 -0.1167 -1.6745
   10MOL   H441 5499   3.368   4.532   2.014 -0.9538 -1.5429 -0.5667
   10MOL   H442 5500   3.282   4.358   1.924 -0.1721 -1.8309 -1.5489
   10MOL   H443 5501   3.403   4.183   1.828 -0.1278 -0.4453  0.2475
   10MOL   H444 5502   3.538   3.987   1.866 -0.3354  0.3694 -0.1394
   10MOL   H445 5503   3.479   3.752   2.149 -1.9178  0.5866 -0.4172
   10MOL   H446 5504   3.310   3.890   2.214  0.8450  1.0823  0.7188
   10MOL   H447 5505   3.183   4.098   2.191 -0.0003  0.6411 -0.5713
   10MOL   H448 5506   2.948   4.562   2.131 -0.6303  0.3347 -1.5019
   10MOL   H449 5507   2.963   4.796   2.106 -0.4493 -1.1210 -1.0241
   10MOL   C450 5508   3.567   3.721   1.969 -0.7706 -0.2057 -0.8330
   10MOL   C451 5509   3.631   3.595   2.031 -0.1763 -1.5921  0.0524
   10MOL   C452 5510   3.682   3.597   2.161 -0.5447 -0.0719  0.3963
   10MOL   C453 5511   3.724   3.479   2.230 -0.1168 -0.0998  0.4376
   10MOL   C454 5512   3.714   3.357   2.165 -0.0487  0.0071 -0.3928
   10MOL   C455 5513   3.730   3.228   2.237 -0.1480 -0.5889  0.3999
   10MOL   N456 5514   3.854   3.220   2.295  0.2223  0.4483 -0.8483
   10MOL   C457 5515   3.891   3.122   2.390 -0.0650  0.1025 -0.1470
   10MOL   C458 5516   3.960   3.159   2.506 -0.3686  0.2363  0.1577
   10MOL   C459 5517   4.020   3.063   2.596 -0.1018  0.0144 -0.0508
   10MOL   C460 5518   4.017   2.926   2.555 -1.0031 -0.4072 -0.0886
   10MOL   N461 5519   4.079   2.832   2.636 -0.3716  0.4547 -0.9087
   10MOL   C462 5520   3.950   2.891   2.433  0.4033  0.7097 -0.2032
   10MOL   C463 5521   3.887   2.983   2.351  0.3389 -0.4006 -0.0531
   10MOL   O464 5522   3.643   3.139   2.252 -0.2627 -0.2904  0.7415
   10MOL   C465 5523   3.672   3.356   2.034 -0.9337 -0.5494  0.5011
   10MOL   C466 5524   3.624   3.471   1.968  0.4271 -0.2152 -0.3776
   10MOL   O467 5525   3.589   3.735   1.850  0.1602 -1.0834 -0.0929
   10MOL   H468 5526   3.679   3.683   2.226 -1.1044  0.5817 -0.4963
   10MOL   H469 5527   3.758   3.487   2.332  0.3919 -0.4787  0.3005
   10MOL   H470 5528   3.912   3.302   2.303  0.6888  0.0392  0.1323
   10MOL   H471 5529   3.961   3.265   2.524 -1.6723  1.1327 -4.3916
   10MOL   H472 5530   4.064   3.094   2.690  0.0975 -1.0613  0.2222
   10MOL   H473 5531   4.144   2.862   2.708 -0.2679  2.5638 -1.8388
   10MOL   H474 5532   3.934   2.793   2.393 -0.4031  1.0464 -0.7022
   10MOL   H475 5533   3.828   2.954   2.265  1.3782  2.4149 -1.7842
   10MOL   H476 5534   3.674   3.260   1.984  0.3164 -1.3992  2.1513
   10MOL   H477 5535   3.566   3.463   1.877 -0.1026  1.7696 -0.2325
   10MOL   C478 5536   4.058   2.700   2.632  0.5981 -0.1911 -0.4322
   10MOL   C479 5537   4.147   2.631   2.730  0.2391 -0.5029  0.4529
   10MOL   C480 5538   4.288   2.660   2.745 -0.3836 -0.4073 -0.2554
   10MOL   C481 5539   4.359   2.589   2.843  0.3715 -0.0425 -0.0631
   10MOL   C482 5540   4.297   2.488   2.923  0.3120 -0.1037 -0.1021
   10MOL   C483 5541   4.370   2.437   3.046 -0.0161  0.2315 -0.1734
   10MOL   N484 5542   4.328   2.321   3.095  0.8370  0.5955 -0.0336
   10MOL   C485 5543   4.362   2.259   3.222  0.0384 -0.9459 -0.2490
   10MOL   C486 5544   4.341   2.122   3.241 -0.0534 -0.1809 -0.3641
   10MOL   C487 5545   4.358   2.071   3.369  0.3403  0.0643 -0.6492
   10MOL   C488 5546   4.399   2.147   3.478 -0.3911  0.7962  0.0982
   10MOL   N489 5547   4.416   2.077   3.601  0.0342 -0.0845  0.4172
   10MOL   C490 5548   4.437   2.276   3.454 -0.5009 -0.4854 -0.5896
   10MOL   C491 5549   4.417   2.333   3.325 -0.0855 -0.4668 -0.6225
   10MOL   O492 5550   4.465   2.495   3.097 -0.8144 -0.7864  0.8952
   10MOL   C493 5551   4.157   2.459   2.909  0.3847  0.5257  0.2425
   10MOL   C494 5552   4.091   2.527   2.809 -0.6712 -0.2274  0.9811
   10MOL   O495 5553   3.972   2.643   2.570  0.1776 -0.8865  0.0179
   10MOL   H496 5554   4.343   2.737   2.693 -2.3082  1.1203 -0.0758
   10MOL   H497 5555   4.461   2.618   2.861  0.9669 -2.3585  0.4477
   10MOL   H498 5556   4.266   2.266   3.038 -1.7687  0.7563  2.5233
   10MOL   H499 5557   4.305   2.063   3.158  1.0843 -0.7317 -0.4790
   10MOL   H500 5558   4.340   1.965   3.379  2.1861 -0.3202 -1.1216
   10MOL   H501 5559   4.399   1.978   3.589  2.5060 -0.2044 -2.7536
   10MOL   H502 5560   4.483   2.327   3.537 -0.4303 -1.5680  0.0526
   10MOL   H503 5561   4.445   2.437   3.311  0.9028 -0.5749  0.4609
   10MOL   H504 5562   4.112   2.380   2.966  0.8403 -0.1901 -0.3902
   10MOL   H505 5563   3.983   2.521   2.799 -0.4854  0.8469 -2.0351
   10MOL   C506 5564   4.388   2.131   3.714  0.1897 -0.2783  0.1639
   10MOL   C507 5565   4.312   2.046   3.813 -0.4176 -0.3481  0.1297
   10MOL   C508 5566   4.384   1.960   3.895  0.1285  0.9170 -0.5733
   10MOL   C509 5567   4.315   1.884   3.998 -0.1747 -0.9868 -0.4115
   10MOL   C510 5568   4.176   1.908   4.024 -0.2825 -0.5012 -0.3117
   10MOL   C511 5569   4.111   1.830   4.136  0.3944 -0.6199  0.1807
   10MOL   N512 5570   3.979   1.791   4.118 -0.6621 -0.0475 -0.4587
   10MOL   C513 5571   3.919   1.767   3.994 -0.2192 -0.0770  0.5568
   10MOL   C514 5572   3.987   1.731   3.872  0.9013 -0.6080  0.5546
   10MOL   C515 5573   3.912   1.705   3.757  0.5642  0.4009  1.0715
   10MOL   C516 5574   3.774   1.719   3.757  1.1486 -0.2272 -0.0889
   10MOL   N517 5575   3.716   1.727   3.627  0.1672 -0.3997  0.5632
   10MOL   C518 5576   3.705   1.741   3.880  0.3126  0.1264  0.2217
   10MOL   C519 5577   3.775   1.768   3.996 -0.2056 -0.0975  0.6954
   10MOL   O520 5578   4.175   1.794   4.242 -0.5995  0.1249  0.1485
   10MOL   C521 5579   4.110   2.002   3.941  0.3414  0.0943 -0.0022
   10MOL   C522 5580   4.175   2.068   3.838 -0.4710  0.3417  0.1393
   10MOL   O523 5581   4.417   2.244   3.740 -0.2364 -0.1806 -0.0784
   10MOL   H524 5582   4.491   1.952   3.887  0.0132 -0.0691 -1.2507
   10MOL   H525 5583   4.380   1.826   4.061  2.6988  1.2586 -1.2094
   10MOL   H526 5584   3.935   1.768   4.205  0.8815  0.7599  0.5695
   10MOL   H527 5585   4.094   1.721   3.869  0.9661  0.2919 -0.2112
   10MOL   H528 5586   3.954   1.678   3.662 -1.9281 -2.3724  0.6729
   10MOL   H529 5587   3.776   1.746   3.548  0.4750  4.0269  1.7261
   10MOL   H530 5588   3.598   1.756   3.883  0.1304 -0.4457 -2.2384
   10MOL   H531 5589   3.715   1.787   4.084  0.2333 -2.7521  1.6092
   10MOL   H532 5590   4.006   2.028   3.954  0.8685  2.0870  0.5545
   10MOL   H533 5591   4.129   2.145   3.778  0.1661  0.7747  0.1957
   10MOL   C534 5592   3.585   1.702   3.601 -1.1577 -0.3704  0.0599
   10MOL   C535 5593   3.537   1.734   3.463  0.2816  0.0464 -0.3502
   10MOL   C536 5594   3.413   1.800   3.448  0.5944  0.3829  0.5956
   10MOL   C537 5595   3.354   1.809   3.323 -0.1008 -0.5518  0.7693
   10MOL   C538 5596   3.421   1.774   3.211 -0.3116  0.3690  1.1092
   10MOL   C539 5597   3.361   1.821   3.081 -0.1023 -0.2464 -0.0907
   10MOL   N540 5598   3.434   1.779   2.978  0.6028 -0.1063 -0.3836
   10MOL   C541 5599   3.401   1.806   2.841 -0.0270 -0.8827  0.2950
   10MOL   C542 5600   3.508   1.850   2.763  0.2572  0.1472  0.7772
   10MOL   C543 5601   3.488   1.855   2.626  0.5256 -0.2262 -0.6351
   10MOL   C544 5602   3.360   1.831   2.571  0.2508  1.1056  0.6668
   10MOL   N545 5603   3.343   1.838   2.429 -0.5936 -1.0332  0.4888
   10MOL   C546 5604   3.253   1.787   2.653  0.4243 -0.0182  0.7330
   10MOL   C547 5605   3.272   1.778   2.791 -1.0494 -0.2687 -0.3386
   10MOL   O548 5606   3.253   1.885   3.077 -0.4546 -0.5729 -0.0335
   10MOL   C549 5607   3.548   1.715   3.222  0.5877 -0.0835  0.5259
   10MOL   C550 5608   3.604   1.691   3.343  0.3264 -0.6368 -0.0650
   10MOL   O551 5609   3.499   1.676   3.690  0.3791  0.1498  0.3351
   10MOL   H552 5610   3.358   1.825   3.537 -0.0006 -2.4863  1.1095
   10MOL   H553 5611   3.259   1.859   3.312  0.8643  0.6771 -2.7790
   10MOL   H554 5612   3.520   1.731   2.999  0.6026  0.9942  2.3234
   10MOL   H555 5613   3.609   1.865   2.800  0.0943  3.5826  0.0395
   10MOL   H556 5614   3.572   1.865   2.557 -0.2033 -0.3472 -1.5519
   10MOL   H557 5615   3.421   1.868   2.372 -0.6985 -0.9901  0.3676
   10MOL   H558 5616   3.155   1.759   2.617  0.3748 -1.1776  1.7488
   10MOL   H559 5617   3.197   1.729   2.852  0.4884 -1.0771  0.9366
   10MOL   H560 5618   3.607   1.684   3.137 -0.8023  1.5909 -1.0692
   10MOL   H561 5619   3.701   1.643   3.353  0.7536  0.3223  0.4500
   10MOL   H562 5620   3.252   1.861   2.394  0.2261  4.8423  1.7922
   11MOL     C1 5621   4.413   2.209   1.161 -0.6385 -0.3049 -0.3175
   11MOL     C2 5622   4.316   2.203   1.051  0.3224 -0.3703 -0.0137
   11MOL     C3 5623   4.361   2.156   0.922  0.1114  0.1717  0.3652
   11MOL     C4 5624   4.272   2.149   0.816 -0.0273  0.7031 -0.3318
   11MOL     C5 5625   4.133   2.173   0.842 -0.3009 -0.0997  1.1120
   11MOL     C6 5626   4.035   2.155   0.731 -0.5464  0.0513 -0.7037
   11MOL     N7 5627   3.920   2.098   0.779 -0.7598 -0.3656  0.2932
   11MOL     C8 5628   3.798   2.080   0.714 -0.2185 -0.6254 -0.1229
   11MOL     C9 5629   3.698   2.017   0.794  0.1802  0.1140 -0.1442
   11MOL    C10 5630   3.569   1.987   0.735 -0.4724 -0.1042 -0.2782
   11MOL    C11 5631   3.537   2.033   0.606 -0.5699  0.0035 -0.0142
   11MOL    N12 5632   3.420   2.007   0.526 -0.4561 -0.0745 -0.8361
   11MOL    C13 5633   3.637   2.096   0.529  0.0590  0.7764  0.1354
   11MOL    C14 5634   3.772   2.124   0.580 -0.3321  0.1289 -0.7806
   11MOL    O15 5635   4.069   2.166   0.616 -0.0241 -0.0148  0.5229
   11MOL    C16 5636   4.090   2.230   0.966  0.1972  0.1710 -0.2791
   11MOL    C17 5637   4.182   2.244   1.070  0.5148 -0.5176 -0.1262
   11MOL    O18 5638   4.540   2.195   1.150  0.4802 -0.3338 -0.0385
   11MOL    H19 5639   4.465   2.138   0.896 -1.0666 -3.1354 -2.3425
   11MOL    H20 5640   4.316   2.120   0.721 -2.6963 -0.1417 -1.3437
   11MOL    H21 5641   3.920   2.084   0.879 -1.7019 -0.8680  0.2243
   11MOL    H22 5642   3.722   1.994   0.896 -1.2336 -1.0887 -0.0541
   11MOL    H23 5643   3.501   1.935   0.801  0.1662  0.3420  0.7476
   11MOL    H24 5644   3.427   2.040   0.431  0.3902 -0.8366 -1.0411
   11MOL    H25 5645   3.619   2.125   0.427 -0.0695  2.3214  0.5816
   11MOL    H26 5646   3.845   2.178   0.521 -0.0912 -2.4541 -2.9235
   11MOL    H27 5647   3.987   2.260   0.976  0.2944  0.1293  0.8948
   11MOL    H28 5648   4.159   2.288   1.166  1.7504 -0.4094  0.1336
   11MOL    H29 5649   4.364   2.223   1.258 -1.6656 -1.8862 -0.5842
   11MOL    C30 5650   3.328   1.918   0.563  1.0280  0.0241 -0.1977
   11MOL    C31 5651   3.247   1.850   0.457  1.0423  0.2714 -0.0425
   11MOL    C32 5652   3.260   1.881   0.320  0.0928 -1.0275 -0.4799
   11MOL    C33 5653   3.189   1.807   0.220  1.0058 -0.0481 -0.4239
   11MOL    C34 5654   3.104   1.704   0.265 -0.2574 -0.2458 -0.1748
   11MOL    C35 5655   3.032   1.621   0.162 -0.0131  0.7168  0.1855
   11MOL    N36 5656   2.989   1.689   0.053  0.5484  0.0277 -0.3959
   11MOL    C37 5657   2.912   1.627   8.096  0.1935 -0.2666 -0.3044
   11MOL    C38 5658   2.954   1.508   8.030 -0.6527 -1.0846 -0.3051
   11MOL    C39 5659   2.874   1.449   7.931  0.0886  0.0355  0.2372
   11MOL    C40 5660   2.763   1.526   7.883  0.3916  0.2985  1.0612
   11MOL    N41 5661   2.688   1.482   7.761  0.3507  0.1412  0.6973
   11MOL    C42 5662   2.731   1.649   7.943  0.1397 -0.0714 -0.0114
   11MOL    C43 5663   2.800   1.696   8.060  0.4238 -0.0407 -0.2316
   11MOL    O44 5664   2.994   1.505   0.188 -0.2541 -0.3362 -0.5039
   11MOL    C45 5665   3.071   1.690   0.399  0.1181 -0.1204 -0.1841
   11MOL    C46 5666   3.149   1.755   0.497  0.0786  0.6618  0.4574
   11MOL    O47 5667   3.284   1.906   0.677  1.0108 -0.3350 -0.6709
   11MOL    H48 5668   3.331   1.955   0.287  0.5478 -1.1465  0.2252
   11MOL    H49 5669   3.217   1.833   0.119  0.9392 -1.2113 -0.7428
   11MOL    H50 5670   2.986   1.789   0.065 -0.7230  0.5573 -4.4216
   11MOL    H51 5671   3.041   1.457   8.070 -0.7043 -0.7221  0.2726
   11MOL    H52 5672   2.915   1.361   7.882  2.3303  0.1049  1.9217
   11MOL    H53 5673   2.745   1.411   7.716 -1.2629 -0.3983 -0.5482
   11MOL    H54 5674   2.647   1.702   7.901  1.6550  1.4558 -1.1690
   11MOL    H55 5675   2.771   1.788   8.107  1.8227 -0.0638  0.6899
   11MOL    H56 5676   3.007   1.608   0.428 -1.4317  2.2686  3.5177
   11MOL    H57 5677   3.125   1.732   0.600 -1.1617  3.8501  0.9483
   11MOL    C58 5678   2.562   1.499   7.722  0.1961 -0.0157 -0.1580
   11MOL    C59 5679   2.522   1.411   7.602 -0.2014 -0.0485 -0.2806
   11MOL    C60 5680   2.595   1.290   7.562  0.3399 -0.5535 -0.1126
   11MOL    C61 5681   2.540   1.207   7.457  0.2793  0.1344  0.3255
   11MOL    C62 5682   2.416   1.239   7.398  0.9951 -0.0647  0.3357
   11MOL    C63 5683   2.354   1.157   7.284  0.6585  0.3946 -0.8155
   11MOL    N64 5684   2.218   1.171   7.270  0.0735  0.0409  0.0628
   11MOL    C65 5685   2.140   1.104   7.173 -0.0876  0.0431  0.1308
   11MOL    C66 5686   2.153   0.965   7.149 -0.3075  0.3611 -0.6564
   11MOL    C67 5687   2.067   0.898   7.061  0.4415 -0.0449  0.1771
   11MOL    C68 5688   1.957   0.971   7.006  0.1931  0.7639  0.1484
   11MOL    N69 5689   1.859   0.897   6.932 -0.4438  0.1530 -0.1459
   11MOL    C70 5690   1.947   1.110   7.024 -0.0147 -0.3905  0.1624
   11MOL    C71 5691   2.042   1.178   7.097 -1.3391 -0.2037  0.5133
   11MOL    O72 5692   2.424   1.092   7.209 -0.4376  0.4979  0.0291
   11MOL    C73 5693   2.363   1.361   7.439  0.6860  0.7276 -0.4805
   11MOL    C74 5694   2.405   1.442   7.539  0.3794  0.9326 -0.1293
   11MOL    O75 5695   2.485   1.586   7.773  0.5353  0.0742 -0.1148
   11MOL    H76 5696   2.686   1.258   7.610  0.7225  0.0597 -0.4099
   11MOL    H77 5697   2.585   1.117   7.418  1.3891  0.1851  1.4782
   11MOL    H78 5698   2.169   1.208   7.350  0.0914 -0.6149  0.3785
   11MOL    H79 5699   2.220   0.900   7.202  0.3521  0.6373 -1.1424
   11MOL    H80 5700   2.082   0.792   7.043 -2.9816 -0.4251 -0.7075
   11MOL    H81 5701   1.812   0.823   6.982 -0.8955  0.1304 -0.6046
   11MOL    H82 5702   1.873   1.160   6.963 -0.8216 -2.3078 -0.4801
   11MOL    H83 5703   2.042   1.285   7.109  0.7737 -0.0153 -0.9864
   11MOL    H84 5704   2.269   1.386   7.393  1.5239  0.0805 -2.6159
   11MOL    H85 5705   2.351   1.532   7.564  0.1137  1.0642 -1.1358
   11MOL    C86 5706   1.824   0.913   6.804  0.7000  0.2980 -0.5079
   11MOL    C87 5707   1.697   0.847   6.772 -0.3709 -0.0680 -0.1297
   11MOL    C88 5708   1.601   0.817   6.869  0.0665  0.0961 -0.0079
   11MOL    C89 5709   1.481   0.756   6.828  0.7402  0.0767 -0.1949
   11MOL    C90 5710   1.464   0.708   6.699  0.2609  0.0251  0.8023
   11MOL    C91 5711   1.346   0.620   6.664 -0.0408  0.5142  0.2110
   11MOL    N92 5712   1.247   0.606   6.756  0.1268 -0.0218 -0.0434
   11MOL    C93 5713   1.120   0.551   6.729 -0.4927 -0.9083 -0.2327
   11MOL    C94 5714   1.110   0.425   6.667 -0.5779  0.4858  0.5356
   11MOL    C95 5715   0.984   0.370   6.635 -0.8039  0.0374  0.7933
   11MOL    C96 5716   0.865   0.441   6.650  0.4029  0.0249 -0.0542
   11MOL    N97 5717   0.746   0.388   6.592  0.5685 -0.8036 -0.3319
   11MOL    C98 5718   0.872   0.561   6.724 -0.0796  0.7797  0.1451
   11MOL    C99 5719   1.000   0.614   6.762 -0.1370 -0.2225 -0.1861
   11MOL   O100 5720   1.345   0.584   6.547 -0.5526 -0.5704  0.0245
   11MOL   C101 5721   1.562   0.737   6.599  0.0438 -0.0063  0.4826
   11MOL   C102 5722   1.671   0.822   6.637  0.8571  0.0194 -0.2675
   11MOL   O103 5723   1.892   0.970   6.718  0.2270 -0.1619 -0.2309
   11MOL   H104 5724   1.614   0.849   6.972  2.0305 -0.1652 -0.1491
   11MOL   H105 5725   1.406   0.729   6.901 -1.0335  2.8874 -0.8729
   11MOL   H106 5726   1.253   0.663   6.839 -0.1341  1.0632 -0.7527
   11MOL   H107 5727   1.198   0.366   6.647 -0.1959  0.7496  1.4106
   11MOL   H108 5728   0.971   0.279   6.578  2.1075  0.3636 -0.4436
   11MOL   H109 5729   0.752   0.297   6.547  3.2030 -1.2599  0.8436
   11MOL   H110 5730   0.791   0.619   6.764 -0.7917  0.3090 -0.6000
   11MOL   H111 5731   1.006   0.709   6.813 -1.0013  0.3551 -1.1511
   11MOL   H112 5732   1.535   0.722   6.496  0.0912  1.1325  0.2998
   11MOL   H113 5733   1.745   0.857   6.567  0.3843 -0.1662 -0.8629
   11MOL   C114 5734   0.635   0.453   6.557 -0.7750  0.1536  0.1136
   11MOL   C115 5735   0.547   0.368   6.469 -0.1508 -0.7926 -0.0595
   11MOL   C116 5736   0.441   0.284   6.520 -0.9245 -0.3147 -0.2612
   11MOL   C117 5737   0.368   0.204   6.425  0.5823 -0.8361 -0.1950
   11MOL   C118 5738   0.397   0.209   6.284  0.4299  0.6613  0.0349
   11MOL   C119 5739   0.321   0.128   6.184  0.3259 -0.2013 -0.1440
   11MOL   N120 5740   0.390   0.037   6.116  0.0147  0.0615 -0.5680
   11MOL   C121 5741   0.514   8.128   6.149  0.0720  0.1549  0.1484
   11MOL   C122 5742   0.630   0.034   6.097 -0.5754 -0.3416  0.7315
   11MOL   C123 5743   0.751   8.112   6.105  0.6200 -0.4060 -0.5270
   11MOL   C124 5744   0.762   7.990   6.179  0.6323 -0.0388 -0.0444
   11MOL   N125 5745   0.883   7.929   6.168 -0.2159  0.1429 -0.3037
   11MOL   C126 5746   0.646   7.938   6.244 -0.9525 -0.4290 -0.1572
   11MOL   C127 5747   0.524   8.007   6.224 -0.5526  0.0158 -0.9902
   11MOL   O128 5748   0.199   0.135   6.183  0.2467  0.3888  0.4584
   11MOL   C129 5749   0.493   0.299   6.233 -0.6491  0.5637  0.0416
   11MOL   C130 5750   0.570   0.372   6.328  0.7652 -0.4690  1.3126
   11MOL   O131 5751   0.591   0.563   6.597 -0.1219  0.2170 -0.4562
   11MOL   H132 5752   0.422   0.281   6.626  0.4769 -0.8594 -0.0047
   11MOL   H133 5753   0.293   0.131   6.454  0.3054 -0.1461  0.8374
   11MOL   H134 5754   0.339   8.134   6.044 -1.3927  3.6060 -2.1376
   11MOL   H135 5755   0.624   0.126   6.041  3.2230 -0.9355 -0.8289
   11MOL   H136 5756   0.832   0.006   6.046 -2.0400  2.1241 -2.5924
   11MOL   H137 5757   0.941   7.962   6.092  1.0979 -0.0405  0.6025
   11MOL   H138 5758   0.643   7.842   6.292  0.3418  0.0447  0.9201
   11MOL   H139 5759   0.435   7.963   6.265 -1.9328  0.5338 -3.3890
   11MOL   H140 5760   0.499   0.316   6.127 -1.3886 -2.9504 -0.6390
   11MOL   H141 5761   0.642   0.444   6.292  1.3116 -0.4706  2.3680
   11MOL   C142 5762   0.938   7.835   6.241 -0.0751  0.0337  0.0752
   11MOL   C143 5763   1.076   7.803   6.195  0.4268 -0.7244 -0.0795
   11MOL   C144 5764   1.182   7.807   6.288  0.4917 -1.2278  0.3934
   11MOL   C145 5765   1.315   7.793   6.246 -0.2345  0.1199  0.6496
   11MOL   C146 5766   1.349   7.781   6.109 -0.3261  0.0129 -0.6584
   11MOL   C147 5767   1.493   7.776   6.075 -0.2974  0.0603 -0.1584
   11MOL   N148 5768   1.574   7.860   6.147 -0.0451  0.0139 -0.3641
   11MOL   C149 5769   1.715   7.887   6.136  0.7765 -0.0831 -0.0062
   11MOL   C150 5770   1.762   7.947   6.256 -0.0705 -0.5323  0.4859
   11MOL   C151 5771   1.893   7.998   6.259 -0.0059 -0.7290 -0.3049
   11MOL   C152 5772   1.975   7.992   6.147 -0.0557 -0.2181  0.2309
   11MOL   N153 5773   2.105   8.033   6.152  0.1364 -0.5101 -0.4268
   11MOL   C154 5774   1.927   7.931   6.032 -0.4355 -1.0512  0.3319
   11MOL   C155 5775   1.800   7.877   6.026 -0.4623  0.0076 -0.4655
   11MOL   O156 5776   1.535   7.707   5.983 -0.1178  0.6833 -0.2630
   11MOL   C157 5777   1.240   7.752   6.018  0.3567  0.2757 -0.3260
   11MOL   C158 5778   1.106   7.764   6.064 -0.5358  0.5758 -0.0572
   11MOL   O159 5779   0.889   7.789   6.344 -0.0544  0.1642 -0.1370
   11MOL   H160 5780   1.167   7.813   6.395 -1.1409  1.8733  0.0370
   11MOL   H161 5781   1.390   7.806   6.323  0.6671  1.0611 -0.3707
   11MOL   H162 5782   1.517   7.915   6.211  0.4956 -1.0502  1.0611
   11MOL   H163 5783   1.699   7.954   6.343  0.6245  1.8686  0.8145
   11MOL   H164 5784   1.932   8.052   6.345  1.7202 -1.5446 -0.5517
   11MOL   H165 5785   2.170   7.971   6.105  1.5026  0.7858 -0.2980
   11MOL   H166 5786   1.983   7.937   5.940  0.5245  0.9285  1.0360
   11MOL   H167 5787   1.771   7.816   5.941  2.2132 -1.4299 -0.3606
   11MOL   H168 5788   1.266   7.720   5.919  2.5794 -2.4338  1.0650
   11MOL   H169 5789   1.022   7.757   5.997 -0.0755 -2.0569 -0.4147
   11MOL   C170 5790   2.156   0.003   6.200  0.5265  0.0167  0.5548
   11MOL   C171 5791   2.300   0.025   6.181  1.0648 -0.8477  0.1882
   11MOL   C172 5792   2.364   0.042   6.062 -0.0276 -0.6545  0.2336
   11MOL   C173 5793   2.503   0.078   6.040  1.0986 -0.4665 -0.3161
   11MOL   C174 5794   2.591   0.102   6.151  0.8459  0.6134  0.9488
   11MOL   C175 5795   2.727   0.157   6.136  0.1499 -0.3186 -1.0664
   11MOL   N176 5796   2.828   0.097   6.207 -0.0239  0.6015  0.7574
   11MOL   C177 5797   2.931   0.160   6.280  0.3391 -0.1532  0.6409
   11MOL   C178 5798   2.989   0.096   6.383  0.6146  0.4825 -0.0559
   11MOL   C179 5799   3.092   0.151   6.458  1.0561  1.0279 -0.6811
   11MOL   C180 5800   3.126   0.287   6.435 -0.0365 -0.0937 -0.2194
   11MOL   N181 5801   3.214   0.346   6.525  0.0396 -0.1660  0.9797
   11MOL   C182 5802   3.061   0.360   6.332 -0.3349  0.0001 -0.2275
   11MOL   C183 5803   2.970   0.298   6.249 -0.0180 -0.0864  0.4336
   11MOL   O184 5804   2.746   0.252   6.060 -0.4367 -0.0978  0.2706
   11MOL   C185 5805   2.526   0.082   6.279  0.6064 -0.6269  0.1694
   11MOL   C186 5806   2.394   0.040   6.291  0.6696 -0.0594  0.0708
   11MOL   O187 5807   2.093   0.093   6.264 -0.3071  0.2930 -0.3133
   11MOL   H188 5808   2.298   0.017   5.980 -0.3768 -2.8990  1.1601
   11MOL   H189 5809   2.542   0.096   5.941  2.9659  1.0932  0.6749
   11MOL   H190 5810   2.805   0.003   6.235  1.7031 -0.4183 -1.0932
   11MOL   H191 5811   2.960   8.139   6.398  0.5753  0.1076 -2.5155
   11MOL   H192 5812   3.143   0.098   6.537  0.3900  0.7390 -0.4345
   11MOL   H193 5813   3.205   0.318   6.622  1.0151  0.4176  1.2462
   11MOL   H194 5814   3.100   0.458   6.308  0.2075 -0.7148 -2.3453
   11MOL   H195 5815   2.929   0.357   6.168 -3.6608 -1.4233  1.2191
   11MOL   H196 5816   2.578   0.098   6.372 -1.3731  0.0001  1.1805
   11MOL   H197 5817   2.361   0.031   6.393  0.6963 -1.2370 -0.0230
   11MOL   C198 5818   3.299   0.443   6.511 -0.6257  0.0281 -0.0551
   11MOL   C199 5819   3.362   0.484   6.640  0.3422 -0.1046 -0.3500
   11MOL   C200 5820   3.395   0.618   6.671  0.0676  0.5040  0.4104
   11MOL   C201 5821   3.459   0.657   6.791  0.2139 -0.7379  1.1423
   11MOL   C202 5822   3.490   0.560   6.889 -0.3895  0.5373 -0.2434
   11MOL   C203 5823   3.564   0.590   7.019  0.7146  0.2945  1.1344
   11MOL   N204 5824   3.658   0.683   7.009 -0.1347 -0.4140 -0.1772
   11MOL   C205 5825   3.744   0.722   7.109 -0.3946  0.0715  0.8952
   11MOL   C206 5826   3.718   0.721   7.251 -0.1557 -0.0622  0.0319
   11MOL   C207 5827   3.809   0.778   7.338  0.7860 -0.3867  0.1109
   11MOL   C208 5828   3.939   0.807   7.289  0.2376  0.9114  0.3133
   11MOL   N209 5829   4.037   0.841   7.383 -0.7992  0.0512 -0.2508
   11MOL   C210 5830   3.965   0.816   7.149 -0.5376  0.0151 -0.0337
   11MOL   C211 5831   3.866   0.778   7.059  0.2716 -0.1333 -1.0013
   11MOL   O212 5832   3.526   0.543   7.122 -0.4594  0.0455  0.7371
   11MOL   C213 5833   3.453   0.428   6.858  0.2032  0.3637  0.0343
   11MOL   C214 5834   3.394   0.389   6.738 -0.2870 -0.7104 -0.0747
   11MOL   O215 5835   3.325   0.505   6.411  0.2376 -0.4507 -0.6915
   11MOL   H216 5836   3.356   0.686   6.596 -2.4211 -0.6895  0.5686
   11MOL   H217 5837   3.475   0.763   6.800  3.1069 -1.1196  0.9749
   11MOL   H218 5838   3.677   0.713   6.915  0.8353 -0.6587 -0.0671
   11MOL   H219 5839   3.624   0.680   7.286 -0.3126 -0.8200 -1.2068
   11MOL   H220 5840   3.795   0.791   7.445 -0.5881  0.7009 -0.1689
   11MOL   H221 5841   4.005   0.854   7.478  2.0055  0.5064  0.6806
   11MOL   H222 5842   4.058   0.848   7.105  0.5311  1.0071  2.8580
   11MOL   H223 5843   3.885   0.796   6.954  2.2414  1.4173 -0.3974
   11MOL   H224 5844   3.475   0.350   6.929 -1.2460 -0.8180 -0.7966
   11MOL   H225 5845   3.366   0.284   6.730 -1.8906 -0.2886 -0.1254
   11MOL   C226 5846   4.170   0.853   7.365 -0.0920  0.1696 -0.2623
   11MOL   C227 5847   4.250   0.901   7.481 -0.4542  0.0612 -0.2867
   11MOL   C228 5848   4.375   0.966   7.460  0.1361 -0.7897  0.1761
   11MOL   C229 5849   4.445   1.020   7.569  0.4661 -0.1024  0.8141
   11MOL   C230 5850   4.395   1.009   7.700 -0.1512 -0.2575 -0.0142
   11MOL   C231 5851   4.470   1.063   7.817  0.7113 -0.0815  0.7170
   11MOL   N232 5852   4.603   1.086   7.800 -0.1013  0.4509 -0.1560
   11MOL   C233 5853   4.694   1.161   7.893  0.3257  0.3189 -0.7137
   11MOL   C234 5854   4.821   1.197   7.838  0.0566 -0.8507 -0.2938
   11MOL   C235 5855   4.910   1.274   7.910  0.3166 -0.6153 -0.2004
   11MOL   C236 5856   4.875   1.321   8.040 -0.2451  0.0712  0.5800
   11MOL   N237 5857   4.962   1.405   8.109  0.0873  0.1053 -0.4700
   11MOL   C238 5858   4.753   1.281   8.097  0.1575 -0.1271  0.2249
   11MOL   C239 5859   4.665   1.192   8.026  0.3233 -0.3817  0.1960
   11MOL   O240 5860   4.405   1.081   7.916 -0.1953  0.0298 -0.0933
   11MOL   C241 5861   4.270   0.942   7.721 -0.1295 -0.4313 -0.5461
   11MOL   C242 5862   4.196   0.885   7.613 -0.4912  0.2320  0.0597
   11MOL   O243 5863   4.237   0.824   7.264  0.3989  0.5814 -0.2926
   11MOL   H244 5864   4.412   0.985   7.360 -0.8206 -0.2506 -0.0906
   11MOL   H245 5865   4.539   1.069   7.549 -0.6444  1.1186 -1.6434
   11MOL   H246 5866   4.643   1.063   7.710  0.1689 -0.5710  0.2244
   11MOL   H247 5867   4.849   1.156   7.743  0.4578 -1.0381 -0.0962
   11MOL   H248 5868   4.997   1.305   7.853  0.0621 -3.3634 -2.1561
   11MOL   H249 5869   5.047   1.357   8.131 -1.1313 -2.2242 -0.6641
   11MOL   H250 5870   4.734   1.325   0.048  0.5825  3.2406 -1.1414
   11MOL   H251 5871   4.568   1.181   8.072 -0.2839  1.3403 -0.6450
   11MOL   H252 5872   4.224   0.930   7.818  1.0749  0.6105  0.1644
   11MOL   H253 5873   4.095   0.845   7.618 -0.3623 -0.1499 -0.3236
   11MOL   C254 5874   4.947   1.535   8.115  0.6079 -0.1703 -0.4665
   11MOL   C255 5875   5.045   1.617   0.045  0.2732  0.0684 -0.1359
   11MOL   C256 5876   5.132   1.554   0.137 -0.1286 -0.1724  0.4038
   11MOL   C257 5877   5.214   1.632   0.219  0.0272  0.1469 -0.6490
   11MOL   C258 5878   5.208   1.773   0.217  0.0126 -0.5604  0.0838
   11MOL   C259 5879   5.305   1.855   0.301  0.5924 -0.1001  0.4749
   11MOL   N260 5880   5.261   1.951   0.386 -0.2865 -0.2193 -0.7060
   11MOL   C261 5881   5.133   2.008   0.389  1.0747 -0.4225 -0.9250
   11MOL   C262 5882   5.027   1.969   0.481 -0.5238  0.1068  0.4665
   11MOL   C263 5883   4.899   2.024   0.482  0.2496  0.3148 -0.1971
   11MOL   C264 5884   4.864   2.123   0.385  0.2845 -0.3265 -0.1736
   11MOL   N265 5885   4.731   2.180   0.376  0.0747  0.8529  0.1721
   11MOL   C266 5886   4.970   2.175   0.305  0.0174 -0.7822  0.3035
   11MOL   C267 5887   5.097   2.121   0.306 -0.2027  0.1544 -0.1937
   11MOL   O268 5888   5.425   1.832   0.298 -0.4228 -0.0069  0.1546
   11MOL   C269 5889   5.122   1.830   0.122 -0.5733 -0.6763 -0.3141
   11MOL   C270 5890   5.036   1.760   0.040 -0.4229 -0.4724  0.0636
   11MOL   O271 5891   4.844   1.592   8.073  0.5108 -0.2697  0.0595
   11MOL   H272 5892   5.120   1.450   0.164  1.1302 -0.0860  1.3186
   11MOL   H273 5893   5.277   1.586   0.294  0.3135 -0.1670 -1.0776
   11MOL   H274 5894   5.336   2.003   0.430  0.7511  0.1922 -2.9255
   11MOL   H275 5895   5.046   1.893   0.555 -1.4586 -0.5940 -0.0004
   11MOL   H276 5896   4.837   1.975   0.556  0.4173  0.0283 -0.2475
   11MOL   H277 5897   4.689   2.179   0.284 -3.3008 -0.9893  1.6203
   11MOL   H278 5898   4.948   2.247   0.228 -1.2749  0.0328  1.4204
   11MOL   H279 5899   5.166   2.168   0.238 -1.8358  0.8295 -1.3967
   11MOL   H280 5900   5.113   1.937   0.111  0.4031 -0.1972  3.0992
   11MOL   H281 5901   4.969   1.813   8.121  1.6652  1.4175 -0.6053
   11MOL   C282 5902   4.649   2.209   0.479  0.3617 -0.9141 -0.2210
   11MOL   C283 5903   4.506   2.235   0.437  0.5478  0.0482 -0.0677
   11MOL   C284 5904   4.455   2.203   0.310  0.0405 -0.5145  0.2858
   11MOL   C285 5905   4.327   2.248   0.270 -0.7180 -0.3094 -0.0118
   11MOL   C286 5906   4.247   2.323   0.358  0.3865  0.1937 -0.2765
   11MOL   C287 5907   4.116   2.383   0.318  0.2664  0.0314 -0.2777
   11MOL   N288 5908   4.048   2.298   0.237 -0.2394 -0.0862 -0.6583
   11MOL   C289 5909   3.936   2.341   0.162  0.3830 -0.1704  1.4428
   11MOL   C290 5910   3.831   2.240   0.150  0.5198 -0.3587 -0.1704
   11MOL   C291 5911   3.723   2.270   0.066  0.4136  0.5288 -0.3192
   11MOL   C292 5912   3.722   2.388   8.132  0.0070  1.2973 -0.5394
   11MOL   N293 5913   3.606   2.409   8.055 -0.4792 -0.3487  0.3902
   11MOL   C294 5914   3.826   2.483   8.146  0.5541  0.4894  0.6470
   11MOL   C295 5915   3.935   2.458   0.083 -0.1178 -0.3397  0.5709
   11MOL   O296 5916   4.070   2.490   0.359  0.3706 -0.2205  0.2279
   11MOL   C297 5917   4.294   2.342   0.490 -0.3364 -0.4672 -0.5719
   11MOL   C298 5918   4.426   2.301   0.524 -0.3126  0.5290  0.2375
   11MOL   O299 5919   4.690   2.238   0.596  0.1931 -0.2068 -0.3223
   11MOL   H300 5920   4.517   2.155   0.236 -1.3217 -1.3100 -0.3751
   11MOL   H301 5921   4.310   2.250   0.164  0.4611  2.0941 -0.1868
   11MOL   H302 5922   4.082   2.205   0.218  0.1846 -0.0434 -0.1159
   11MOL   H303 5923   3.832   2.147   0.205 -0.6474 -0.5599 -0.4889
   11MOL   H304 5924   3.647   2.195   0.052  1.5731 -0.4900 -1.2541
   11MOL   H305 5925   3.545   2.482   8.090  1.2460  0.3510  1.9985
   11MOL   H306 5926   3.826   2.567   8.079  1.8996  0.4796  0.6145
   11MOL   H307 5927   4.018   2.527   0.078  0.2822 -0.9269 -1.4310
   11MOL   H308 5928   4.226   2.389   0.559  0.2799 -0.1694 -0.1630
   11MOL   H309 5929   4.457   2.329   0.624 -0.5246  0.7104  0.2514
   11MOL   C310 5930   3.569   2.343   7.948 -0.2624  0.1785 -0.1672
   11MOL   C311 5931   3.435   2.370   7.886 -0.5672 -0.0835  0.5359
   11MOL   C312 5932   3.391   2.288   7.777  0.0171 -0.3257  0.3908
   11MOL   C313 5933   3.258   2.300   7.725  0.1068  0.3794  0.6054
   11MOL   C314 5934   3.171   2.398   7.780 -0.7102  0.6019  0.7478
   11MOL   C315 5935   3.030   2.421   7.733  0.0106 -0.6825 -0.7049
   11MOL   N316 5936   2.984   2.315   7.664  0.5958 -0.4801  0.2427
   11MOL   C317 5937   2.846   2.296   7.629  0.5340  0.0168 -0.4134
   11MOL   C318 5938   2.811   2.224   7.514 -0.0886 -0.3437  0.1287
   11MOL   C319 5939   2.676   2.215   7.464  0.4654  0.2020  0.2003
   11MOL   C320 5940   2.573   2.287   7.535  0.0281  0.0611  0.7191
   11MOL   N321 5941   2.439   2.276   7.484 -0.5896 -0.1337  0.0995
   11MOL   C322 5942   2.609   2.356   7.651 -0.8439 -0.3161  0.3047
   11MOL   C323 5943   2.743   2.363   7.694 -0.2695  0.4548 -0.5858
   11MOL   O324 5944   2.970   2.526   7.766 -0.6298 -0.2075  0.2231
   11MOL   C325 5945   3.218   2.480   7.883 -0.5672  1.2527 -0.0522
   11MOL   C326 5946   3.347   2.463   7.932  0.7122 -0.1727 -0.1828
   11MOL   O327 5947   3.639   2.261   7.899  0.4707  0.6731  0.0562
   11MOL   H328 5948   3.467   2.222   7.738 -1.1063  0.0342 -2.5453
   11MOL   H329 5949   3.221   2.240   7.643 -1.1459  2.3124 -0.2849
   11MOL   H330 5950   3.051   2.251   7.623  1.1423  1.7876 -2.5847
   11MOL   H331 5951   2.891   2.181   7.455 -1.1281 -0.6539 -1.0870
   11MOL   H332 5952   2.657   2.164   7.371  0.6631  1.2683 -0.4282
   11MOL   H333 5953   2.414   2.187   7.445  0.4253 -0.5718  0.4141
   11MOL   H334 5954   2.546   2.418   7.714 -0.8260 -0.2937  0.3011
   11MOL   H335 5955   2.772   2.416   7.784 -1.0591 -0.8455  0.4490
   11MOL   H336 5956   3.161   2.566   7.914 -1.6153  0.0923  1.3219
   11MOL   H337 5957   3.377   2.530   8.011  0.4082  1.4104 -1.3804
   11MOL   C338 5958   2.337   2.366   7.502  0.2244  0.5935 -0.5691
   11MOL   C339 5959   2.205   2.310   7.453  0.2005  0.2542  0.7496
   11MOL   C340 5960   2.171   2.177   7.474  0.3510 -0.5903 -0.1062
   11MOL   C341 5961   2.048   2.127   7.429 -0.2600 -0.2537  0.7717
   11MOL   C342 5962   1.954   2.210   7.365  0.2117  0.9828  0.0372
   11MOL   C343 5963   1.827   2.152   7.315  0.7505  0.2738  0.0170
   11MOL   N344 5964   1.815   2.024   7.279 -0.0068  0.4650 -0.5430
   11MOL   C345 5965   1.706   1.943   7.233  0.2022 -0.4793 -0.1057
   11MOL   C346 5966   1.725   1.803   7.214 -0.4845 -0.1986  0.1444
   11MOL   C347 5967   1.625   1.718   7.161  1.1223 -0.1995  0.6376
   11MOL   C348 5968   1.505   1.777   7.120 -0.9410  0.1802 -0.2455
   11MOL   N349 5969   1.411   1.691   7.048 -0.0326  0.2944  0.2854
   11MOL   C350 5970   1.474   1.911   7.154 -0.1862 -0.1663 -0.3527
   11MOL   C351 5971   1.579   2.000   7.201 -0.1750  0.6174  0.7331
   11MOL   O352 5972   1.733   2.229   7.297 -0.1422 -0.2835 -0.3440
   11MOL   C353 5973   1.990   2.346   7.341  0.7239 -1.0278  0.1316
   11MOL   C354 5974   2.114   2.391   7.381  0.3168 -0.1049 -0.1783
   11MOL   O355 5975   2.353   2.485   7.531  0.5957  0.1799 -0.4076
   11MOL   H356 5976   2.240   2.108   7.521 -0.9730 -0.6807  1.7148
   11MOL   H357 5977   2.030   2.021   7.444  2.1525 -0.9686 -0.9899
   11MOL   H358 5978   1.903   1.976   7.295 -1.2965 -1.8534 -0.2797
   11MOL   H359 5979   1.823   1.765   7.240 -0.7237  0.3547  1.9166
   11MOL   H360 5980   1.655   1.615   7.152 -1.2047 -0.6872 -2.1554
   11MOL   H361 5981   1.447   1.599   7.028 -0.7798 -0.1576  0.9723
   11MOL   H362 5982   1.381   1.957   7.123 -0.1844 -0.1779 -0.3753
   11MOL   H363 5983   1.555   2.105   7.214 -0.6015  0.8455 -1.7103
   11MOL   H364 5984   1.930   2.415   7.285  2.4719  1.4904  1.2655
   11MOL   H365 5985   2.137   2.495   7.360  1.3175 -0.3542 -0.3159
   11MOL   C366 5986   1.286   1.707   7.008 -1.6507 -0.7868  0.4624
   11MOL   C367 5987   1.243   1.595   6.923 -0.1237 -0.1450  0.4687
   11MOL   C368 5988   1.316   1.554   6.807 -0.0384 -0.2034 -0.4315
   11MOL   C369 5989   1.262   1.461   6.715 -0.6614 -0.1389 -0.1978
   11MOL   C370 5990   1.131   1.411   6.735 -0.1693 -0.0918 -0.5130
   11MOL   C371 5991   1.074   1.294   6.655  0.4254 -0.0760 -0.3683
   11MOL   N372 5992   1.150   1.179   6.669 -0.1091 -0.3581  0.8128
   11MOL   C373 5993   1.123   1.059   6.600 -0.9527  0.0684  0.2556
   11MOL   C374 5994   0.993   0.997   6.606  0.0916  0.8158 -0.6959
   11MOL   C375 5995   0.967   0.880   6.526  0.0441  0.1278 -0.1988
   11MOL   C376 5996   1.074   0.819   6.460 -0.2965  0.2956 -0.7724
   11MOL   N377 5997   1.067   0.704   6.379  0.2863 -0.2918  0.4773
   11MOL   C378 5998   1.206   0.872   6.459  0.5622 -0.6497 -0.2710
   11MOL   C379 5999   1.231   0.996   6.523  0.3971  0.1829  0.5569
   11MOL   O380 6000   0.965   1.304   6.598  0.3946  0.5560 -0.0548
   11MOL   C381 6001   1.055   1.463   6.844 -0.3029  0.1187  0.3107
   11MOL   C382 6002   1.109   1.553   6.936  0.4229  0.5007 -0.3724
   11MOL   O383 6003   1.214   1.806   7.043  0.1120 -0.3188  0.1505
   11MOL   H384 6004   1.418   1.588   6.792  0.4983 -2.1400 -1.3876
   11MOL   H385 6005   1.326   1.425   6.636 -0.3305 -1.4685  0.6588
   11MOL   H386 6006   1.236   1.193   6.721 -1.6087  3.2279  2.4654
   11MOL   H387 6007   0.908   1.044   6.651 -0.1369  1.2108 -1.5333
   11MOL   H388 6008   0.869   0.835   6.518 -0.4943  0.5091  3.5175
   11MOL   H389 6009   1.157   0.666   6.350  0.3529 -0.8867  1.4243
   11MOL   H390 6010   1.289   0.816   6.419  0.7853  0.2885 -1.1484
   11MOL   H391 6011   1.323   1.053   6.517 -0.6388  1.6626 -2.0547
   11MOL   H392 6012   0.960   1.413   6.855  0.0331 -0.8189 -0.9814
   11MOL   H393 6013   1.048   1.585   7.019 -0.3572  1.4770 -1.2911
   11MOL   C394 6014   0.970   0.613   6.360  0.5851 -0.5560 -0.9953
   11MOL   C395 6015   1.021   0.490   6.283 -0.8584  0.5329  0.1221
   11MOL   C396 6016   0.942   0.430   6.183  0.1150 -0.1578  0.4210
   11MOL   C397 6017   0.992   0.336   6.092 -0.3086 -0.2054  0.3203
   11MOL   C398 6018   1.133   0.309   6.101  0.4079 -0.3203  0.9086
   11MOL   C399 6019   1.202   0.240   5.985  0.2817 -0.2618 -0.6224
   11MOL   N400 6020   1.322   0.282   5.946 -0.2051  0.0985 -0.8659
   11MOL   C401 6021   1.393   0.396   5.984  0.2542  0.5819 -0.2067
   11MOL   C402 6022   1.342   0.523   5.958 -0.4488  0.0942  0.0904
   11MOL   C403 6023   1.398   0.638   6.017  1.0698  0.3970 -0.2600
   11MOL   C404 6024   1.514   0.630   6.096  0.0160 -0.0672  0.8605
   11MOL   N405 6025   1.561   0.735   6.174 -0.4645  0.0745 -0.0678
   11MOL   C406 6026   1.573   0.501   6.108 -0.2530  0.1307 -0.0010
   11MOL   C407 6027   1.514   0.387   6.052  0.3229  0.5841  0.6330
   11MOL   O408 6028   1.143   0.158   5.912 -0.7855 -0.4114  0.0011
   11MOL   C409 6029   1.207   0.351   6.218 -0.6468 -0.6568 -0.1476
   11MOL   C410 6030   1.151   0.438   6.311 -0.5116 -0.2002 -0.1016
   11MOL   O411 6031   0.851   0.640   6.372  0.4344 -0.5362 -0.0432
   11MOL   H412 6032   0.841   0.468   6.183  0.0223 -0.4048 -0.6469
   11MOL   H413 6033   0.938   0.322   5.999  1.2858  0.1826 -0.6953
   11MOL   H414 6034   1.353   0.256   5.854 -0.6761 -2.5851 -0.3114
   11MOL   H415 6035   1.248   0.532   5.906 -1.8460 -0.0194  2.5080
   11MOL   H416 6036   1.361   0.738   6.006  1.6048  0.7732  1.2045
   11MOL   H417 6037   1.648   0.722   6.225 -0.6397  0.3560  0.3013
   11MOL   H418 6038   1.660   0.489   6.170 -0.1511 -0.0682 -0.1833
   11MOL   H419 6039   1.552   0.287   6.065  1.0178  0.6574 -0.6651
   11MOL   H420 6040   1.313   0.333   6.228 -0.5017  0.8398  1.1343
   11MOL   H421 6041   1.210   0.488   6.386 -0.3086  1.4309 -1.3228
   11MOL   C422 6042   1.524   0.863   6.197  0.7709  0.1483  0.5846
   11MOL   C423 6043   1.615   0.963   6.269  0.8202 -0.3399  0.2168
   11MOL   C424 6044   1.735   0.914   6.324  0.1164 -1.2597  0.1432
   11MOL   C425 6045   1.822   1.009   6.384  0.1235  0.0376  0.1064
   11MOL   C426 6046   1.795   1.144   6.387 -0.1811  0.0006 -0.7237
   11MOL   C427 6047   1.892   1.246   6.445  0.2123  0.1934 -0.2314
   11MOL   N428 6048   1.966   1.203   6.548  0.5181 -0.1570 -0.7603
   11MOL   C429 6049   2.063   1.270   6.629 -0.0064  0.3570  0.3622
   11MOL   C430 6050   2.063   1.411   6.640 -0.2297 -0.1260 -0.3316
   11MOL   C431 6051   2.165   1.472   6.719 -0.0738  0.1664  0.3721
   11MOL   C432 6052   2.249   1.393   6.798 -0.9138  0.5724 -0.1591
   11MOL   N433 6053   2.337   1.452   6.891  0.3317  0.4098 -0.1806
   11MOL   C434 6054   2.240   1.254   6.793 -0.1768  0.0948 -0.2843
   11MOL   C435 6055   2.153   1.200   6.705  0.2896  0.2940  0.6222
   11MOL   O436 6056   1.892   1.360   6.395 -0.2452 -0.1703  0.0091
   11MOL   C437 6057   1.671   1.190   6.326  0.1538 -0.3979  0.8491
   11MOL   C438 6058   1.581   1.101   6.264 -0.1984  0.1230  0.2329
   11MOL   O439 6059   1.415   0.910   6.162 -0.0799 -0.0703  0.4379
   11MOL   H440 6060   1.764   0.810   6.329  2.2272 -0.6949  0.3065
   11MOL   H441 6061   1.909   0.974   6.439 -0.0489 -3.4379 -1.6959
   11MOL   H442 6062   1.944   1.107   6.572 -1.3354  0.3877 -0.1585
   11MOL   H443 6063   1.992   1.480   6.596  0.5931  2.0611  1.6638
   11MOL   H444 6064   2.156   1.579   6.723  0.9059  0.2402  0.9423
   11MOL   H445 6065   2.358   1.390   6.968 -0.4701 -1.5879 -1.5633
   11MOL   H446 6066   2.295   1.187   6.858  0.7490  0.8620 -0.2622
   11MOL   H447 6067   2.151   1.092   6.698  0.9687  0.2748  0.7404
   11MOL   H448 6068   1.653   1.297   6.322  0.8393 -0.2905  0.6524
   11MOL   H449 6069   1.500   1.142   6.205 -0.9200  0.5872  1.5313
   11MOL   C450 6070   2.363   1.582   6.920  0.4252 -0.1100  0.5733
   11MOL   C451 6071   2.434   1.603   7.049  1.1395 -0.3441 -0.4980
   11MOL   C452 6072   2.479   1.493   7.124 -0.4061 -0.2401  0.4633
   11MOL   C453 6073   2.560   1.513   7.240 -0.5442  0.4555  0.1927
   11MOL   C454 6074   2.590   1.644   7.281 -0.6240  0.3342  0.2483
   11MOL   C455 6075   2.686   1.662   7.396 -0.3876  0.8039 -1.0126
   11MOL   N456 6076   2.674   1.769   7.476  0.5159  0.4079  0.0644
   11MOL   C457 6077   2.757   1.811   7.584 -0.2740  0.0021  0.0272
   11MOL   C458 6078   2.886   1.758   7.614 -0.6848  0.4733 -0.5552
   11MOL   C459 6079   2.951   1.818   7.719 -0.4520 -0.4073 -0.0397
   11MOL   C460 6080   2.890   1.917   7.801  0.9911  0.4028  0.2279
   11MOL   N461 6081   2.965   1.964   7.910 -0.7807 -1.0182  0.1557
   11MOL   C462 6082   2.763   1.973   7.764 -0.4015  0.5468  0.3179
   11MOL   C463 6083   2.698   1.912   7.660 -0.1775 -0.6150 -0.1470
   11MOL   O464 6084   2.776   1.574   7.409 -0.1360  0.0707 -0.2127
   11MOL   C465 6085   2.546   1.757   7.205  0.1069 -0.3184  0.3836
   11MOL   C466 6086   2.464   1.736   7.089  0.0162  1.0870 -0.3642
   11MOL   O467 6087   2.321   1.672   6.853 -0.1929 -0.0855 -0.0397
   11MOL   H468 6088   2.443   1.393   7.106 -0.4517  0.0678 -1.1865
   11MOL   H469 6089   2.589   1.433   7.307  2.9759  1.5771  0.1292
   11MOL   H470 6090   2.580   1.805   7.478  0.1892 -0.4444  0.4963
   11MOL   H471 6091   2.935   1.678   7.561 -0.9678  0.4343 -0.7632
   11MOL   H472 6092   3.045   1.778   7.754 -1.2715 -1.1777  1.3440
   11MOL   H473 6093   3.060   1.930   7.908 -0.1812  0.6476 -0.2225
   11MOL   H474 6094   2.706   2.044   7.821  0.6946  0.8831  1.0034
   11MOL   H475 6095   2.595   1.937   7.638 -0.7631 -1.3367  1.6812
   11MOL   H476 6096   2.562   1.861   7.230  0.0573 -0.2589  0.1627
   11MOL   H477 6097   2.430   1.813   7.022 -1.1289 -0.0241 -1.0733
   11MOL   C478 6098   2.917   2.038   8.013 -0.8576  0.1150  0.1580
   11MOL   C479 6099   3.018   2.085   8.111  0.8968 -0.1867 -0.4471
   11MOL   C480 6100   3.143   2.139   8.067 -0.2098  0.1702 -0.5610
   11MOL   C481 6101   3.230   2.196   0.015  1.1105  0.4950  0.7331
   11MOL   C482 6102   3.207   2.182   0.156  0.1317 -0.7095  0.4000
   11MOL   C483 6103   3.313   2.239   0.242 -0.1257  0.1752 -0.5376
   11MOL   N484 6104   3.346   2.368   0.215 -0.0542  0.3971  0.2584
   11MOL   C485 6105   3.455   2.444   0.245  0.1954  0.2728 -0.1980
   11MOL   C486 6106   3.475   2.561   0.180  0.0084 -0.1232 -0.0744
   11MOL   C487 6107   3.585   2.637   0.193  0.3265 -0.1474 -0.1842
   11MOL   C488 6108   3.693   2.597   0.279  0.3949 -0.6014 -0.8776
   11MOL   N489 6109   3.816   2.669   0.289 -0.0011  0.1050  0.5810
   11MOL   C490 6110   3.671   2.481   0.348  0.4691 -0.1883  0.2852
   11MOL   C491 6111   3.556   2.405   0.332 -0.5631  0.5355 -0.1912
   11MOL   O492 6112   3.371   2.169   0.318  0.3932 -0.0402  0.4757
   11MOL   C493 6113   3.089   2.128   0.203  0.6828  0.4330  0.4242
   11MOL   C494 6114   2.992   2.075   0.108 -0.8004  0.4324  0.0136
   11MOL   O495 6115   2.795   2.056   8.036  0.0987  0.0398 -0.0448
   11MOL   H496 6116   3.173   2.148   7.964  1.0942 -0.2240 -0.2270
   11MOL   H497 6117   3.316   2.250   8.126  1.7090 -1.6321 -1.2150
   11MOL   H498 6118   3.283   2.404   0.146  1.4144  0.4373 -1.0795
   11MOL   H499 6119   3.414   2.590   0.095 -0.9563  1.0961  0.9980
   11MOL   H500 6120   3.597   2.719   0.125 -0.5070  1.2959  1.3748
   11MOL   H501 6121   3.905   2.621   0.293  1.5940  2.9506 -0.0650
   11MOL   H502 6122   3.745   2.443   0.417  1.6699 -0.1217 -0.9511
   11MOL   H503 6123   3.549   2.312   0.387  1.1886  0.2878 -0.3741
   11MOL   H504 6124   3.075   2.119   0.310  0.0799 -0.5657  0.2646
   11MOL   H505 6125   2.902   2.022   0.137  0.2611  1.1128  4.9475
   11MOL   C506 6126   3.825   2.803   0.307  0.3167  0.3590 -0.2621
   11MOL   C507 6127   3.960   2.870   0.302 -0.3482  0.4793 -0.2690
   11MOL   C508 6128   4.053   2.833   0.202  0.6858 -0.1007 -0.0209
   11MOL   C509 6129   4.183   2.887   0.203 -0.0500  0.4910 -0.1612
   11MOL   C510 6130   4.218   2.989   0.296 -0.0768  0.2112  0.4737
   11MOL   C511 6131   4.345   3.068   0.284 -0.0062  0.5727 -0.0209
   11MOL   N512 6132   4.434   3.042   0.381 -0.0750  0.1918  0.1626
   11MOL   C513 6133   4.564   3.095   0.406 -0.3464  0.3773  0.3330
   11MOL   C514 6134   4.600   3.226   0.366  0.8415 -0.4983  1.1169
   11MOL   C515 6135   4.730   3.269   0.383 -0.1507  0.4115  0.0988
   11MOL   C516 6136   4.824   3.190   0.458  0.2467  0.2452 -0.5535
   11MOL   N517 6137   4.956   3.227   0.487 -0.0580 -0.2645 -0.1122
   11MOL   C518 6138   4.785   3.066   0.508 -0.2304 -0.1041 -0.6445
   11MOL   C519 6139   4.659   3.018   0.480  0.4241 -0.2469 -0.2090
   11MOL   O520 6140   4.358   3.156   0.199 -0.5624  0.4407 -0.1891
   11MOL   C521 6141   4.119   3.033   0.391 -0.0734 -0.1840  0.3561
   11MOL   C522 6142   3.994   2.971   0.401 -0.4407 -0.0434 -0.1659
   11MOL   O523 6143   3.726   2.876   0.327 -0.5286 -0.1687 -0.1583
   11MOL   H524 6144   4.027   2.760   0.127 -3.0688  1.0866 -0.0219
   11MOL   H525 6145   4.248   2.858   0.121  1.8111  0.4043  1.3019
   11MOL   H526 6146   4.414   2.974   0.453  1.2011  2.2771  2.5855
   11MOL   H527 6147   4.515   3.281   0.327  0.0289 -2.1999  0.4191
   11MOL   H528 6148   4.754   3.368   0.347 -0.4764  0.3131 -0.3838
   11MOL   H529 6149   5.018   3.158   0.528  1.4257  0.9708 -0.2178
   11MOL   H530 6150   4.842   3.009   0.581  0.7038 -1.0119 -2.0541
   11MOL   H531 6151   4.635   2.919   0.516  0.0590  0.6893  2.1889
   11MOL   H532 6152   4.135   3.123   0.449  0.9339 -0.5995  0.7293
   11MOL   H533 6153   3.921   3.006   0.472 -0.0264 -1.8038  1.1443
   11MOL   C534 6154   5.030   3.326   0.429 -0.4486 -0.5744  0.4237
   11MOL   C535 6155   5.175   3.316   0.447  0.0258 -0.1185 -0.5852
   11MOL   C536 6156   5.244   3.203   0.409 -0.7900 -0.2555 -0.9226
   11MOL   C537 6157   5.389   3.201   0.418  0.4740  0.6474  0.1281
   11MOL   C538 6158   5.462   3.316   0.464 -0.7876  0.0221  0.1688
   11MOL   C539 6159   5.610   3.330   0.453 -0.0300 -0.3180 -0.4046
   11MOL   N540 6160   5.676   3.216   0.441  0.3715  0.0131 -0.7900
   11MOL   C541 6161   5.812   3.183   0.450  0.2088  0.0799 -0.0842
   11MOL   C542 6162   5.918   3.276   0.418  0.2755  0.4504 -0.8250
   11MOL   C543 6163   6.053   3.230   0.437  0.0403 -0.1439  0.0508
   11MOL   C544 6164   6.083   3.106   0.488 -0.2404 -0.3208  0.3094
   11MOL   N545 6165   6.217   3.074   0.517 -0.1498 -0.2559  0.0462
   11MOL   C546 6166   5.980   3.016   0.511  0.5490  0.7404  0.4906
   11MOL   C547 6167   5.844   3.054   0.487 -1.0946 -0.4534 -0.5737
   11MOL   O548 6168   5.670   3.437   0.451 -0.5143 -0.0858 -0.5292
   11MOL   C549 6169   5.389   3.429   0.504 -0.0365  0.2613  0.2035
   11MOL   C550 6170   5.248   3.427   0.505 -0.1828  0.4293 -0.6324
   11MOL   O551 6171   4.981   3.424   0.369  0.2459 -0.1705  0.6620
   11MOL   H552 6172   5.189   3.120   0.366 -1.7247  0.7162 -1.6166
   11MOL   H553 6173   5.441   3.117   0.375 -0.3562 -0.9308  2.1304
   11MOL   H554 6174   5.615   3.136   0.449  0.9918 -0.7448 -3.2881
   11MOL   H555 6175   5.899   3.366   0.363  0.2193  1.9131  1.5203
   11MOL   H556 6176   6.132   3.299   0.410 -0.1872 -0.3230 -1.0668
   11MOL   H557 6177   6.287   3.148   0.519 -2.0705  1.5913  0.3039
   11MOL   H558 6178   6.009   2.916   0.541 -0.0677  1.7080  4.6131
   11MOL   H559 6179   5.768   2.979   0.498 -1.5137 -0.0601 -0.7801
   11MOL   H560 6180   5.427   3.517   0.553  0.0783 -0.7552  1.9572
   11MOL   H561 6181   5.197   3.509   0.553 -0.3664 -0.2415  0.3355
   11MOL   H562 6182   6.236   2.995   0.576 -0.5342  0.8743  1.7280
   12MOL     C1 6183   1.935   5.039   7.940 -0.3252 -0.2501 -0.4626
   12MOL     C2 6184   1.897   5.176   7.948 -0.1616 -0.3106  0.0706
   12MOL     C3 6185   1.860   5.254   7.832  0.6240  0.0862 -0.3441
   12MOL     C4 6186   1.792   5.374   7.849 -0.1342 -0.3982  0.2155
   12MOL     C5 6187   1.789   5.433   7.976 -0.1217 -0.1323 -1.1046
   12MOL     C6 6188   1.721   5.566   7.992 -0.2469  0.4892 -0.2802
   12MOL     N7 6189   1.790   5.653   8.063 -0.3184 -0.4116  0.2961
   12MOL     C8 6190   1.764   5.788   8.098  0.0179  0.3108  0.0691
   12MOL     C9 6191   1.882   5.855   0.006  0.8475  0.0751 -0.9490
   12MOL    C10 6192   1.873   5.987   0.054  0.4589  1.0556  0.0130
   12MOL    C11 6193   1.744   6.055   0.049 -0.0765  0.1923  0.7480
   12MOL    N12 6194   1.729   6.181   0.100 -0.5303  0.2205 -0.5899
   12MOL    C13 6195   1.629   5.983   0.008 -0.0470  0.1407  0.4464
   12MOL    C14 6196   1.635   5.848   8.108 -0.7352  0.0242 -0.1540
   12MOL    O15 6197   1.606   5.583   7.941 -0.2986 -0.2003  0.1366
   12MOL    C16 6198   1.839   5.366   8.089  0.3354 -0.2006  0.2609
   12MOL    C17 6199   1.887   5.233   8.079  0.0210 -0.3456  0.1579
   12MOL    O18 6200   1.986   4.975   8.028 -0.3911 -0.2493 -0.1981
   12MOL    H19 6201   1.865   5.215   7.731  0.5470  1.9439 -1.0912
   12MOL    H20 6202   1.762   5.429   7.761  1.3044 -1.4990 -0.9608
   12MOL    H21 6203   1.865   5.605   8.110 -1.2231 -1.7727  0.3561
   12MOL    H22 6204   1.980   5.810   0.010  0.4418 -0.7202  0.3703
   12MOL    H23 6205   1.966   6.037   0.077  1.2167  0.6041 -1.9349
   12MOL    H24 6206   1.647   6.229   0.066 -0.5842  0.6694  0.1683
   12MOL    H25 6207   1.535   6.035   8.142 -0.4436 -1.0520 -1.9975
   12MOL    H26 6208   1.543   5.796   8.088 -0.1208 -0.4653 -1.7695
   12MOL    H27 6209   1.833   5.412   0.041 -2.2611  2.6106 -1.1497
   12MOL    H28 6210   1.919   5.177   0.019  0.7224 -1.0369 -0.5437
   12MOL    H29 6211   1.905   4.990   7.848  1.6052 -0.9821 -0.7314
   12MOL    C30 6212   1.802   6.241   0.194 -0.1380  0.9936  0.3225
   12MOL    C31 6213   1.763   6.380   0.231  0.7434 -0.3290 -0.4775
   12MOL    C32 6214   1.783   6.424   0.365 -0.7116  0.5848  0.1676
   12MOL    C33 6215   1.748   6.553   0.404 -0.3275  0.0853  0.1795
   12MOL    C34 6216   1.697   6.644   0.307 -0.4845  0.8572 -0.3513
   12MOL    C35 6217   1.649   6.785   0.339  0.0970  0.5916  0.0875
   12MOL    N36 6218   1.599   6.801   0.461 -0.0611  0.2165 -0.1861
   12MOL    C37 6219   1.578   6.919   0.535  0.6380  0.4563  0.7945
   12MOL    C38 6220   1.529   6.898   0.666 -0.5827 -0.1625  0.0615
   12MOL    C39 6221   1.500   7.015   0.744 -0.3080 -0.1919 -0.0855
   12MOL    C40 6222   1.523   7.145   0.691  0.2998  0.9958 -0.1592
   12MOL    N41 6223   1.509   7.265   0.771 -0.0547  0.3676  0.2389
   12MOL    C42 6224   1.576   7.156   0.560 -0.4824  1.1912 -0.0836
   12MOL    C43 6225   1.594   7.045   0.481 -0.3329 -0.4889  0.9587
   12MOL    O44 6226   1.637   6.873   0.254  0.2526 -0.4786 -0.2425
   12MOL    C45 6227   1.669   6.595   0.179 -1.3961 -0.0338  0.4452
   12MOL    C46 6228   1.703   6.464   0.135 -0.9070 -0.5604  0.5009
   12MOL    O47 6229   1.892   6.188   0.260  0.0631  0.5498  0.3931
   12MOL    H48 6230   1.809   6.345   0.434 -1.6387 -0.7081 -0.9296
   12MOL    H49 6231   1.753   6.584   0.507  0.6399 -1.3380  0.5737
   12MOL    H50 6232   1.598   6.719   0.519 -0.6125  1.5544  1.7511
   12MOL    H51 6233   1.516   6.805   0.718  0.7459 -0.2523  0.2290
   12MOL    H52 6234   1.456   7.004   0.842 -0.2429  0.8399  0.0602
   12MOL    H53 6235   1.517   7.354   0.724 -2.0131  0.9782  1.0066
   12MOL    H54 6236   1.599   7.253   0.518 -1.1177  1.3408 -0.0928
   12MOL    H55 6237   1.622   7.058   0.377 -0.0470 -2.5832  0.7455
   12MOL    H56 6238   1.621   6.662   0.109 -1.2585 -2.1057 -1.6864
   12MOL    H57 6239   1.688   6.436   0.032 -1.1981  1.8472 -0.1395
   12MOL    C58 6240   1.520   7.269   0.904  0.0611 -0.0646  0.2064
   12MOL    C59 6241   1.526   7.405   0.968  0.2948  0.3312  0.2517
   12MOL    C60 6242   1.437   7.511   0.931  0.4099 -0.6505 -0.1241
   12MOL    C61 6243   1.456   7.642   0.991  0.0621  0.7057 -0.0003
   12MOL    C62 6244   1.540   7.662   1.101  0.4101  0.2196 -0.3906
   12MOL    C63 6245   1.544   7.795   1.166 -0.3018 -0.7099  0.3394
   12MOL    N64 6246   1.543   7.794   1.303 -0.0627 -0.3582 -0.2966
   12MOL    C65 6247   1.532   7.911   1.393 -0.2267  0.6711  0.0237
   12MOL    C66 6248   1.565   8.040   1.364  0.2467 -0.1546  0.1616
   12MOL    C67 6249   1.545   8.136   1.462  0.1116 -0.2370 -0.1113
   12MOL    C68 6250   1.495   8.107   1.591  0.0664 -0.9668 -0.3169
   12MOL    N69 6251   1.488   0.060   1.693 -0.6582  0.0094  0.2620
   12MOL    C70 6252   1.489   7.971   1.627 -0.0587 -0.5042  0.1755
   12MOL    C71 6253   1.493   7.872   1.522  0.3243 -0.5130 -0.8556
   12MOL    O72 6254   1.535   7.897   1.093 -0.3205  0.6399  0.2989
   12MOL    C73 6255   1.626   7.554   1.135 -1.3548 -0.0113 -0.0336
   12MOL    C74 6256   1.622   7.431   1.068  0.2595  0.2202 -0.0318
   12MOL    O75 6257   1.532   7.171   0.977  0.3040  0.2800  0.0216
   12MOL    H76 6258   1.361   7.495   0.856 -1.3402 -0.6359  1.6090
   12MOL    H77 6259   1.387   7.722   0.971 -2.0945 -1.1419 -0.2357
   12MOL    H78 6260   1.538   7.703   1.346 -2.4315  0.4465  1.2355
   12MOL    H79 6261   1.609   8.051   1.266 -1.3100 -2.7790 -0.9038
   12MOL    H80 6262   1.572   0.091   1.434 -3.4439  0.2611 -2.0864
   12MOL    H81 6263   1.508   0.018   1.782 -2.2270 -1.5059 -0.0727
   12MOL    H82 6264   1.473   7.944   1.730 -0.1668  0.5023  0.4303
   12MOL    H83 6265   1.483   7.768   1.551 -0.0527 -0.8704 -2.2063
   12MOL    H84 6266   1.690   7.570   1.221 -1.0163  0.4062 -0.3623
   12MOL    H85 6267   1.683   7.347   1.098  0.0987 -0.4456 -1.5456
   12MOL    C86 6268   1.432   0.182   1.677 -0.0463  0.1673 -0.1977
   12MOL    C87 6269   1.401   0.258   1.799 -0.8911 -0.6850 -0.3839
   12MOL    C88 6270   1.381   0.397   1.800  0.0262 -0.2306 -0.1047
   12MOL    C89 6271   1.341   0.465   1.914  0.3516  0.5500  0.3639
   12MOL    C90 6272   1.317   0.402   2.036  0.1771  0.5438  0.3382
   12MOL    C91 6273   1.288   0.478   2.169  0.0797 -0.2739  0.1036
   12MOL    N92 6274   1.297   0.611   2.155 -0.5498 -0.2250 -0.0618
   12MOL    C93 6275   1.266   0.703   2.258 -0.3291  0.2555 -0.1249
   12MOL    C94 6276   1.165   0.684   2.356  0.1433 -0.6880  0.0543
   12MOL    C95 6277   1.162   0.773   2.469 -0.0465  0.5583 -0.1943
   12MOL    C96 6278   1.264   0.868   2.486  0.1360  0.3361  0.3019
   12MOL    N97 6279   1.260   0.943   2.610  0.1441 -0.1892  0.0300
   12MOL    C98 6280   1.359   0.884   2.384  0.9134  0.0841  0.3586
   12MOL    C99 6281   1.353   0.807   2.270  0.0621 -0.1455 -0.2707
   12MOL   O100 6282   1.276   0.414   2.273  0.5287 -0.6237  0.1291
   12MOL   C101 6283   1.354   0.263   2.046  0.0816 -0.4091 -0.4497
   12MOL   C102 6284   1.393   0.197   1.926 -0.0378  0.3258 -1.5730
   12MOL   O103 6285   1.405   0.234   1.567 -0.5941 -0.1469 -0.3240
   12MOL   H104 6286   1.389   0.454   1.709 -1.4758  1.0676  0.5413
   12MOL   H105 6287   1.317   0.571   1.913  1.2172  0.7524  0.4054
   12MOL   H106 6288   1.337   0.647   2.070 -2.5074  0.2692 -0.7901
   12MOL   H107 6289   1.092   0.604   2.347 -1.6501  1.0290 -1.0195
   12MOL   H108 6290   1.079   0.755   2.537 -0.7936  0.2589 -1.1823
   12MOL   H109 6291   1.176   0.975   2.656 -1.3514  0.3854 -2.9892
   12MOL   H110 6292   1.438   0.956   2.395  0.8069  0.6396 -2.2745
   12MOL   H111 6293   1.428   0.832   2.197 -0.4641  0.5685 -0.5766
   12MOL   H112 6294   1.340   0.203   2.134 -0.2550  0.3178  0.0002
   12MOL   H113 6295   1.397   0.090   1.935  1.8210  0.5249  0.3781
   12MOL   C114 6296   1.361   0.997   2.678  0.4247  0.1397 -0.2749
   12MOL   C115 6297   1.325   1.054   2.809 -0.5438  0.3180  0.1161
   12MOL   C116 6298   1.187   1.058   2.851 -1.4938  0.8674  0.2100
   12MOL   C117 6299   1.145   1.096   2.977 -0.5504  0.2542  0.5323
   12MOL   C118 6300   1.245   1.136   3.070  0.2835  0.0143  0.1710
   12MOL   C119 6301   1.201   1.191   3.201  0.1943  0.1825  0.1398
   12MOL   N120 6302   1.113   1.132   3.278 -0.1873  0.1902  0.2902
   12MOL   C121 6303   1.058   1.001   3.258  0.0363 -0.0007 -0.1554
   12MOL   C122 6304   0.920   0.985   3.277 -0.7060 -0.1365  0.5842
   12MOL   C123 6305   0.861   0.864   3.266  0.6275 -0.0698 -0.1568
   12MOL   C124 6306   0.928   0.750   3.228 -0.0406  0.4447 -0.2850
   12MOL   N125 6307   0.854   0.636   3.199 -0.8192  0.0397 -0.3999
   12MOL   C126 6308   1.061   0.765   3.199  0.0165 -0.1471  0.4264
   12MOL   C127 6309   1.134   0.889   3.210 -0.0873  0.4479  0.5085
   12MOL   O128 6310   1.247   1.297   3.244  0.1402 -0.4982  0.1146
   12MOL   C129 6311   1.380   1.133   3.032  0.2162 -0.0976  0.3328
   12MOL   C130 6312   1.418   1.104   2.904  0.5116 -0.0401 -0.0124
   12MOL   O131 6313   1.479   0.992   2.644  0.0279  0.6723 -0.3771
   12MOL   H132 6314   1.108   1.020   2.787  0.8083  0.3601 -2.4718
   12MOL   H133 6315   1.042   1.107   3.007 -0.9588 -1.1097 -0.3637
   12MOL   H134 6316   1.084   1.187   3.358 -0.3069 -1.1567  1.1781
   12MOL   H135 6317   0.872   1.078   3.305  0.4679  0.9958 -1.0291
   12MOL   H136 6318   0.755   0.857   3.281  1.1156 -1.2403  3.3462
   12MOL   H137 6319   0.758   0.650   3.228 -0.5082  1.8744 -0.2186
   12MOL   H138 6320   1.119   0.685   3.154 -1.0676 -0.6312 -0.1316
   12MOL   H139 6321   1.241   0.896   3.196 -0.3891 -1.1504 -3.0341
   12MOL   H140 6322   1.452   1.159   3.108 -0.5004 -1.6686  1.5989
   12MOL   H141 6323   1.519   1.122   2.868  0.2075  1.2814 -0.2185
   12MOL   C142 6324   0.890   0.509   3.178 -0.3313 -0.1949  0.6526
   12MOL   C143 6325   0.791   0.411   3.214  0.0162 -0.0696 -0.0734
   12MOL   C144 6326   0.833   0.301   3.294 -0.3585  0.3330 -0.1315
   12MOL   C145 6327   0.743   0.197   3.325  0.6937 -0.0116  0.1990
   12MOL   C146 6328   0.609   0.201   3.278 -0.1589  0.2871  0.4612
   12MOL   C147 6329   0.515   0.089   3.312 -0.1413  0.4956 -0.0003
   12MOL   N148 6330   0.444   0.062   3.203  0.6816 -0.0593 -0.3092
   12MOL   C149 6331   0.353   8.101   3.177  0.0791 -0.2161  0.0114
   12MOL   C150 6332   0.362   7.972   3.237  0.7453 -0.1973 -0.2460
   12MOL   C151 6333   0.281   7.869   3.186 -0.3931  0.1335  0.6543
   12MOL   C152 6334   0.199   7.897   3.076  0.0356  0.1937 -0.6336
   12MOL   N153 6335   0.143   7.785   3.012  0.0433  0.2208 -0.2196
   12MOL   C154 6336   0.198   8.017   3.005 -0.3842  0.1105  0.3937
   12MOL   C155 6337   0.279   8.122   3.056 -1.0541  0.2725  1.1127
   12MOL   O156 6338   0.515   0.024   3.414  0.1243 -0.0024  0.2975
   12MOL   C157 6339   0.568   0.310   3.193  0.2600  0.3202  0.0415
   12MOL   C158 6340   0.658   0.414   3.166 -0.2569 -0.3072  0.0026
   12MOL   O159 6341   1.006   0.477   3.156  0.2436  0.1835  0.0241
   12MOL   H160 6342   0.933   0.292   3.332 -0.3816  0.3402 -0.0671
   12MOL   H161 6343   0.769   0.123   3.400 -1.9129  0.3240  1.5052
   12MOL   H162 6344   0.479   0.110   3.121 -0.7247 -0.4163 -1.1431
   12MOL   H163 6345   0.428   7.955   3.321  0.1662 -1.5436 -0.0539
   12MOL   H164 6346   0.273   7.775   3.238 -1.6209  0.1985  0.5898
   12MOL   H165 6347   0.190   7.695   3.012 -0.1424  0.1252 -0.6538
   12MOL   H166 6348   0.149   8.038   2.911  0.4549 -0.5440 -0.1969
   12MOL   H167 6349   0.283   0.060   2.989 -0.0828 -0.5012  0.1817
   12MOL   H168 6350   0.464   0.330   3.172 -0.1114  1.1715  2.5210
   12MOL   H169 6351   0.631   0.506   3.116  0.1724 -0.1007  0.1471
   12MOL   C170 6352   0.053   7.793   2.912  0.2272 -0.3414 -0.1818
   12MOL   C171 6353   0.037   7.681   2.819  0.0158  0.9940 -0.1359
   12MOL   C172 6354   8.078   7.586   2.836 -0.4773  0.4693  0.0315
   12MOL   C173 6355   8.086   7.463   2.766  1.2640 -0.2837  0.1895
   12MOL   C174 6356   0.045   7.438   2.675 -0.1324  0.4626  0.0196
   12MOL   C175 6357   0.054   7.306   2.615  0.5166 -0.1465 -0.2083
   12MOL   N176 6358   0.138   7.222   2.676  0.2087 -0.2309 -0.3533
   12MOL   C177 6359   0.162   7.084   2.652 -0.1454 -0.6785  0.8279
   12MOL   C178 6360   0.289   7.034   2.694  0.5481 -0.8621 -0.9912
   12MOL   C179 6361   0.325   6.906   2.660  0.3614  0.6816 -0.6378
   12MOL   C180 6362   0.227   6.810   2.612  0.4296  0.4463  0.0363
   12MOL   N181 6363   0.264   6.675   2.576 -0.0334  0.3284  0.3595
   12MOL   C182 6364   0.102   6.858   2.579 -0.1602 -0.1361  0.0337
   12MOL   C183 6365   0.074   6.999   2.584  0.7602 -0.2414 -0.2569
   12MOL   O184 6366   8.127   7.283   2.518  0.3455 -0.4374  0.6350
   12MOL   C185 6367   0.144   7.537   2.654 -0.3252  0.1511 -0.7309
   12MOL   C186 6368   0.146   7.656   2.732  0.3273 -0.2694 -0.2754
   12MOL   O187 6369   8.114   7.882   2.903  0.6294  0.2001 -0.2540
   12MOL   H188 6370   8.004   7.598   2.915  2.3950 -0.7472  3.0379
   12MOL   H189 6371   8.011   7.391   2.796  0.6049  0.9579  1.5918
   12MOL   H190 6372   0.193   7.250   2.756  0.3969 -1.0640 -0.1828
   12MOL   H191 6373   0.359   7.105   2.734 -2.0976  2.6846 -2.3213
   12MOL   H192 6374   0.429   6.885   2.677  0.5288  2.4540  0.5557
   12MOL   H193 6375   0.238   6.656   2.481  0.2942  0.1996  0.2973
   12MOL   H194 6376   0.026   6.791   2.542  0.2436 -1.6739  1.8857
   12MOL   H195 6377   8.123   7.035   2.553 -0.5608 -1.5942  2.2298
   12MOL   H196 6378   0.227   7.527   2.587 -0.6871  0.7291 -1.2698
   12MOL   H197 6379   0.226   7.727   2.721  1.5221 -1.0925  2.5118
   12MOL   C198 6380   0.332   6.590   2.650 -0.3585 -0.4936  0.4206
   12MOL   C199 6381   0.365   6.453   2.587  0.2007  0.7087  0.5090
   12MOL   C200 6382   0.344   6.425   2.449 -0.1070 -0.1826  0.3130
   12MOL   C201 6383   0.385   6.300   2.396  0.3365  0.6013  0.1281
   12MOL   C202 6384   0.431   6.199   2.486  0.5487  0.3754 -0.3543
   12MOL   C203 6385   0.468   6.066   2.430  0.6387 -0.8298  0.6624
   12MOL   N204 6386   0.491   5.970   2.521 -0.2628  0.4108 -0.0656
   12MOL   C205 6387   0.555   5.844   2.499 -0.1676  0.2442  0.1506
   12MOL   C206 6388   0.647   5.819   2.392  0.6092 -0.3524 -0.2831
   12MOL   C207 6389   0.699   5.689   2.372 -0.2515  0.2600 -0.6088
   12MOL   C208 6390   0.659   5.581   2.451  0.1086 -0.7282 -0.8309
   12MOL   N209 6391   0.699   5.460   2.410  0.3695  0.3642  0.7229
   12MOL   C210 6392   0.581   5.605   2.566 -0.7159  0.2044 -0.3331
   12MOL   C211 6393   0.532   5.738   2.590 -1.0933  0.2373  0.4750
   12MOL   O212 6394   0.473   6.048   2.307  0.4158 -0.2527 -0.3633
   12MOL   C213 6395   0.446   6.225   2.624  0.6644  0.7312 -0.0872
   12MOL   C214 6396   0.409   6.349   2.673 -0.5755  0.1539  0.7240
   12MOL   O215 6397   0.356   6.612   2.768 -0.7867 -0.4024  0.5686
   12MOL   H216 6398   0.317   6.502   2.378 -1.6442 -1.6655 -0.7268
   12MOL   H217 6399   0.376   6.263   2.295  0.2362 -0.2121  0.4341
   12MOL   H218 6400   0.464   5.993   2.616 -2.6232  2.1519 -1.1068
   12MOL   H219 6401   0.654   5.894   2.314  1.1827 -0.6159 -0.4900
   12MOL   H220 6402   0.748   5.667   2.278 -0.3895  0.0433 -0.6310
   12MOL   H221 6403   0.682   5.438   2.313  4.8305  1.5891 -0.4746
   12MOL   H222 6404   0.556   5.527   2.636  1.4266  0.9855  1.3853
   12MOL   H223 6405   0.468   5.764   2.673 -0.0137  0.5440  1.2325
   12MOL   H224 6406   0.498   6.154   2.686 -1.1812  0.1615  0.8494
   12MOL   H225 6407   0.416   6.377   2.777  0.4324 -0.9036  0.9482
   12MOL   C226 6408   0.719   5.349   2.483  0.2615 -0.5360 -0.7668
   12MOL   C227 6409   0.731   5.217   2.406 -0.9567  0.0906  0.8606
   12MOL   C228 6410   0.754   5.096   2.472  0.3801  0.2723  0.0797
   12MOL   C229 6411   0.764   4.970   2.401 -0.5613 -0.3101  0.3902
   12MOL   C230 6412   0.732   4.972   2.265 -0.1539 -0.3600  0.0857
   12MOL   C231 6413   0.728   4.846   2.190  0.6575  0.0285  0.4480
   12MOL   N232 6414   0.662   4.737   2.230 -0.8294  0.4727 -0.1051
   12MOL   C233 6415   0.598   4.704   2.351  0.0750 -0.0903 -0.4171
   12MOL   C234 6416   0.525   4.792   2.431  0.2596 -0.0465 -0.2785
   12MOL   C235 6417   0.481   4.753   2.557  0.3368  0.2061  0.0406
   12MOL   C236 6418   0.502   4.623   2.605  1.6436 -0.3772  0.2410
   12MOL   N237 6419   0.445   4.584   2.730  0.3463  0.2440 -0.0395
   12MOL   C238 6420   0.573   4.531   2.520 -0.1473 -0.3637  0.3029
   12MOL   C239 6421   0.618   4.573   2.395 -0.0091  0.1260  0.1443
   12MOL   O240 6422   0.777   4.847   2.075 -0.2979 -0.6459  0.0924
   12MOL   C241 6423   0.709   5.092   2.200 -0.2543  0.4522 -0.3903
   12MOL   C242 6424   0.716   5.211   2.265 -0.1313  0.2175 -0.2607
   12MOL   O243 6425   0.770   5.355   2.594  0.0251 -0.5680 -0.3470
   12MOL   H244 6426   0.753   5.101   2.580 -2.5968  1.4407  0.0361
   12MOL   H245 6427   0.790   4.877   2.449  1.0889  0.4559  1.0027
   12MOL   H246 6428   0.696   4.658   2.177 -2.3929 -0.2231 -0.1042
   12MOL   H247 6429   0.522   4.898   2.410 -0.3327 -0.0761 -0.3625
   12MOL   H248 6430   0.435   4.826   2.622 -0.9822 -1.8052  1.4609
   12MOL   H249 6431   0.354   4.618   2.759  0.7373  1.0273  0.2961
   12MOL   H250 6432   0.590   4.427   2.545 -0.5753 -0.1494  1.5133
   12MOL   H251 6433   0.675   4.507   2.331  0.3748  0.5877  0.0145
   12MOL   H252 6434   0.692   5.088   2.093 -0.0985 -1.4804 -0.3586
   12MOL   H253 6435   0.704   5.300   2.205  0.2798  0.4607  0.0157
   12MOL   C254 6436   0.495   4.506   2.827  0.0003  0.1196  1.0114
   12MOL   C255 6437   0.415   4.469   2.942  0.5945 -0.2421 -0.1242
   12MOL   C256 6438   0.435   4.352   3.012 -0.2479  0.3446  0.8147
   12MOL   C257 6439   0.376   4.326   3.137  0.3292 -0.7877  0.0670
   12MOL   C258 6440   0.286   4.419   3.198  0.2238  0.4618 -0.1741
   12MOL   C259 6441   0.227   4.385   3.333 -0.8147 -0.2914 -0.1700
   12MOL   N260 6442   0.201   4.256   3.350  0.2787 -0.4313  0.1819
   12MOL   C261 6443   0.161   4.179   3.466 -0.3109  0.7573 -0.1122
   12MOL   C262 6444   0.158   4.037   3.454 -0.1916  0.4814 -0.3879
   12MOL   C263 6445   0.136   3.953   3.559 -0.4812  0.6698 -0.7893
   12MOL   C264 6446   0.117   4.011   3.687 -0.6394  0.2671  0.3325
   12MOL   N265 6447   0.085   3.932   3.805 -0.3308 -0.2380  0.3391
   12MOL   C266 6448   0.116   4.150   3.705  0.1592  0.0763  0.1767
   12MOL   C267 6449   0.143   4.236   3.597  1.2659 -0.0870  0.1195
   12MOL   O268 6450   0.187   4.478   3.405  0.2999 -0.0200  0.0458
   12MOL   C269 6451   0.264   4.536   3.129  0.1264 -0.1224 -0.3075
   12MOL   C270 6452   0.323   4.554   3.003  0.8102 -0.6183  1.0594
   12MOL   O271 6453   0.601   4.452   2.815  0.3426 -0.1252 -0.7288
   12MOL   H272 6454   0.513   4.286   2.977 -1.5867 -0.6543 -0.3542
   12MOL   H273 6455   0.414   4.247   3.201  1.0622  0.8063  1.6283
   12MOL   H274 6456   0.237   4.191   3.282  0.5330  0.2793 -0.3737
   12MOL   H275 6457   0.198   3.993   3.364 -0.9859 -1.8674  0.3684
   12MOL   H276 6458   0.144   3.846   3.542 -0.5674  0.4493  0.5008
   12MOL   H277 6459   0.074   3.978   3.894 -1.5820 -0.8595  0.5065
   12MOL   H278 6460   0.098   4.185   3.805  0.2641 -2.2988  1.0476
   12MOL   H279 6461   0.118   4.341   3.606 -1.5524 -0.7425  0.5588
   12MOL   H280 6462   0.207   4.616   3.174 -0.4126 -0.1815 -0.8919
   12MOL   H281 6463   0.308   4.648   2.952  1.5380 -1.0913 -0.0398
   12MOL   C282 6464   0.097   3.799   3.817  0.1238 -0.5963  0.2884
   12MOL   C283 6465   0.089   3.744   3.949  0.4147 -0.3337  0.6273
   12MOL   C284 6466   0.019   3.625   3.973 -0.0159  0.4446  0.9279
   12MOL   C285 6467   0.014   3.568   4.100  0.3256 -0.4082  0.5290
   12MOL   C286 6468   0.078   3.625   4.211 -0.3890 -0.2789 -0.0156
   12MOL   C287 6469   0.051   3.583   4.352 -0.0742 -0.3120 -0.1968
   12MOL   N288 6470   8.142   3.462   4.371 -0.0727 -0.0742 -0.0249
   12MOL   C289 6471   8.097   3.400   4.494 -0.9491  0.1110  0.2074
   12MOL   C290 6472   8.051   3.262   4.481 -0.4331 -0.6942  0.1549
   12MOL   C291 6473   8.020   3.188   4.599 -0.0450  0.9071 -0.4142
   12MOL   C292 6474   8.017   3.251   4.724  0.4620  0.6302  0.0835
   12MOL   N293 6475   7.980   3.176   4.840  0.4949 -0.4986  0.2055
   12MOL   C294 6476   8.070   3.382   4.737  0.3047 -0.2128 -0.1509
   12MOL   C295 6477   8.098   3.459   4.624 -0.1014  0.3798 -0.1054
   12MOL   O296 6478   0.065   3.664   4.444  0.2839  0.2148 -0.1004
   12MOL   C297 6479   0.161   3.738   4.189  0.6913  0.3350 -1.0160
   12MOL   C298 6480   0.164   3.797   4.061 -0.0877  0.4082  0.2307
   12MOL   O299 6481   0.124   3.717   3.727  0.1014  0.2062 -0.2070
   12MOL   H300 6482   8.122   3.577   3.886  0.4151  2.5507 -0.4876
   12MOL   H301 6483   8.095   3.484   4.120 -0.1230 -0.5982 -1.6475
   12MOL   H302 6484   8.136   3.415   4.282 -0.2027 -0.7000  0.3095
   12MOL   H303 6485   8.051   3.211   4.386  0.8003 -2.4997  1.1006
   12MOL   H304 6486   8.001   3.081   4.593 -2.1489  1.1739  1.1879
   12MOL   H305 6487   7.992   3.076   4.827 -1.0155 -0.4264 -2.2457
   12MOL   H306 6488   8.070   3.427   4.835  0.7640 -1.2289  0.3314
   12MOL   H307 6489   8.132   3.560   4.638  0.0207  0.3508 -0.1932
   12MOL   H308 6490   0.213   3.793   4.266  1.1973  1.0469 -1.8609
   12MOL   H309 6491   0.223   3.887   4.060 -2.2660  1.9101  2.6535
   12MOL   C310 6492   7.955   3.211   4.963  0.8871 -0.1924 -0.0266
   12MOL   C311 6493   7.930   3.089   5.048 -0.2536 -0.3185 -0.0129
   12MOL   C312 6494   7.938   2.956   4.995  0.4258  0.9817  0.7156
   12MOL   C313 6495   7.927   2.844   5.078  0.1952  0.5419  0.4551
   12MOL   C314 6496   7.900   2.851   5.218 -0.1424  0.3116  0.1036
   12MOL   C315 6497   7.883   2.722   5.304 -0.9316  0.4388  0.0350
   12MOL   N316 6498   7.909   2.717   5.438 -0.3559 -0.4123 -0.6003
   12MOL   C317 6499   7.997   2.791   5.513 -0.1487 -0.2465 -0.7317
   12MOL   C318 6500   7.976   2.814   5.650  0.7835 -0.3374 -0.2782
   12MOL   C319 6501   8.051   2.901   5.722  0.3248 -0.6748  0.0816
   12MOL   C320 6502   0.014   2.972   5.659 -0.3046 -0.1241  0.2811
   12MOL   N321 6503   0.097   3.077   5.726  0.6813  0.4734  0.0529
   12MOL   C322 6504   0.037   2.948   5.522 -0.4675 -0.1425 -0.0104
   12MOL   C323 6505   8.105   2.858   5.452 -0.0752 -0.0812  0.2004
   12MOL   O324 6506   7.838   2.622   5.246 -0.0669 -0.0918  0.0630
   12MOL   C325 6507   7.894   2.985   5.267 -0.2794 -0.5551 -0.2720
   12MOL   C326 6508   7.906   3.100   5.188 -0.1046 -0.5273 -0.3724
   12MOL   O327 6509   7.939   3.322   5.017 -0.0513  0.6684  0.3573
   12MOL   H328 6510   7.948   2.947   4.888 -1.3838  0.6775  0.5458
   12MOL   H329 6511   7.942   2.748   5.032  1.0082  0.9350 -0.1245
   12MOL   H330 6512   7.873   2.636   5.486 -0.0253  0.4451  1.1313
   12MOL   H331 6513   7.885   2.782   5.699  0.2643 -0.4466 -1.3110
   12MOL   H332 6514   8.026   2.912   5.826  3.0112 -2.4263  0.9834
   12MOL   H333 6515   0.146   3.136   5.660 -0.7680  0.3482 -1.1564
   12MOL   H334 6516   0.108   3.003   5.463 -0.2197 -0.3250  0.1155
   12MOL   H335 6517   8.141   2.832   5.353 -1.3486  1.1563 -0.6021
   12MOL   H336 6518   7.879   3.001   5.373 -0.4127  0.5594 -0.4567
   12MOL   H337 6519   7.914   3.198   5.232  1.8026 -0.8292 -0.0009
   12MOL   C338 6520   0.128   3.081   5.851 -0.0167 -0.2504 -0.8257
   12MOL   C339 6521   0.231   3.186   5.876  0.3871  0.3354  0.4381
   12MOL   C340 6522   0.361   3.183   5.819  0.8271 -0.3419  0.4245
   12MOL   C341 6523   0.442   3.296   5.833 -0.0653  0.0454  0.4137
   12MOL   C342 6524   0.410   3.397   5.929 -0.7054 -0.4065 -0.0625
   12MOL   C343 6525   0.512   3.506   5.963 -0.2533  0.4716 -0.7154
   12MOL   N344 6526   0.635   3.476   5.926 -0.0448 -0.2769  0.0568
   12MOL   C345 6527   0.753   3.559   5.920  0.0695 -1.0194 -0.8435
   12MOL   C346 6528   0.838   3.542   5.813  0.7862 -0.7412 -0.5253
   12MOL   C347 6529   0.963   3.608   5.814 -0.5816 -0.2372 -0.1697
   12MOL   C348 6530   0.996   3.703   5.910 -0.1953 -0.2470  0.5088
   12MOL   N349 6531   1.122   3.764   5.889 -0.1326 -0.1375  0.0106
   12MOL   C350 6532   0.904   3.725   6.020  0.1840  0.7704  0.2584
   12MOL   C351 6533   0.787   3.658   6.018  0.1843 -0.0769 -0.0833
   12MOL   O352 6534   0.482   3.617   5.999 -0.4610  0.2927 -0.7854
   12MOL   C353 6535   0.282   3.402   5.989 -0.5165  0.5772  0.0110
   12MOL   C354 6536   0.189   3.297   5.949 -0.0388 -1.1686 -0.3628
   12MOL   O355 6537   0.063   3.036   5.948  0.0967  0.4074 -0.2615
   12MOL   H356 6538   0.388   3.110   5.743  0.3418 -0.4676  0.3741
   12MOL   H357 6539   0.528   3.305   5.769  0.5499  3.2650  1.6066
   12MOL   H358 6540   0.646   3.381   5.892 -1.7087 -0.4171 -0.1343
   12MOL   H359 6541   0.804   3.476   5.735  2.5897  0.5760 -2.4766
   12MOL   H360 6542   1.035   3.575   5.740 -0.5161 -1.0160  0.2385
   12MOL   H361 6543   1.186   3.727   5.821 -1.7969 -1.3304 -0.9463
   12MOL   H362 6544   0.930   3.783   6.108  0.8391  0.0333  0.5619
   12MOL   H363 6545   0.721   3.689   6.098  1.6281  3.6843 -0.2353
   12MOL   H364 6546   0.244   3.481   6.053 -1.1270  0.1511  0.1878
   12MOL   H365 6547   0.089   3.303   5.989 -0.2432  0.7442 -1.1128
   12MOL   C366 6548   1.176   3.869   5.952 -0.5832  0.4261 -0.6710
   12MOL   C367 6549   1.312   3.912   5.898 -0.0804  0.6070  0.3609
   12MOL   C368 6550   1.328   3.927   5.759 -0.3090 -0.0161 -0.0815
   12MOL   C369 6551   1.452   3.960   5.703 -0.2151 -0.1059  0.2663
   12MOL   C370 6552   1.560   3.988   5.789  0.0477 -0.3723 -0.0577
   12MOL   C371 6553   1.694   4.021   5.725  0.0910  0.5368 -0.3239
   12MOL   N372 6554   1.728   4.152   5.722 -0.0215 -0.2449 -0.3731
   12MOL   C373 6555   1.847   4.214   5.663  0.8321 -0.7941  1.3298
   12MOL   C374 6556   1.846   4.350   5.615  0.3801 -0.4620 -0.0877
   12MOL   C375 6557   1.955   4.409   5.557 -0.3800  0.5126  0.3612
   12MOL   C376 6558   2.074   4.344   5.542  0.6862 -0.5130  0.1435
   12MOL   N377 6559   2.168   4.409   5.462 -0.3945 -0.2729  0.4329
   12MOL   C378 6560   2.080   4.211   5.597  0.0927 -0.3069 -0.4359
   12MOL   C379 6561   1.967   4.146   5.646  0.6576  0.6789 -0.1074
   12MOL   O380 6562   1.765   3.929   5.688  0.2278 -0.3948 -0.2240
   12MOL   C381 6563   1.541   3.993   5.928 -0.0586  0.1556 -0.1494
   12MOL   C382 6564   1.422   3.939   5.987 -0.2059 -0.4020  0.6188
   12MOL   O383 6565   1.138   3.916   6.058  0.0689  0.4307 -0.3046
   12MOL   H384 6566   1.241   3.921   5.695  0.1449  1.9287 -0.9164
   12MOL   H385 6567   1.456   3.959   5.595  0.4287 -0.8603  0.2953
   12MOL   H386 6568   1.664   4.220   5.760 -0.1074 -0.0974 -0.7856
   12MOL   H387 6569   1.755   4.407   5.626  0.9917  0.4598  0.2396
   12MOL   H388 6570   1.947   4.512   5.527  1.5027  1.6414  3.6214
   12MOL   H389 6571   2.137   4.490   5.411 -0.9564  0.3928  1.7878
   12MOL   H390 6572   2.168   4.149   5.608 -1.5605 -2.4707  0.9623
   12MOL   H391 6573   1.985   4.045   5.680  2.9468  0.4164 -1.9639
   12MOL   H392 6574   1.631   4.025   5.978  1.5201 -1.7961 -1.7028
   12MOL   H393 6575   1.398   3.915   6.089 -1.2504  0.7326  0.6552
   12MOL   C394 6576   2.289   4.352   5.423  0.1100  0.2146  0.6444
   12MOL   C395 6577   2.346   4.404   5.290  0.9710  0.1125  0.0346
   12MOL   C396 6578   2.483   4.388   5.254  0.1820 -0.6236  0.4933
   12MOL   C397 6579   2.533   4.440   5.133 -0.7505  0.4976  0.4474
   12MOL   C398 6580   2.448   4.507   5.042  0.0007 -0.0640  0.3725
   12MOL   C399 6581   2.505   4.565   4.919 -0.1281  0.9153 -0.3996
   12MOL   N400 6582   2.483   4.698   4.893  0.6020  0.3794 -0.7671
   12MOL   C401 6583   2.415   4.796   4.976 -0.1414  0.2602  0.1102
   12MOL   C402 6584   2.308   4.872   4.932 -0.1679  0.1504  0.7353
   12MOL   C403 6585   2.239   4.956   5.021 -0.0622  0.4680  0.3728
   12MOL   C404 6586   2.268   4.955   5.159 -1.0860 -0.3165 -0.6246
   12MOL   N405 6587   2.179   5.017   5.242  0.3590 -0.2341  0.2149
   12MOL   C406 6588   2.369   4.872   5.205 -0.3481 -0.2714  0.1109
   12MOL   C407 6589   2.447   4.803   5.110 -0.0536 -0.3085  0.6020
   12MOL   O408 6590   2.580   4.494   4.851  0.2348  0.3706  0.6267
   12MOL   C409 6591   2.311   4.520   5.074  0.3684 -0.1034  0.4198
   12MOL   C410 6592   2.256   4.462   5.193 -0.0234 -0.4147  0.8792
   12MOL   O411 6593   2.355   4.280   5.495  0.1984 -0.2641 -0.3784
   12MOL   H412 6594   2.543   4.336   5.328  0.5328 -0.3097  0.4296
   12MOL   H413 6595   2.639   4.446   5.116 -0.8086 -0.3191 -0.2725
   12MOL   H414 6596   2.510   4.722   4.798 -0.6421  2.1502 -0.6897
   12MOL   H415 6597   2.282   4.869   4.828 -0.3912  1.3066  0.7585
   12MOL   H416 6598   2.161   5.007   4.966  0.9771  0.8364 -0.7691
   12MOL   H417 6599   2.083   4.986   5.236 -0.7070  3.0268 -0.6052
   12MOL   H418 6600   2.402   4.860   5.307 -0.0646 -1.3004 -0.0996
   12MOL   H419 6601   2.527   4.746   5.155  1.5800  0.8510 -0.7680
   12MOL   H420 6602   2.250   4.569   5.000  0.7760  0.3001  0.3459
   12MOL   H421 6603   2.152   4.462   5.223 -0.3158  0.3651 -0.1428
   12MOL   C422 6604   2.202   5.097   5.344 -0.4293  0.0404 -0.4484
   12MOL   C423 6605   2.081   5.124   5.427  0.4906 -0.3908 -0.4914
   12MOL   C424 6606   1.952   5.099   5.386  0.1791  0.0732 -0.4133
   12MOL   C425 6607   1.844   5.115   5.472 -0.2144 -0.2192  0.3017
   12MOL   C426 6608   1.858   5.157   5.603  0.0517 -0.8949  0.5318
   12MOL   C427 6609   1.734   5.172   5.693 -0.4193 -0.3036  0.3476
   12MOL   N428 6610   1.766   5.222   5.816 -0.1592  0.3637 -0.1309
   12MOL   C429 6611   1.691   5.267   5.926  0.0069  0.6731  0.1115
   12MOL   C430 6612   1.767   5.311   6.042 -0.0552 -0.1356 -0.2144
   12MOL   C431 6613   1.698   5.364   6.152  0.0662 -0.0550  0.4518
   12MOL   C432 6614   1.555   5.387   6.149  0.8415  0.6078  0.0955
   12MOL   N433 6615   1.496   5.476   6.242  0.1717  0.3776  0.3958
   12MOL   C434 6616   1.488   5.343   6.036 -0.3782 -0.0027 -0.1208
   12MOL   C435 6617   1.550   5.281   5.921 -0.1746  0.5264  0.8991
   12MOL   O436 6618   1.623   5.134   5.663  0.2543 -0.2150  0.2610
   12MOL   C437 6619   1.988   5.195   5.640 -0.6363  0.4471  0.1874
   12MOL   C438 6620   2.098   5.181   5.560 -0.4484  0.1008 -0.1361
   12MOL   O439 6621   2.306   5.157   5.365 -0.1729 -0.1934  0.1383
   12MOL   H440 6622   1.929   5.057   5.289 -0.9266  1.4461 -0.7539
   12MOL   H441 6623   1.743   5.096   5.439 -1.2272  0.7492  2.7143
   12MOL   H442 6624   1.866   5.228   5.831 -0.0478  0.7769 -1.0199
   12MOL   H443 6625   1.874   5.297   6.035  0.1935  0.9216  1.1826
   12MOL   H444 6626   1.758   5.391   6.238  0.4558 -0.2883  0.2536
   12MOL   H445 6627   1.524   5.480   6.339 -1.1950  2.0559  0.7434
   12MOL   H446 6628   1.382   5.364   6.027 -0.4792  1.0784  2.9514
   12MOL   H447 6629   1.488   5.253   5.837  2.7449 -0.9399 -0.8318
   12MOL   H448 6630   2.013   5.220   5.743  0.8725 -4.3778  1.0993
   12MOL   H449 6631   2.191   5.218   5.602 -0.1301  0.4414 -1.1098
   12MOL   C450 6632   1.400   5.570   6.227  0.1393  0.5734  0.2995
   12MOL   C451 6633   1.370   5.662   6.338  0.0609  0.5836  0.1925
   12MOL   C452 6634   1.451   5.663   6.455 -0.6152  0.1322 -0.3473
   12MOL   C453 6635   1.421   5.746   6.559  0.2404 -0.1515  0.4007
   12MOL   C454 6636   1.318   5.846   6.546  0.2688 -0.1121 -0.0909
   12MOL   C455 6637   1.285   5.939   6.656  0.6566 -0.4290  0.2921
   12MOL   N456 6638   1.375   6.030   6.669 -0.6006  0.1308 -0.2476
   12MOL   C457 6639   1.393   6.134   6.771  1.0262 -0.1547  0.9489
   12MOL   C458 6640   1.518   6.196   6.782 -0.7883  0.2057 -0.4971
   12MOL   C459 6641   1.540   6.305   6.865 -0.6269 -0.2061 -0.3615
   12MOL   C460 6642   1.432   6.358   6.936  0.3834 -0.8978  0.4121
   12MOL   N461 6643   1.437   6.484   7.004 -0.2997  0.2675  0.1458
   12MOL   C462 6644   1.304   6.295   6.931  0.2075  0.1957 -0.0560
   12MOL   C463 6645   1.276   6.192   6.840 -0.2302  0.9465  0.4824
   12MOL   O464 6646   1.176   5.934   6.715  0.2606  0.2239  0.2551
   12MOL   C465 6647   1.244   5.852   6.429 -0.5815 -0.6631 -0.3190
   12MOL   C466 6648   1.269   5.760   6.327 -0.1702 -0.0667 -0.0825
   12MOL   O467 6649   1.332   5.583   6.123  1.0651 -0.1669 -0.0462
   12MOL   H468 6650   1.532   5.591   6.461 -0.6792  0.0696 -0.2312
   12MOL   H469 6651   1.482   5.725   6.646  0.1906 -1.7207  0.0739
   12MOL   H470 6652   1.459   6.013   6.616 -0.1256 -2.7289  1.3399
   12MOL   H471 6653   1.606   6.149   6.740  1.8494  1.5339  3.2686
   12MOL   H472 6654   1.634   6.358   6.869 -0.4280 -0.5212 -0.8555
   12MOL   H473 6655   1.354   6.514   7.053  0.9169  1.0002  1.8134
   12MOL   H474 6656   1.230   6.335   6.999 -0.9574 -0.9272 -0.6238
   12MOL   H475 6657   1.175   6.156   6.836  0.1099 -0.0043  0.2416
   12MOL   H476 6658   1.164   5.923   6.412  0.3075  0.2888 -0.6064
   12MOL   H477 6659   1.205   5.767   6.240 -0.2520 -2.4864 -0.2538
   12MOL   C478 6660   1.531   6.577   6.999 -0.8079 -0.2472 -0.0753
   12MOL   C479 6661   1.524   6.682   7.111  0.8291 -0.8116  0.5444
   12MOL   C480 6662   1.506   6.642   7.241  1.2512 -0.1276  0.5334
   12MOL   C481 6663   1.483   6.734   7.343 -0.9805 -0.2701 -0.6720
   12MOL   C482 6664   1.484   6.870   7.325  0.4328  0.0725 -0.5849
   12MOL   C483 6665   1.454   6.969   7.429  0.6388  0.0053  0.4493
   12MOL   N484 6666   1.531   7.075   7.421 -0.1909 -0.7445 -0.1164
   12MOL   C485 6667   1.531   7.188   7.507  0.0824 -0.0910 -0.3991
   12MOL   C486 6668   1.560   7.316   7.453 -0.4213  0.1058  0.2236
   12MOL   C487 6669   1.571   7.417   7.546  0.4113 -0.6332 -0.4803
   12MOL   C488 6670   1.543   7.400   7.685  0.4696 -0.6329  0.7902
   12MOL   N489 6671   1.563   7.488   7.788  0.4825  0.4896  0.1907
   12MOL   C490 6672   1.497   7.281   7.728  0.3036 -0.0620 -0.6175
   12MOL   C491 6673   1.495   7.172   7.643 -0.1770 -0.4883 -0.8193
   12MOL   O492 6674   1.367   6.948   7.514 -0.3455 -0.0175  0.6057
   12MOL   C493 6675   1.502   6.911   7.189 -0.2970 -0.4309  0.2920
   12MOL   C494 6676   1.516   6.820   7.079  0.1958  0.2682  0.7417
   12MOL   O495 6677   1.617   6.600   6.912 -0.2221  0.6551 -0.7555
   12MOL   H496 6678   1.514   6.536   7.260  0.3721 -0.9007 -3.0227
   12MOL   H497 6679   1.459   6.698   7.442 -0.6141  0.3122 -0.3638
   12MOL   H498 6680   1.599   7.076   7.345  0.3218 -0.0563  0.3373
   12MOL   H499 6681   1.581   7.341   7.350  0.6868 -1.0396  0.1603
   12MOL   H500 6682   1.605   7.515   7.517  0.5277 -0.0958  1.3869
   12MOL   H501 6683   1.510   7.464   7.871 -0.9411  1.6916 -0.3388
   12MOL   H502 6684   1.483   7.270   7.835  4.1721 -3.3329 -0.3411
   12MOL   H503 6685   1.456   7.080   7.686 -2.0647  0.3414 -0.6827
   12MOL   H504 6686   1.503   7.015   7.163  2.4207 -0.9662 -1.8988
   12MOL   H505 6687   1.528   6.857   6.979  0.3582 -0.5125  0.4663
   12MOL   C506 6688   1.630   7.605   7.791 -0.1505  0.2736  0.3606
   12MOL   C507 6689   1.615   7.686   7.915 -0.2187  0.2138  0.0351
   12MOL   C508 6690   1.647   7.827   7.911  1.1473 -0.0649 -0.3030
   12MOL   C509 6691   1.624   7.913   8.025 -0.3780  0.0968 -0.3271
   12MOL   C510 6692   1.578   7.851   0.004  0.2072  0.7924 -0.6456
   12MOL   C511 6693   1.571   7.933   0.132 -0.1448  0.2474  0.0241
   12MOL   N512 6694   1.555   8.066   0.115  0.4599 -0.1731  0.4555
   12MOL   C513 6695   1.569   0.021   0.214 -0.0788  0.7842  0.3341
   12MOL   C514 6696   1.520   0.006   0.346 -0.1275  0.3119 -0.0260
   12MOL   C515 6697   1.546   0.106   0.440 -0.2444 -0.3027 -0.2664
   12MOL   C516 6698   1.620   0.222   0.407  1.0577  0.9061 -0.1523
   12MOL   N517 6699   1.647   0.315   0.511  0.1167 -0.7602  0.1417
   12MOL   C518 6700   1.659   0.239   0.270 -0.3834 -0.6165 -0.2605
   12MOL   C519 6701   1.635   0.141   0.179  0.0863  0.5179  0.2555
   12MOL   O520 6702   1.581   7.881   0.246 -0.5570 -0.2905 -0.1541
   12MOL   C521 6703   1.558   7.716   0.007  0.2371  0.0500  0.7277
   12MOL   C522 6704   1.574   7.629   8.037  1.0042 -0.6690 -0.7364
   12MOL   O523 6705   1.704   7.653   7.698  0.2867 -0.5839 -0.2197
   12MOL   H524 6706   1.655   7.878   7.817  1.8817  0.8286  0.2355
   12MOL   H525 6707   1.645   8.019   8.021 -0.2855  0.0536 -1.2246
   12MOL   H526 6708   1.553   8.096   0.019 -0.1034  0.0679  0.5432
   12MOL   H527 6709   1.472   8.059   0.374 -0.6327  0.4972 -0.2706
   12MOL   H528 6710   1.509   0.076   0.537 -0.2674 -1.3720 -0.6000
   12MOL   H529 6711   1.565   0.344   0.562 -0.5260  0.0655 -1.3248
   12MOL   H530 6712   1.709   0.329   0.238  0.3162 -0.4272  1.3290
   12MOL   H531 6713   1.657   0.153   0.074 -0.3738  1.1042  0.2251
   12MOL   H532 6714   1.516   7.674   0.097  0.4822 -0.8285  0.4359
   12MOL   H533 6715   1.553   7.523   8.045 -2.0765  0.0300  1.5642
   12MOL   C534 6716   1.766   0.359   0.557  1.0037  0.2144  0.3975
   12MOL   C535 6717   1.754   0.458   0.677 -0.8704  0.5055 -0.2338
   12MOL   C536 6718   1.859   0.550   0.696  1.0562  0.0861  0.0053
   12MOL   C537 6719   1.852   0.648   0.798  0.0252  0.0449 -0.0332
   12MOL   C538 6720   1.742   0.657   0.881 -0.1544 -0.2316 -0.2789
   12MOL   C539 6721   1.747   0.757   0.994 -0.0068  0.3217  0.1378
   12MOL   N540 6722   1.870   0.809   1.031  0.4935 -0.0426  0.8710
   12MOL   C541 6723   1.902   0.909   1.125 -0.3096 -0.0884  0.2400
   12MOL   C542 6724   2.027   0.890   1.189 -0.0770  0.5599  0.4224
   12MOL   C543 6725   2.062   0.976   1.294  0.6443  0.1233  0.6611
   12MOL   C544 6726   1.984   1.083   1.332  0.1730  0.7761 -0.4039
   12MOL   N545 6727   2.025   1.166   1.435  0.1087 -0.0869  0.7875
   12MOL   C546 6728   1.862   1.109   1.259  0.0931  0.0332 -0.1554
   12MOL   C547 6729   1.818   1.015   1.163  0.0893  0.0793  0.6144
   12MOL   O548 6730   1.643   0.774   1.064  0.2277  0.0261 -0.6179
   12MOL   C549 6731   1.639   0.559   0.873 -0.6462 -0.6079  0.4243
   12MOL   C550 6732   1.642   0.461   0.767 -0.4186  0.1864 -0.6288
   12MOL   O551 6733   1.874   0.309   0.521  0.0636  0.4018  0.1330
   12MOL   H552 6734   1.947   0.547   0.633  1.7008 -3.0147  0.9786
   12MOL   H553 6735   1.934   0.717   0.811 -0.5679  1.0013 -1.2355
   12MOL   H554 6736   1.947   0.771   0.978  1.3650  2.3063  0.4008
   12MOL   H555 6737   2.090   0.807   1.163 -0.9260 -0.3761  1.3135
   12MOL   H556 6738   2.152   0.949   1.347 -0.7677 -1.9296  2.0933
   12MOL   H557 6739   1.946   1.159   1.497 -2.2920 -1.5935 -2.3162
   12MOL   H558 6740   1.812   1.202   1.284 -0.4686 -0.9703  2.6507
   12MOL   H559 6741   1.728   1.030   1.106 -1.1678 -0.1078  2.5021
   12MOL   H560 6742   1.549   0.567   0.931 -1.6904  0.5127 -1.3246
   12MOL   H561 6743   1.560   0.392   0.754 -1.3781  1.2536 -0.3223
   12MOL   H562 6744   2.107   1.140   1.489  0.0140 -2.4768 -0.1405
   13MOL     C1 6745   6.409   4.459   1.380  0.0661  0.5915  0.0801
   13MOL     C2 6746   6.492   4.579   1.421 -0.3705 -0.4491  0.6282
   13MOL     C3 6747   6.592   4.622   1.328 -0.2309  0.4881 -0.8769
   13MOL     C4 6748   6.648   4.746   1.336  0.3026  0.1175 -0.3609
   13MOL     C5 6749   6.620   4.834   1.441  0.1442  0.1500  0.3118
   13MOL     C6 6750   6.683   4.971   1.450  0.1130  0.3840  0.0332
   13MOL     N7 6751   6.759   5.009   1.341  0.4188  0.7305  0.1823
   13MOL     C8 6752   6.857   5.116   1.338  0.0923 -0.8076 -0.0267
   13MOL     C9 6753   6.940   5.124   1.227 -0.7408  0.2072  0.1690
   13MOL    C10 6754   7.041   5.222   1.212  0.6766  0.6495 -0.4626
   13MOL    C11 6755   7.076   5.302   1.323  0.0343  0.3568  0.2575
   13MOL    N12 6756   7.185   5.397   1.310 -0.2244  0.2376 -0.2484
   13MOL    C13 6757   6.990   5.295   1.436  0.3380 -0.2504 -0.0503
   13MOL    C14 6758   6.883   5.209   1.439  0.1040 -0.3684  0.4793
   13MOL    O15 6759   6.654   5.039   1.546  0.8280 -0.6963  0.2066
   13MOL    C16 6760   6.535   4.788   1.542  0.3243  0.6899  0.7029
   13MOL    C17 6761   6.462   4.667   1.528  0.1425  0.5247  0.1258
   13MOL    O18 6762   6.325   4.412   1.454 -0.2236  0.1045 -0.3188
   13MOL    H19 6763   6.620   4.556   1.248 -2.1793  0.7948 -1.8435
   13MOL    H20 6764   6.725   4.776   1.266  0.0434  0.8500 -0.3279
   13MOL    H21 6765   6.760   4.943   1.265 -1.3466  1.2166 -0.2672
   13MOL    H22 6766   6.916   5.059   1.144 -0.0556 -2.4480  1.9768
   13MOL    H23 6767   7.094   5.220   1.118  1.0005 -2.5491 -0.2654
   13MOL    H24 6768   7.227   5.421   1.221 -0.6111 -0.4168 -0.6036
   13MOL    H25 6769   7.004   5.369   1.513 -0.4981  0.4096 -0.5235
   13MOL    H26 6770   6.812   5.216   1.519 -1.5247 -0.7673 -0.8883
   13MOL    H27 6771   6.522   4.847   1.631 -0.1872 -0.2273  1.2523
   13MOL    H28 6772   6.392   4.629   1.600  0.1431  0.5916  0.1616
   13MOL    H29 6773   6.428   4.429   1.277 -0.3407  1.0354 -0.1240
   13MOL    C30 6774   7.261   5.452   1.406 -0.5717 -0.9172  0.3750
   13MOL    C31 6775   7.372   5.542   1.367 -0.4208  0.4639  0.1020
   13MOL    C32 6776   7.388   5.668   1.428  0.1927 -0.1637 -0.3844
   13MOL    C33 6777   7.503   5.746   1.400 -0.3271 -0.2344 -0.3251
   13MOL    C34 6778   7.607   5.690   1.314 -0.1763 -0.4136 -0.9561
   13MOL    C35 6779   7.738   5.764   1.305  0.3263 -0.0252  0.6468
   13MOL    N36 6780   7.841   5.685   1.336 -0.4112 -0.2561 -0.1455
   13MOL    C37 6781   7.978   5.719   1.346  0.7326  0.4616 -0.2423
   13MOL    C38 6782   8.069   5.619   1.321  0.0651  0.0090  1.0755
   13MOL    C39 6783   0.059   5.633   1.349 -0.1141 -0.1111 -0.7160
   13MOL    C40 6784   0.111   5.752   1.411 -0.4509 -0.1287  1.5103
   13MOL    N41 6785   0.248   5.758   1.439 -0.0492  0.7135  0.6305
   13MOL    C42 6786   0.019   5.858   1.432 -0.3251  0.1014  0.5713
   13MOL    C43 6787   8.026   5.846   1.396 -0.5844 -0.1801  0.1467
   13MOL    O44 6788   7.745   5.885   1.272 -0.2812  0.3439  0.6004
   13MOL    C45 6789   7.587   5.567   1.254  0.8864 -0.2636 -0.3158
   13MOL    C46 6790   7.469   5.490   1.275  0.3907 -0.3100 -0.3591
   13MOL    O47 6791   7.230   5.437   1.524  0.5509  0.2427  0.5154
   13MOL    H48 6792   7.316   5.705   1.501  0.1021 -0.0638 -0.5242
   13MOL    H49 6793   7.516   5.844   1.444  1.2930 -0.1443 -0.9588
   13MOL    H50 6794   7.824   5.591   1.368 -0.4121  0.3938  1.8709
   13MOL    H51 6795   8.021   5.533   1.278 -2.7151  3.1762 -2.5183
   13MOL    H52 6796   0.117   5.547   1.316 -1.4018 -1.3098  0.0774
   13MOL    H53 6797   0.299   5.681   1.398  0.2753 -0.2096  2.6903
   13MOL    H54 6798   0.039   5.958   1.468 -1.7000  0.7029 -0.3169
   13MOL    H55 6799   7.955   5.927   1.402 -1.7640 -0.9528 -2.3231
   13MOL    H56 6800   7.671   5.529   1.197  1.3644 -0.9116  0.8144
   13MOL    H57 6801   7.473   5.389   1.237 -0.3217  0.7928 -3.4773
   13MOL    C58 6802   0.321   5.840   1.517 -0.3315 -0.0886 -0.3521
   13MOL    C59 6803   0.468   5.803   1.532 -0.4898  0.1820 -0.3454
   13MOL    C60 6804   0.540   5.863   1.632  0.0651  0.2183  0.0502
   13MOL    C61 6805   0.671   5.827   1.660 -0.5059 -0.2644  0.0907
   13MOL    C62 6806   0.728   5.720   1.588 -0.3134 -0.1004 -0.2955
   13MOL    C63 6807   0.862   5.669   1.634 -0.9690 -0.1052  1.0879
   13MOL    N64 6808   0.883   5.541   1.661  0.2339  0.2057 -0.4782
   13MOL    C65 6809   0.799   5.432   1.650  0.5494 -0.5804  0.7674
   13MOL    C66 6810   0.672   5.432   1.708 -0.4836  0.4629 -0.2949
   13MOL    C67 6811   0.588   5.319   1.685 -0.4772  0.5269 -0.5180
   13MOL    C68 6812   0.636   5.210   1.614  0.4649  0.0524  0.1785
   13MOL    N69 6813   0.539   5.115   1.582 -0.8433  0.1157 -0.0677
   13MOL    C70 6814   0.767   5.210   1.567  0.3086  0.0643  0.8806
   13MOL    C71 6815   0.843   5.322   1.582  0.1227 -0.1846  0.2332
   13MOL    O72 6816   0.955   5.752   1.639  0.3976  0.1329  0.7976
   13MOL    C73 6817   0.661   5.658   1.482  0.2876  0.4206  0.6728
   13MOL    C74 6818   0.531   5.698   1.450  0.0399  0.1505 -0.2262
   13MOL    O75 6819   0.276   5.931   1.586 -0.1707 -0.6893 -0.4539
   13MOL    H76 6820   0.491   5.926   1.705 -0.6769 -1.4539  1.0196
   13MOL    H77 6821   0.723   5.873   1.742 -0.4095 -1.2553  0.5856
   13MOL    H78 6822   0.980   5.524   1.686  0.0128  1.3393  1.3045
   13MOL    H79 6823   0.636   5.515   1.767  1.9512  0.2577  1.5194
   13MOL    H80 6824   0.488   5.325   1.726 -1.1050 -1.2321 -1.7264
   13MOL    H81 6825   0.443   5.141   1.595 -1.3754 -0.5814 -2.5213
   13MOL    H82 6826   0.805   5.125   1.514  2.6599  2.1494 -0.8989
   13MOL    H83 6827   0.945   5.329   1.547  0.2131  0.7340  0.6553
   13MOL    H84 6828   0.708   5.582   1.421  1.1338  0.3027  1.4618
   13MOL    H85 6829   0.477   5.657   1.366  1.8380 -0.3236 -1.1894
   13MOL    C86 6830   0.565   4.986   1.553 -0.5129 -0.4507 -0.9891
   13MOL    C87 6831   0.462   4.919   1.482 -0.1427  0.6107  0.0921
   13MOL    C88 6832   0.382   4.993   1.387  0.0751 -0.4855  0.3566
   13MOL    C89 6833   0.270   4.941   1.322 -0.1945 -0.6839 -0.0361
   13MOL    C90 6834   0.228   4.813   1.359  0.3212 -0.8644  0.0858
   13MOL    C91 6835   0.107   4.747   1.304  0.2016 -0.1634 -0.7878
   13MOL    N92 6836   0.132   4.664   1.211  0.0460 -0.3676  0.4280
   13MOL    C93 6837   0.039   4.585   1.141  0.9237 -0.2069  0.9283
   13MOL    C94 6838   0.094   4.500   1.047 -0.1802  0.1686 -0.5159
   13MOL    C95 6839   0.014   4.414   0.974  0.7243  0.1619  0.1303
   13MOL    C96 6840   8.018   4.418   0.991 -0.9274  0.4772  0.7431
   13MOL    N97 6841   7.938   4.340   0.898  0.4958 -0.3495  0.0040
   13MOL    C98 6842   7.962   4.507   1.079 -0.0350 -0.3747 -0.1286
   13MOL    C99 6843   8.043   4.595   1.151 -0.0034 -0.0665  0.2199
   13MOL   O100 6844   8.140   4.782   1.344 -0.4520 -0.2408 -0.1430
   13MOL   C101 6845   0.311   4.737   1.444 -0.3697  0.1012  0.6904
   13MOL   C102 6846   0.427   4.787   1.503  0.5981 -0.7157 -0.1060
   13MOL   O103 6847   0.668   4.925   1.596  0.4158 -0.3088  0.2440
   13MOL   H104 6848   0.409   5.095   1.364 -0.1451 -0.8843 -1.7183
   13MOL   H105 6849   0.220   5.003   1.249  0.5052 -0.7039 -0.5413
   13MOL   H106 6850   0.226   4.657   1.175 -1.2745 -0.4929 -3.1586
   13MOL   H107 6851   0.200   4.507   1.031  0.0137 -0.2337  0.5611
   13MOL   H108 6852   0.070   4.347   0.912 -1.3849 -1.0279 -0.5280
   13MOL   H109 6853   7.971   4.332   0.803  0.4752  0.1484 -0.0492
   13MOL   H110 6854   7.855   4.514   1.094 -0.2590 -2.1174 -0.8604
   13MOL   H111 6855   7.997   4.665   1.218 -1.1161  1.9204 -2.5341
   13MOL   H112 6856   0.291   4.633   1.465  0.4363 -0.4456 -1.1262
   13MOL   H113 6857   0.485   4.729   1.574  2.9735  1.8400  0.1202
   13MOL   C114 6858   7.832   4.269   0.936  0.1983 -0.1008 -0.8972
   13MOL   C115 6859   7.746   4.214   0.825  0.0029 -0.3429  0.3133
   13MOL   C116 6860   7.609   4.196   0.851  0.3707 -0.3208  0.2365
   13MOL   C117 6861   7.521   4.156   0.743 -0.0171  0.1402 -0.3767
   13MOL   C118 6862   7.574   4.128   0.613 -0.1958  0.3402  0.1504
   13MOL   C119 6863   7.483   4.085   0.499  0.4720  0.0835  0.7326
   13MOL   N120 6864   7.527   4.000   0.407  0.2311 -0.0105 -0.3639
   13MOL   C121 6865   7.456   3.926   0.309  0.3150 -0.1798  0.1065
   13MOL   C122 6866   7.531   3.866   0.206 -0.3389 -1.2693 -0.0822
   13MOL   C123 6867   7.468   3.790   0.106 -0.3906  0.0823  0.1129
   13MOL   C124 6868   7.329   3.778   0.095 -0.0024  0.1825 -0.3255
   13MOL   N125 6869   7.260   3.695   8.143 -0.2964 -0.0140  0.0970
   13MOL   C126 6870   7.257   3.843   0.197  0.5146  0.1836  0.1058
   13MOL   C127 6871   7.317   3.916   0.301  0.0261 -0.1724 -0.4872
   13MOL   O128 6872   7.368   4.131   0.494  0.8152 -0.4155 -0.6965
   13MOL   C129 6873   7.713   4.137   0.593  0.4738 -1.0586  0.0815
   13MOL   C130 6874   7.801   4.179   0.697  0.2954 -0.2354  0.0428
   13MOL   O131 6875   7.807   4.245   1.057  0.1454 -0.0267  0.0482
   13MOL   H132 6876   7.561   4.215   0.946 -0.2211 -0.2986 -0.0681
   13MOL   H133 6877   7.418   4.140   0.772  0.2775  3.2071  2.6206
   13MOL   H134 6878   7.622   3.968   0.421  0.0217 -0.1434  0.7890
   13MOL   H135 6879   7.638   3.878   0.217 -0.9368  3.0136  2.1785
   13MOL   H136 6880   7.541   3.753   0.035  0.9838  1.0954  0.9995
   13MOL   H137 6881   7.164   3.671   0.018 -0.4270 -1.3193 -1.8850
   13MOL   H138 6882   7.149   3.847   0.202  0.5622  0.6544  0.9435
   13MOL   H139 6883   7.256   3.957   0.380  0.4993  1.8169 -1.1330
   13MOL   H140 6884   7.757   4.127   0.495  1.2783 -2.7831  0.5976
   13MOL   H141 6885   7.904   4.203   0.674 -0.5778  0.7760 -3.0770
   13MOL   C142 6886   7.314   3.629   8.038  0.4986  0.9207  0.2660
   13MOL   C143 6887   7.225   3.547   7.949 -0.1704 -0.3324  0.1980
   13MOL   C144 6888   7.089   3.587   7.934  0.3130 -0.5328  0.3804
   13MOL   C145 6889   7.004   3.494   7.865  0.2171 -0.0434 -0.4236
   13MOL   C146 6890   7.041   3.366   7.822  0.3575  0.1022  0.1420
   13MOL   C147 6891   6.943   3.271   7.764  0.5442 -0.4658 -0.1956
   13MOL   N148 6892   6.960   3.150   7.815 -0.0780  0.0420  0.2968
   13MOL   C149 6893   6.873   3.040   7.804 -1.2027  0.1226  0.2411
   13MOL   C150 6894   6.764   3.031   7.713  0.2049  1.3901 -0.1157
   13MOL   C151 6895   6.698   2.904   7.708 -0.9098 -0.3901  0.2472
   13MOL   C152 6896   6.727   2.806   7.796  0.3321  0.1289 -0.9764
   13MOL   N153 6897   6.664   2.677   7.809 -0.3096 -0.6584 -0.1689
   13MOL   C154 6898   6.829   2.822   7.886 -0.1991 -0.5195 -0.3269
   13MOL   C155 6899   6.910   2.932   7.886 -0.0153  0.2339  0.5254
   13MOL   O156 6900   6.878   3.303   7.667 -0.3700 -0.3776  0.0581
   13MOL   C157 6901   7.181   3.338   7.818  0.2563 -0.1222  0.1388
   13MOL   C158 6902   7.271   3.423   7.890 -0.3157  0.4937  0.0164
   13MOL   O159 6903   7.432   3.635   8.000  0.0007  0.0372 -0.0590
   13MOL   H160 6904   7.067   3.692   7.946  0.2903 -0.4196 -0.5968
   13MOL   H161 6905   6.898   3.514   7.875 -0.2028 -1.1282 -2.3531
   13MOL   H162 6906   7.036   3.131   7.880  0.2795  0.5928  0.0439
   13MOL   H163 6907   6.741   3.107   7.640 -1.6821  1.4019  0.4840
   13MOL   H164 6908   6.616   2.890   7.639 -1.2534  0.1167  0.5461
   13MOL   H165 6909   6.710   2.619   7.877 -1.7488 -0.4352  1.0182
   13MOL   H166 6910   6.861   2.740   7.950  0.2638 -1.6156 -1.9331
   13MOL   H167 6911   6.982   2.942   7.965  0.9736 -1.2933 -0.1681
   13MOL   H168 6912   7.223   3.257   7.761 -0.6893 -0.2047 -0.4550
   13MOL   H169 6913   7.376   3.398   7.898 -0.3299  0.3519 -0.2470
   13MOL   C170 6914   6.563   2.613   7.745 -0.3428 -0.3713 -0.5905
   13MOL   C171 6915   6.535   2.474   7.791  1.0468 -0.9015  0.4129
   13MOL   C172 6916   6.480   2.388   7.695 -0.9385 -0.2878  0.0107
   13MOL   C173 6917   6.466   2.252   7.724 -0.3518  0.4906  0.2026
   13MOL   C174 6918   6.489   2.200   7.857  0.1611  0.8253 -0.5869
   13MOL   C175 6919   6.459   2.054   7.887 -0.0011 -0.6988 -0.4279
   13MOL   N176 6920   6.489   1.968   7.784 -0.3621  0.3452 -0.1975
   13MOL   C177 6921   6.465   1.824   7.775 -0.1560  0.3419 -0.1267
   13MOL   C178 6922   6.551   1.743   7.709  0.0238  0.2903  0.1413
   13MOL   C179 6923   6.522   1.605   7.693 -0.1667 -0.4875  0.0478
   13MOL   C180 6924   6.417   1.540   7.761  0.4753 -0.4684  0.2862
   13MOL   N181 6925   6.395   1.406   7.729 -0.4252  0.5124  0.0860
   13MOL   C182 6926   6.337   1.622   7.843 -0.0539 -0.2845  0.3868
   13MOL   C183 6927   6.358   1.763   7.853 -0.7850 -0.8736  0.6984
   13MOL   O184 6928   6.413   2.012   7.992 -0.2471  0.1363 -0.2273
   13MOL   C185 6929   6.537   2.291   7.956  0.2757  0.1017 -0.0055
   13MOL   C186 6930   6.558   2.428   7.922  0.5989 -0.5605 -0.2874
   13MOL   O187 6931   6.506   2.664   7.649 -0.0702  0.1233  0.2617
   13MOL   H188 6932   6.465   2.412   7.590  0.0760  1.7443  0.3115
   13MOL   H189 6933   6.440   2.182   7.646  2.4494 -0.9642  0.5195
   13MOL   H190 6934   6.543   2.010   7.710 -0.2250 -1.1187 -0.9356
   13MOL   H191 6935   6.631   1.793   7.657  0.9784  0.4581  1.7229
   13MOL   H192 6936   6.587   1.546   7.630 -1.1613 -1.0782 -0.4307
   13MOL   H193 6937   6.458   1.360   7.664 -0.0340  1.2660 -0.0744
   13MOL   H194 6938   6.251   1.587   7.898  0.0767 -0.0407  0.7460
   13MOL   H195 6939   6.284   1.831   7.892 -2.6980 -2.0813 -0.7283
   13MOL   H196 6940   6.546   2.247   8.054 -0.8077 -0.2770 -0.0626
   13MOL   H197 6941   6.591   2.496   8.000 -0.6834 -0.8549  0.5318
   13MOL   C198 6942   6.306   1.323   7.780 -0.5534  0.2295  0.1693
   13MOL   C199 6943   6.314   1.185   7.719 -0.6278 -0.6409  0.7114
   13MOL   C200 6944   6.300   1.163   7.575 -0.7324  0.9177 -0.2795
   13MOL   C201 6945   6.300   1.030   7.525  0.0785 -0.7187 -0.1162
   13MOL   C202 6946   6.327   0.920   7.611  0.0838 -0.4778 -0.5280
   13MOL   C203 6947   6.339   0.782   7.552 -0.1773  0.0854  0.2873
   13MOL   N204 6948   6.353   0.779   7.418 -0.5194 -0.1349 -0.3146
   13MOL   C205 6949   6.376   0.665   7.337 -0.1998 -0.6934 -0.2371
   13MOL   C206 6950   6.468   0.669   7.229 -0.2653 -0.6915 -0.4108
   13MOL   C207 6951   6.500   0.555   7.155 -0.3570  0.5346 -0.0415
   13MOL   C208 6952   6.437   0.430   7.183  0.5628  0.0970  0.3678
   13MOL   N209 6953   6.475   0.317   7.107  0.2987 -0.0505  0.7227
   13MOL   C210 6954   6.340   0.422   7.287  0.6664 -0.4093  0.2870
   13MOL   C211 6955   6.310   0.539   7.363  0.0509  0.1507 -1.4181
   13MOL   O212 6956   6.323   0.684   7.618 -0.1561  0.3682  0.0918
   13MOL   C213 6957   6.344   0.948   7.748  0.2522  0.5428 -0.1581
   13MOL   C214 6958   6.351   1.077   7.803  0.1180  0.1439 -0.1030
   13MOL   O215 6959   6.233   1.342   7.878 -0.1878 -0.0779  0.6712
   13MOL   H216 6960   6.276   1.247   7.511 -1.4079 -0.6917 -2.1856
   13MOL   H217 6961   6.266   1.022   7.423 -0.6451  2.2649 -0.1362
   13MOL   H218 6962   6.383   0.867   7.380 -3.0909  0.7416 -0.3860
   13MOL   H219 6963   6.521   0.760   7.204 -1.6531  0.3340  0.3462
   13MOL   H220 6964   6.574   0.571   7.078 -0.6932  0.4058 -0.3916
   13MOL   H221 6965   6.546   0.323   7.036  2.6202  0.0723  3.0081
   13MOL   H222 6966   6.285   0.332   7.311 -1.3427  1.0352  1.2471
   13MOL   H223 6967   6.235   0.527   7.440 -0.1128  0.1349 -1.5813
   13MOL   H224 6968   6.358   0.862   7.812  1.1608  1.5558  1.0173
   13MOL   H225 6969   6.358   1.087   7.911 -0.7782 -0.6942  0.0397
   13MOL   C226 6970   6.452   0.189   7.122 -1.1176  0.0732 -0.2793
   13MOL   C227 6971   6.522   0.112   7.006 -1.1000 -0.2230 -0.8333
   13MOL   C228 6972   6.585   8.128   7.020  0.4933 -0.1300 -1.0993
   13MOL   C229 6973   6.655   8.064   6.921 -0.3792  0.2908  0.3419
   13MOL   C230 6974   6.658   8.117   6.791 -0.1301  0.3064 -0.3272
   13MOL   C231 6975   6.723   8.045   6.678  0.0739  0.2696 -0.3045
   13MOL   N232 6976   6.812   7.952   6.719  0.1828  0.4436 -0.3518
   13MOL   C233 6977   6.896   7.874   6.639 -0.5952  0.7422  0.1213
   13MOL   C234 6978   6.935   7.747   6.691  1.0632 -0.0187  0.1537
   13MOL   C235 6979   7.016   7.659   6.617 -0.6549 -0.0143  0.3123
   13MOL   C236 6980   7.059   7.698   6.492  0.1163 -0.1181  0.6157
   13MOL   N237 6981   7.139   7.601   6.418  0.5065  0.3884  0.8114
   13MOL   C238 6982   7.029   7.826   6.441  0.1907  0.3977  0.0633
   13MOL   C239 6983   6.949   7.915   6.515 -0.4294  0.4747  0.6932
   13MOL   O240 6984   6.703   8.071   6.558  0.1341 -0.3311  0.1847
   13MOL   C241 6985   6.594   0.099   6.769 -0.1777  0.0356 -0.1309
   13MOL   C242 6986   6.526   0.172   6.872  0.2243  0.1759 -0.4096
   13MOL   O243 6987   6.388   0.130   7.210 -0.2693 -0.0726 -0.7088
   13MOL   H244 6988   6.581   8.098   7.123 -0.4922  0.5757 -0.9288
   13MOL   H245 6989   6.707   7.971   6.939  0.6158 -0.0103 -3.6087
   13MOL   H246 6990   6.813   7.928   6.817  1.5143  0.1417 -0.4237
   13MOL   H247 6991   6.905   7.719   6.791 -0.2531  3.2232  0.7151
   13MOL   H248 6992   7.046   7.565   6.660  1.3643  0.8491  0.8803
   13MOL   H249 6993   7.190   7.534   6.474  0.9104 -0.0336 -0.0453
   13MOL   H250 6994   7.064   7.852   6.342  1.2245 -1.5771 -0.1076
   13MOL   H251 6995   6.921   8.011   6.476 -1.8491  0.4232  1.5324
   13MOL   H252 6996   6.598   0.137   6.668 -3.7322 -0.0852 -0.3879
   13MOL   H253 6997   6.492   0.272   6.848 -1.7843 -0.2462  0.5801
   13MOL   C254 6998   7.154   7.583   6.285  0.2935  0.0660 -0.8449
   13MOL   C255 6999   7.261   7.487   6.239 -0.1436 -0.1710 -0.6639
   13MOL   C256 7000   7.257   7.426   6.111  0.3297 -0.3320 -0.1396
   13MOL   C257 7001   7.360   7.330   6.076 -0.6822  0.1584  0.1226
   13MOL   C258 7002   7.471   7.305   6.160  0.4410 -0.7292  0.3668
   13MOL   C259 7003   7.579   7.197   6.129  0.4511 -0.4958 -0.0885
   13MOL   N260 7004   7.593   7.160   6.006  0.3501  0.1103 -0.3035
   13MOL   C261 7005   7.684   7.074   5.948  0.5025 -0.2604  0.1609
   13MOL   C262 7006   7.809   7.047   6.011  0.4329  1.1487 -0.4119
   13MOL   C263 7007   7.919   6.987   5.947 -0.5039 -0.3507  0.4669
   13MOL   C264 7008   7.904   6.956   5.812 -1.0919  0.5475  0.1921
   13MOL   N265 7009   8.022   6.904   5.756  0.0581 -0.5816  0.1694
   13MOL   C266 7010   7.779   6.967   5.749 -0.3419  0.0378 -0.0549
   13MOL   C267 7011   7.671   7.027   5.818  0.2356  0.4286 -0.1606
   13MOL   O268 7012   7.638   7.152   6.229  0.2415 -0.0187  0.2954
   13MOL   C269 7013   7.465   7.359   6.291  0.5065  0.2023  0.1431
   13MOL   C270 7014   7.371   7.454   6.326  0.2138  0.3734 -0.0473
   13MOL   O271 7015   7.079   7.641   6.210 -0.0052  0.4517  0.6019
   13MOL   H272 7016   7.187   7.452   6.033 -0.9913  0.9158  1.4292
   13MOL   H273 7017   7.347   7.282   5.980 -0.9828  0.1417  0.1696
   13MOL   H274 7018   7.524   7.196   5.941 -1.3157 -2.8551 -0.2445
   13MOL   H275 7019   7.827   7.073   6.115  0.5217 -1.1403  0.1800
   13MOL   H276 7020   8.014   6.969   5.995 -0.6716 -0.3777  0.7963
   13MOL   H277 7021   8.099   6.897   5.821 -0.2463 -0.2519  0.5638
   13MOL   H278 7022   7.753   6.938   5.648 -1.9113 -0.1407  0.3858
   13MOL   H279 7023   7.577   7.040   5.767 -0.5503  1.7909  1.5899
   13MOL   H280 7024   7.542   7.337   6.364 -1.5045 -1.5999  1.7835
   13MOL   H281 7025   7.374   7.507   6.420 -2.5547 -1.3553  1.0790
   13MOL   C282 7026   8.061   6.920   5.624 -0.5019  0.0589 -0.2287
   13MOL   C283 7027   0.055   6.879   5.588  0.3579 -0.3001  0.4045
   13MOL   C284 7028   0.136   6.803   5.671 -0.1470 -0.0894  0.0599
   13MOL   C285 7029   0.268   6.769   5.631 -0.0179 -0.7373 -0.3217
   13MOL   C286 7030   0.309   6.800   5.497 -0.4186  0.3758  0.4324
   13MOL   C287 7031   0.442   6.764   5.442  0.3522  0.8101 -0.1757
   13MOL   N288 7032   0.443   6.678   5.343  0.2151 -0.7209 -0.2922
   13MOL   C289 7033   0.558   6.613   5.283 -0.0216 -0.3580 -0.1408
   13MOL   C290 7034   0.536   6.493   5.218  0.7272 -0.8361 -0.4397
   13MOL   C291 7035   0.636   6.405   5.185 -0.0520 -0.3651 -0.1140
   13MOL   C292 7036   0.767   6.450   5.194  0.3014  0.2199  0.1280
   13MOL   N293 7037   0.880   6.381   5.153 -0.5618 -0.3888  0.1089
   13MOL   C294 7038   0.798   6.569   5.255  0.9000  0.0376 -0.3802
   13MOL   C295 7039   0.695   6.650   5.305 -0.1691  0.0735  0.2964
   13MOL   O296 7040   0.541   6.806   5.507 -0.2401  0.1466 -0.8127
   13MOL   C297 7041   0.227   6.885   5.423  0.5444 -0.2097 -0.1799
   13MOL   C298 7042   0.102   6.926   5.464  0.0573 -0.0150 -0.3493
   13MOL   O299 7043   7.982   6.958   5.535  0.4476 -0.0088 -0.3387
   13MOL   H300 7044   0.111   6.774   5.772  0.5126  0.3444  0.3507
   13MOL   H301 7045   0.331   6.709   5.694  0.5048 -0.4205 -0.5453
   13MOL   H302 7046   0.358   6.637   5.306 -0.8035 -0.0227  1.2526
   13MOL   H303 7047   0.438   6.449   5.204  0.9891 -0.9511 -2.0534
   13MOL   H304 7048   0.601   6.312   5.142 -1.9179  1.4830 -2.7389
   13MOL   H305 7049   0.969   6.405   5.195 -0.4100  0.3331 -0.6175
   13MOL   H306 7050   0.903   6.593   5.256  0.6961  0.9303 -0.4450
   13MOL   H307 7051   0.729   6.741   5.353  2.8536  0.2395 -2.0501
   13MOL   H308 7052   0.274   6.942   5.344  2.8673  1.7162  2.4741
   13MOL   H309 7053   0.042   6.993   5.404 -1.7509 -0.9853  0.3514
   13MOL   C310 7054   0.883   6.269   5.079  0.5371 -0.6678 -0.1561
   13MOL   C311 7055   0.997   6.173   5.110  0.3406  0.4083 -0.2073
   13MOL   C312 7056   1.046   6.087   5.007 -0.1251 -0.4246 -0.2616
   13MOL   C313 7057   1.148   5.993   5.040  0.5193  0.8951  0.2755
   13MOL   C314 7058   1.199   5.980   5.170 -0.5813  0.4725  0.2993
   13MOL   C315 7059   1.311   5.879   5.202  0.0680 -0.1634  0.9658
   13MOL   N316 7060   1.302   5.807   5.315  0.2591  0.3259 -0.8077
   13MOL   C317 7061   1.192   5.783   5.398 -0.1779  0.1840  0.0218
   13MOL   C318 7062   1.217   5.784   5.532  0.1079 -0.4435  0.6022
   13MOL   C319 7063   1.106   5.778   5.624 -0.2112  0.0901  0.1144
   13MOL   C320 7064   0.978   5.746   5.574  0.0881  0.2593  0.6888
   13MOL   N321 7065   0.864   5.753   5.656 -0.6091  0.3017  1.0244
   13MOL   C322 7066   0.961   5.730   5.436 -0.1726  0.2975  0.6245
   13MOL   C323 7067   1.067   5.757   5.344  0.3731 -0.4390  0.0506
   13MOL   O324 7068   1.407   5.873   5.122  0.7383  0.1782  0.1060
   13MOL   C325 7069   1.151   6.063   5.271  0.0239 -0.2027  0.0901
   13MOL   C326 7070   1.047   6.153   5.239  0.3182  0.2967  0.3089
   13MOL   O327 7071   0.803   6.242   4.988 -0.2105  0.1773  0.1126
   13MOL   H328 7072   1.011   6.103   4.906  2.4646  0.2025 -1.1091
   13MOL   H329 7073   1.199   5.931   4.967 -2.6783  0.3138 -1.5354
   13MOL   H330 7074   1.389   5.766   5.346  0.8986  3.4272  1.6887
   13MOL   H331 7075   1.313   5.826   5.558 -0.1204 -0.5390  1.6246
   13MOL   H332 7076   1.113   5.800   5.730  0.3308  1.7471 -0.2583
   13MOL   H333 7077   0.862   5.687   5.732 -2.0243 -1.7201 -0.7129
   13MOL   H334 7078   0.865   5.709   5.390 -0.0238  2.0735 -0.5257
   13MOL   H335 7079   1.057   5.760   5.236  1.8453 -1.4590 -0.1274
   13MOL   H336 7080   1.181   6.071   5.374 -1.4785 -0.5428  0.5629
   13MOL   H337 7081   0.997   6.206   5.318 -1.7308  0.7891 -1.2561
   13MOL   C338 7082   0.763   5.849   5.651 -0.1559 -0.0724  0.0259
   13MOL   C339 7083   0.671   5.848   5.768 -0.6479 -0.3185  0.6750
   13MOL   C340 7084   0.530   5.851   5.763 -0.6548 -0.4572  0.7439
   13MOL   C341 7085   0.451   5.871   5.877  0.2005  0.0655 -0.1980
   13MOL   C342 7086   0.511   5.881   6.008  0.0768 -0.6768  0.5183
   13MOL   C343 7087   0.438   5.911   6.133  0.0192 -0.2404  0.3528
   13MOL   N344 7088   0.391   6.042   6.143 -0.7639  0.4053 -0.3216
   13MOL   C345 7089   0.336   6.115   6.251  0.7752 -0.0887  0.7966
   13MOL   C346 7090   0.292   6.055   6.369 -0.7659 -0.3270  0.3077
   13MOL   C347 7091   0.231   6.130   6.471 -0.4715  0.7773  0.2950
   13MOL   C348 7092   0.208   6.267   6.455 -0.2996 -0.2447  0.4214
   13MOL   N349 7093   0.141   6.330   6.561 -0.2975  0.2703 -0.0886
   13MOL   C350 7094   0.253   6.330   6.338  0.1105  0.4656  0.0107
   13MOL   C351 7095   0.320   6.256   6.239 -0.1208 -0.0600 -0.8418
   13MOL   O352 7096   0.430   5.824   6.221 -0.1927 -0.4283  0.0043
   13MOL   C353 7097   0.655   5.873   6.009 -0.1951 -0.0478  0.8952
   13MOL   C354 7098   0.731   5.859   5.891  0.6293 -0.1122  0.4887
   13MOL   O355 7099   0.733   5.910   5.549  0.6333 -0.2736  0.0353
   13MOL   H356 7100   0.481   5.847   5.667  3.6683 -0.7300 -1.5527
   13MOL   H357 7101   0.343   5.871   5.871  0.2652  0.3755 -1.6958
   13MOL   H358 7102   0.399   6.095   6.057  0.3679  1.1548  0.2236
   13MOL   H359 7103   0.313   5.951   6.389  0.1291 -0.5493 -1.6814
   13MOL   H360 7104   0.189   6.076   6.554 -1.7884  0.3549 -0.6449
   13MOL   H361 7105   0.162   6.298   6.655 -1.6787 -0.7092 -0.0968
   13MOL   H362 7106   0.236   6.437   6.335 -0.8783  0.2647 -2.0822
   13MOL   H363 7107   0.356   6.310   6.153  0.1030 -0.4182 -0.9702
   13MOL   H364 7108   0.705   5.895   6.102 -1.8505  1.8804  1.3862
   13MOL   H365 7109   0.839   5.867   5.898  1.0656 -2.1120 -3.1180
   13MOL   C366 7110   0.050   6.432   6.558  0.2235  0.5601  0.2767
   13MOL   C367 7111   0.007   6.484   6.692 -0.7627  0.1295  0.8677
   13MOL   C368 7112   8.125   6.619   6.701  0.7512  0.5354 -0.3807
   13MOL   C369 7113   8.077   6.670   6.824  1.1260  0.8359 -0.5373
   13MOL   C370 7114   8.061   6.591   6.938  0.2781  0.1519  0.0375
   13MOL   C371 7115   8.011   6.655   7.062 -0.2535 -0.5442  0.0879
   13MOL   N372 7116   7.897   6.720   7.043  0.4752 -0.3977  0.3941
   13MOL   C373 7117   7.826   6.803   7.123 -0.2731 -0.6215  0.1185
   13MOL   C374 7118   7.769   6.920   7.070 -0.0927 -0.2795 -0.1030
   13MOL   C375 7119   7.701   7.010   7.154 -0.1884 -0.1791 -0.6369
   13MOL   C376 7120   7.694   6.988   7.296 -0.3194  0.2578 -0.2004
   13MOL   N377 7121   7.618   7.069   7.380 -0.1282  0.8444 -0.6449
   13MOL   C378 7122   7.753   6.870   7.342 -0.1634 -0.0814 -0.5089
   13MOL   C379 7123   7.818   6.776   7.260  0.9156  0.7090  0.4963
   13MOL   O380 7124   8.067   6.628   7.166 -0.1270 -0.0010 -0.4006
   13MOL   C381 7125   8.091   6.453   6.928 -0.1579 -0.3870  0.0729
   13MOL   C382 7126   8.137   6.396   6.804  0.6020  0.1342  0.3343
   13MOL   O383 7127   0.023   6.480   6.447 -0.1612  1.0048 -0.5599
   13MOL   H384 7128   8.129   6.692   6.621  0.6485 -0.9614 -1.7869
   13MOL   H385 7129   8.047   6.774   6.815 -3.7660 -0.4518 -0.4681
   13MOL   H386 7130   7.872   6.719   6.946  1.8714  2.2976 -0.0373
   13MOL   H387 7131   7.771   6.923   6.962  0.6664 -0.1237 -0.0868
   13MOL   H388 7132   7.644   7.091   7.112 -0.7907  0.1570  0.8245
   13MOL   H389 7133   7.542   7.015   7.418  0.3751 -0.0819 -0.9649
   13MOL   H390 7134   7.757   6.859   7.450  0.5881 -0.0062 -0.5315
   13MOL   H391 7135   7.859   6.681   7.291  0.5231  0.1867 -0.5479
   13MOL   H392 7136   8.079   6.386   7.012 -0.1568 -0.1584  0.2566
   13MOL   H393 7137   0.021   6.292   6.798 -0.8462 -0.2666 -0.2142
   13MOL   C394 7138   7.602   7.198   7.363  0.5339 -0.6945 -0.0152
   13MOL   C395 7139   7.500   7.260   7.454  0.7998 -0.1621  0.7062
   13MOL   C396 7140   7.440   7.190   7.556  0.2638  0.0993 -0.2603
   13MOL   C397 7141   7.347   7.258   7.639  0.1721  0.5169 -0.7014
   13MOL   C398 7142   7.316   7.394   7.616  0.1971 -0.4992 -0.6472
   13MOL   C399 7143   7.213   7.461   7.708 -0.1563 -0.6963 -0.8426
   13MOL   N400 7144   7.246   7.583   7.736  0.3804  0.5120 -0.5738
   13MOL   C401 7145   7.174   7.668   7.825  0.6445 -0.2665 -0.1720
   13MOL   C402 7146   7.140   7.796   7.778  0.2595 -0.1650  0.0865
   13MOL   C403 7147   7.079   7.882   7.870 -0.0827 -0.0981 -0.1694
   13MOL   C404 7148   7.056   7.843   8.002 -0.6021  0.2060 -0.8457
   13MOL   N405 7149   7.012   7.935   8.103  0.0347  0.4603  0.4118
   13MOL   C406 7150   7.082   7.712   8.045 -0.4009 -0.6205 -0.2523
   13MOL   C407 7151   7.128   7.622   7.947  0.8775  0.1396  0.1540
   13MOL   O408 7152   7.112   7.404   7.742 -0.1711  0.0768 -1.0831
   13MOL   C409 7153   7.378   7.463   7.511  0.0862 -0.8046  0.6517
   13MOL   C410 7154   7.468   7.395   7.425  0.3492  0.1945  0.4048
   13MOL   O411 7155   7.667   7.266   7.286 -0.4870 -0.1161 -0.1707
   13MOL   H412 7156   7.463   7.085   7.569  0.9562  0.3847  0.8581
   13MOL   H413 7157   7.310   7.210   7.728  0.5638 -0.1344 -0.8865
   13MOL   H414 7158   7.339   7.617   7.714  1.2375 -0.8926  0.7758
   13MOL   H415 7159   7.159   7.821   7.675  0.3383 -0.8749 -0.0756
   13MOL   H416 7160   7.044   7.978   7.835  0.4268 -0.0703 -0.6123
   13MOL   H417 7161   6.932   7.992   8.081 -0.8203 -1.3639 -1.3388
   13MOL   H418 7162   7.078   7.678   0.001  1.4666 -0.2081 -0.0213
   13MOL   H419 7163   7.159   7.526   7.985 -0.4274  0.7212  2.8038
   13MOL   H420 7164   7.358   7.568   7.498 -0.7596 -1.3526 -3.2476
   13MOL   H421 7165   7.507   7.453   7.343 -0.7106 -0.4302 -0.5619
   13MOL   C422 7166   7.062   7.967   0.073  0.7499  0.4026 -0.1735
   13MOL   C423 7167   6.993   8.073   0.154 -0.9239 -0.7956  0.1051
   13MOL   C424 7168   6.853   8.099   0.145 -0.3305  0.6972  0.2314
   13MOL   C425 7169   6.794   0.040   0.242  0.1280 -0.7366 -0.3164
   13MOL   C426 7170   6.864   0.082   0.357  0.3725 -0.8400 -0.1333
   13MOL   C427 7171   6.782   0.159   0.461  0.1123 -0.4155 -0.1640
   13MOL   N428 7172   6.684   0.096   0.525  0.0265 -0.2559  0.2653
   13MOL   C429 7173   6.631   8.110   0.523 -1.2243  0.0996  0.0129
   13MOL   C430 7174   6.716   7.999   0.500 -0.1873  0.4894  0.1586
   13MOL   C431 7175   6.657   7.871   0.483  0.7235 -0.6786 -0.0677
   13MOL   C432 7176   6.522   7.853   0.494  0.0654  1.0264 -0.1801
   13MOL   N433 7177   6.481   7.712   0.484 -0.0298 -0.2086 -0.2068
   13MOL   C434 7178   6.439   7.959   0.517  0.4289 -0.7898  0.0950
   13MOL   C435 7179   6.493   8.087   0.530 -0.1681 -0.2459  0.3289
   13MOL   O436 7180   6.819   0.266   0.494 -0.1891  0.4938 -0.0650
   13MOL   C437 7181   6.994   0.059   0.368 -0.0288  0.1814  0.7186
   13MOL   C438 7182   7.063   8.128   0.269 -0.4357 -0.4270 -0.1509
   13MOL   O439 7183   7.171   7.931   0.116 -0.1526 -0.2968  0.3226
   13MOL   H440 7184   6.782   8.054   0.076  2.2132 -0.0476 -1.9607
   13MOL   H441 7185   6.687   0.053   0.243  0.3942  1.6778 -0.0247
   13MOL   H442 7186   6.635   0.158   0.588 -1.1009  1.5686 -2.3359
   13MOL   H443 7187   6.823   8.014   0.499  0.0300 -1.0411 -0.7290
   13MOL   H444 7188   6.731   7.793   0.472 -0.8877 -1.8468 -3.3925
   13MOL   H445 7189   6.546   7.656   0.431  0.7388 -0.8321  1.3887
   13MOL   H446 7190   6.331   7.947   0.519  0.2310  0.9545  0.7086
   13MOL   H447 7191   6.431   0.029   0.540 -2.3788 -1.8016  0.5656
   13MOL   H448 7192   7.052   0.090   0.454  1.6326  0.5387 -0.4988
   13MOL   H449 7193   7.170   8.114   0.275 -0.5042 -0.3975  1.2741
   13MOL   C450 7194   6.369   7.647   0.526  0.1206 -0.4045 -0.1692
   13MOL   C451 7195   6.359   7.504   0.476  0.1607 -0.2048 -0.5187
   13MOL   C452 7196   6.470   7.415   0.501  0.5192 -0.5582 -0.2620
   13MOL   C453 7197   6.480   7.287   0.449  0.1769 -0.6925 -0.5211
   13MOL   C454 7198   6.381   7.248   0.359  0.2504 -0.4399  0.3601
   13MOL   C455 7199   6.404   7.119   0.282  0.2556 -0.2971  0.4400
   13MOL   N456 7200   6.529   7.111   0.234  0.2279  0.3479 -0.3139
   13MOL   C457 7201   6.590   7.021   0.143  1.0247  0.1431 -0.2092
   13MOL   C458 7202   6.726   7.046   0.116 -0.5781  0.2024  0.6549
   13MOL   C459 7203   6.791   6.968   0.020 -0.2783 -0.5742 -0.3552
   13MOL   C460 7204   6.727   6.868   8.092  0.4247  0.0284  0.0616
   13MOL   N461 7205   6.811   6.785   8.013  0.7064  0.1105  0.4694
   13MOL   C462 7206   6.588   6.850   8.115  0.7061  0.1988  0.6125
   13MOL   C463 7207   6.517   6.921   0.068  0.0030  0.2680  0.6708
   13MOL   O464 7208   6.319   7.042   0.258  0.0607 -0.8020 -0.2868
   13MOL   C465 7209   6.268   7.335   0.336  0.0527 -0.2208  1.1085
   13MOL   C466 7210   6.254   7.465   0.391 -0.3890 -0.0365 -0.5737
   13MOL   O467 7211   6.277   7.703   0.580  0.1031 -0.1581  0.5261
   13MOL   H468 7212   6.550   7.460   0.557 -0.6303  0.2565  0.7422
   13MOL   H469 7213   6.569   7.228   0.462  1.2356  0.5957 -1.6990
   13MOL   H470 7214   6.599   7.179   0.261  1.1017 -0.7973  0.3535
   13MOL   H471 7215   6.772   7.123   0.175  0.9268  0.3900 -0.6996
   13MOL   H472 7216   6.896   6.988   0.007 -0.0491  0.7622  3.0310
   13MOL   H473 7217   6.910   6.785   8.032  0.2502  0.9254  3.0451
   13MOL   H474 7218   6.530   6.773   8.067 -1.1442 -0.7389  4.2106
   13MOL   H475 7219   6.413   6.897   0.088  0.2494 -0.8401  0.6430
   13MOL   H476 7220   6.189   7.307   0.268 -0.2934  0.3036  1.2899
   13MOL   H477 7221   6.183   7.543   0.370  1.9957  2.2667 -0.2480
   13MOL   C478 7222   6.777   6.723   7.899  0.3119  1.0103 -0.0138
   13MOL   C479 7223   6.885   6.645   7.833  0.4432  0.6758  0.1884
   13MOL   C480 7224   7.013   6.701   7.812  0.4426 -0.5346 -0.4924
   13MOL   C481 7225   7.105   6.624   7.738  0.0487 -0.7072 -0.1762
   13MOL   C482 7226   7.071   6.498   7.683 -0.2682  0.2922  0.4397
   13MOL   C483 7227   7.174   6.416   7.621 -0.6176  0.1887 -0.1377
   13MOL   N484 7228   7.123   6.324   7.538 -0.3925 -0.2027  0.4653
   13MOL   C485 7229   7.197   6.235   7.455  0.1883 -0.6941 -0.6156
   13MOL   C486 7230   7.325   6.255   7.406 -0.0741  0.4028  0.2024
   13MOL   C487 7231   7.369   6.165   7.305  0.3452 -0.4831 -0.4503
   13MOL   C488 7232   7.295   6.052   7.267 -1.0171 -0.2683 -0.2969
   13MOL   N489 7233   7.362   5.962   7.182 -0.2328  0.1266  0.5209
   13MOL   C490 7234   7.165   6.030   7.318  0.0606  0.2410  0.0882
   13MOL   C491 7235   7.117   6.127   7.405  0.2869  0.3140  0.1434
   13MOL   O492 7236   7.292   6.421   7.660  0.6808  0.0623 -0.0225
   13MOL   C493 7237   6.952   6.436   7.727 -0.4852  0.2953  0.2017
   13MOL   C494 7238   6.859   6.509   7.798 -0.0818 -1.1282  0.1549
   13MOL   O495 7239   6.670   6.742   7.843  0.8708 -0.2207  0.3207
   13MOL   H496 7240   7.038   6.799   7.851  0.2815 -1.2142  1.3771
   13MOL   H497 7241   7.199   6.665   7.704 -0.7223  3.0217  1.8602
   13MOL   H498 7242   7.022   6.326   7.538 -0.4317  1.2224 -3.2321
   13MOL   H499 7243   7.394   6.329   7.444  0.9115  0.5950 -1.9140
   13MOL   H500 7244   7.467   6.181   7.263  1.7274 -0.0645  2.7596
   13MOL   H501 7245   7.463   5.965   7.181 -0.2279 -0.0345  0.5808
   13MOL   H502 7246   7.097   5.955   7.280 -0.6760 -0.3588  2.5277
   13MOL   H503 7247   7.021   6.117   7.452 -0.5814  0.4790 -1.5518
   13MOL   H504 7248   6.931   6.331   7.714 -0.7546  0.3165  0.4687
   13MOL   H505 7249   6.764   6.461   7.820 -0.1976 -0.5046  1.0471
   13MOL   C506 7250   7.314   5.874   7.094 -0.1563 -0.7686  0.0691
   13MOL   C507 7251   7.424   5.794   7.021 -0.0580 -1.3088 -0.0037
   13MOL   C508 7252   7.394   5.679   6.943  0.0980 -0.0227  0.2537
   13MOL   C509 7253   7.500   5.608   6.878  0.3949  0.5678 -0.2230
   13MOL   C510 7254   7.629   5.656   6.886  0.3049  0.0281 -0.0221
   13MOL   C511 7255   7.742   5.577   6.823 -0.0847 -0.1471 -0.1462
   13MOL   N512 7256   7.715   5.514   6.713 -0.2412 -0.4921 -0.0342
   13MOL   C513 7257   7.807   5.437   6.629  0.5979 -0.7063 -0.5730
   13MOL   C514 7258   7.935   5.380   6.673  0.3220  0.4289 -0.4418
   13MOL   C515 7259   8.013   5.307   6.579 -0.6833  0.3998  1.2551
   13MOL   C516 7260   7.957   5.266   6.453  0.3755 -0.3264 -0.1078
   13MOL   N517 7261   8.035   5.179   6.375  0.0226  0.2708  0.3413
   13MOL   C518 7262   7.824   5.310   6.419  0.0690 -0.3427  0.2600
   13MOL   C519 7263   7.751   5.391   6.503 -0.5387  0.1369 -0.3543
   13MOL   O520 7264   7.854   5.584   6.864  0.1289 -0.0375 -0.0701
   13MOL   C521 7265   7.656   5.772   6.958  0.6040  0.4619  0.4191
   13MOL   C522 7266   7.555   5.836   7.025  1.1520 -0.2498 -0.2020
   13MOL   O523 7267   7.197   5.849   7.069  0.2221  0.0855 -0.0926
   13MOL   H524 7268   7.290   5.649   6.940 -0.1148  0.7161  0.1072
   13MOL   H525 7269   7.483   5.513   6.829  1.3864 -0.2128  0.8858
   13MOL   H526 7270   7.627   5.542   6.672  0.6153  0.6687 -1.1044
   13MOL   H527 7271   7.966   5.391   6.776  0.5676  0.0795 -0.4781
   13MOL   H528 7272   8.111   5.284   6.618  1.1579  2.2366 -2.0064
   13MOL   H529 7273   8.110   5.127   6.418 -1.2031 -1.8884 -0.0871
   13MOL   H530 7274   7.768   5.271   6.335  0.5266  0.2044 -0.3063
   13MOL   H531 7275   7.653   5.417   6.468 -0.6346  0.0133 -0.1781
   13MOL   H532 7276   7.754   5.817   6.959  0.1599  1.4526  1.9779
   13MOL   H533 7277   7.579   5.931   7.073 -2.1867  1.1030 -1.0929
   13MOL   C534 7278   8.022   5.152   6.242  0.6516  0.3742 -0.4109
   13MOL   C535 7279   8.107   5.041   6.189  0.1738 -0.6449 -0.1560
   13MOL   C536 7280   8.055   4.962   6.080 -0.2156 -0.0329 -0.3182
   13MOL   C537 7281   8.104   4.837   6.036  0.2931  0.0590  0.3884
   13MOL   C538 7282   0.073   4.796   6.099 -0.1772  0.9052  0.5433
   13MOL   C539 7283   0.127   4.659   6.074  0.2004  0.3106 -0.2012
   13MOL   N540 7284   0.142   4.650   5.944  0.9682 -0.1608  0.0213
   13MOL   C541 7285   0.162   4.536   5.861  0.4743  0.8078 -0.3541
   13MOL   C542 7286   0.207   4.551   5.732 -0.3494 -0.4765 -0.4978
   13MOL   C543 7287   0.214   4.440   5.656  0.3205  0.4578 -0.3139
   13MOL   C544 7288   0.197   4.310   5.705 -0.0405  0.4162 -0.1511
   13MOL   N545 7289   0.200   4.204   5.621  0.3502  0.1536  0.0327
   13MOL   C546 7290   0.154   4.291   5.833 -0.5093 -0.1500 -0.6949
   13MOL   C547 7291   0.128   4.404   5.910 -0.4104  0.4056 -0.0696
   13MOL   O548 7292   0.138   4.570   6.161 -0.6316 -0.0632 -0.3638
   13MOL   C549 7293   0.141   4.873   6.200 -0.4103  0.5411 -0.2344
   13MOL   C550 7294   0.087   4.998   6.245  0.3863 -0.0353 -0.2510
   13MOL   O551 7295   7.943   5.210   6.169  0.2445 -0.0918  0.6614
   13MOL   H552 7296   7.965   5.002   6.035  0.3350  1.5270 -0.0815
   13MOL   H553 7297   8.057   4.794   5.950  0.3433 -0.8365  0.8015
   13MOL   H554 7298   0.122   4.736   5.894  0.9787 -0.6154 -0.7829
   13MOL   H555 7299   0.225   4.652   5.696  1.9510 -1.1578 -1.3629
   13MOL   H556 7300   0.239   4.464   5.554 -0.3177 -0.2886 -0.6496
   13MOL   H557 7301   0.200   4.215   5.520  2.6486 -0.3003 -0.0472
   13MOL   H558 7302   0.133   4.194   5.875 -1.3940  1.2898  2.3146
   13MOL   H559 7303   0.088   4.384   6.008  0.7164  0.3201  0.3893
   13MOL   H560 7304   0.236   4.844   6.241 -0.8259 -1.4751 -0.6433
   13MOL   H561 7305   0.143   5.046   6.324 -0.1465  3.8044 -2.1045
   13MOL   H562 7306   0.149   4.122   5.648 -1.4479  1.1270 -0.2946
   14MOL     C1 7307   7.871   7.383   4.369 -0.2958 -0.3368  0.4902
   14MOL     C2 7308   7.941   7.503   4.437 -0.1873  0.7289 -0.1701
   14MOL     C3 7309   7.879   7.630   4.430  0.2264  0.2261  0.7773
   14MOL     C4 7310   7.955   7.746   4.456 -0.1787  0.2549 -0.4922
   14MOL     C5 7311   8.087   7.738   4.501  0.1527  0.1723  0.2045
   14MOL     C6 7312   0.006   7.855   4.556 -0.4076  0.1110 -0.1647
   14MOL     N7 7313   0.139   7.849   4.555  0.4546  0.1345 -0.0364
   14MOL     C8 7314   0.230   7.952   4.595 -0.2880 -0.2785  0.0530
   14MOL     C9 7315   0.363   7.914   4.605 -0.0149  0.4168  0.4295
   14MOL    C10 7316   0.468   8.009   4.619  0.1967  0.7047 -0.2181
   14MOL    C11 7317   0.432   8.141   4.647 -0.4274 -0.1971 -0.2171
   14MOL    N12 7318   0.527   0.091   4.683 -0.0996  0.2391 -0.3263
   14MOL    C13 7319   0.299   0.035   4.642 -0.4307  0.3339  0.5119
   14MOL    C14 7320   0.199   8.086   4.613  0.3894  0.2066 -0.0121
   14MOL    O15 7321   8.089   7.955   4.591 -0.1288 -0.0002 -0.2267
   14MOL    C16 7322   0.009   7.606   4.507 -0.1588 -0.2568 -0.9814
   14MOL    C17 7323   8.077   7.493   4.488  0.6582 -0.6345 -0.2564
   14MOL    O18 7324   7.913   7.264   4.366  0.2754  0.0617 -0.2711
   14MOL    H19 7325   7.778   7.644   4.396  0.4624 -0.8690 -0.4407
   14MOL    H20 7326   7.907   7.842   4.444 -1.6928 -0.2994  0.9348
   14MOL    H21 7327   0.180   7.764   4.519  0.7537 -0.2608  1.2057
   14MOL    H22 7328   0.392   7.811   4.591 -0.9002 -0.0843  2.2869
   14MOL    H23 7329   0.571   7.981   4.602 -0.6423 -2.1123 -0.9461
   14MOL    H24 7330   0.599   0.095   4.612  0.5168  1.2061  0.3369
   14MOL    H25 7331   0.272   0.136   4.670 -0.0115  0.1677  1.5486
   14MOL    H26 7332   0.098   8.125   4.606 -0.4093 -1.9652 -1.0407
   14MOL    H27 7333   0.110   7.596   4.543  0.7127  1.3961 -2.9279
   14MOL    H28 7334   8.126   7.397   4.487  0.3115 -0.8087 -0.5674
   14MOL    H29 7335   7.776   7.404   4.320 -0.3580 -0.4777  0.5490
   14MOL    C30 7336   0.542   0.158   4.802  0.1749 -0.1686 -0.4363
   14MOL    C31 7337   0.653   0.252   4.812  0.4341  0.4547 -0.3319
   14MOL    C32 7338   0.696   0.321   4.694 -0.7936 -0.3529 -0.3131
   14MOL    C33 7339   0.806   0.403   4.702  0.2085  0.7626  0.2423
   14MOL    C34 7340   0.856   0.442   4.827 -0.4013  0.4367  0.0661
   14MOL    C35 7341   0.961   0.554   4.836  0.2678 -0.3086 -0.6497
   14MOL    N36 7342   0.975   0.636   4.733  0.1310  0.3590  0.3871
   14MOL    C37 7343   1.073   0.733   4.703 -0.1139  0.3726  0.5196
   14MOL    C38 7344   1.031   0.856   4.646  0.2182  0.5451 -0.4915
   14MOL    C39 7345   1.124   0.957   4.625 -0.5786  0.1505  0.1547
   14MOL    C40 7346   1.255   0.927   4.653 -0.1949 -0.0312 -0.0870
   14MOL    N41 7347   1.361   1.011   4.610  0.4241  0.2223 -0.4026
   14MOL    C42 7348   1.296   0.816   4.719  0.4455 -0.0948 -0.2294
   14MOL    C43 7349   1.204   0.716   4.753  0.0335 -0.1296  0.0683
   14MOL    O44 7350   1.024   0.564   4.941  0.3163 -0.5402 -0.1252
   14MOL    C45 7351   0.811   0.379   4.944  0.2018 -0.0240 -0.3045
   14MOL    C46 7352   0.714   0.282   4.933  0.0303 -0.2446 -0.1322
   14MOL    O47 7353   0.459   0.147   4.894  0.1635  0.1619  0.1081
   14MOL    H48 7354   0.645   0.291   4.604 -3.0023 -1.1280  1.1396
   14MOL    H49 7355   0.840   0.445   4.608 -0.5684 -1.1299 -0.9209
   14MOL    H50 7356   0.909   0.626   4.658  0.2001 -1.4035  0.5552
   14MOL    H51 7357   0.927   0.870   4.618  0.2066 -0.0922 -0.7736
   14MOL    H52 7358   1.097   1.051   4.579  1.5685  1.2972  1.1842
   14MOL    H53 7359   1.444   0.993   4.664 -0.8871 -0.0308  1.5970
   14MOL    H54 7360   1.401   0.813   4.741  0.3532  0.9496  0.3622
   14MOL    H55 7361   1.239   0.627   4.803  0.9438  0.2633  0.1590
   14MOL    H56 7362   0.844   0.426   5.036 -0.8629  3.1241 -1.4722
   14MOL    H57 7363   0.678   0.246   5.028  0.3577 -0.3820 -0.0606
   14MOL    C58 7364   1.366   1.119   4.526 -0.2529 -0.0879 -0.2508
   14MOL    C59 7365   1.499   1.193   4.523 -0.1980 -0.7200 -0.0362
   14MOL    C60 7366   1.557   1.211   4.398 -0.1539  0.3404  0.0044
   14MOL    C61 7367   1.677   1.284   4.384 -0.7847  0.4464 -0.4537
   14MOL    C62 7368   1.745   1.334   4.504  0.3275 -0.1525  0.0392
   14MOL    C63 7369   1.880   1.412   4.504 -0.2937 -0.0924  0.2249
   14MOL    N64 7370   1.875   1.530   4.573 -0.3408  0.0500 -0.0518
   14MOL    C65 7371   1.979   1.613   4.633  0.0033  0.0831  0.6274
   14MOL    C66 7372   1.989   1.749   4.598  0.2117 -0.3521  0.3304
   14MOL    C67 7373   2.060   1.833   4.684 -0.4241  0.3085 -0.0568
   14MOL    C68 7374   2.120   1.786   4.797  0.4728 -0.2472 -0.9099
   14MOL    N69 7375   2.184   1.871   4.893  0.1420 -0.0683  0.5895
   14MOL    C70 7376   2.119   1.646   4.824 -0.2022 -0.7239  0.3959
   14MOL    C71 7377   2.052   1.561   4.738  0.6340  0.2213 -0.3086
   14MOL    O72 7378   1.968   1.380   4.430  0.1178  0.5421  0.3419
   14MOL    C73 7379   1.686   1.317   4.633 -0.2120 -0.4069 -0.1368
   14MOL    C74 7380   1.558   1.252   4.638 -0.0915 -0.1888 -0.2769
   14MOL    O75 7381   1.272   1.166   4.469  0.3198 -0.5591  0.1236
   14MOL    H76 7382   1.503   1.167   4.315 -1.6853  0.9259  0.6720
   14MOL    H77 7383   1.719   1.300   4.286 -2.0336 -2.6985 -1.5637
   14MOL    H78 7384   1.779   1.552   4.594  0.3041  1.7953  1.1666
   14MOL    H79 7385   1.924   1.794   4.525 -1.9761 -1.8212  1.3419
   14MOL    H80 7386   2.055   1.936   4.654 -0.4013  0.0251 -1.0339
   14MOL    H81 7387   2.206   1.825   4.980 -3.6345  1.7942  2.6444
   14MOL    H82 7388   2.153   1.613   4.921  1.0248  2.3619  1.0760
   14MOL    H83 7389   2.038   1.456   4.761  2.3013  0.2685  1.0024
   14MOL    H84 7390   1.735   1.352   4.722  2.0944 -2.9679 -0.3470
   14MOL    H85 7391   1.509   1.239   4.733 -1.3662  0.7269 -0.7929
   14MOL    C86 7392   2.180   2.003   4.913  0.0153  0.1358 -0.0316
   14MOL    C87 7393   2.196   2.057   5.056 -0.9145 -0.5089 -0.0815
   14MOL    C88 7394   2.170   2.192   5.079  0.6356  0.5453  0.1987
   14MOL    C89 7395   2.155   2.248   5.201  0.4172  0.7139 -0.4424
   14MOL    C90 7396   2.163   2.173   5.326 -0.1497  0.5869  0.0282
   14MOL    C91 7397   2.141   2.241   5.455  0.9447 -0.0783  0.1551
   14MOL    N92 7398   2.117   2.169   5.571 -0.4537  0.0200  0.2913
   14MOL    C93 7399   2.081   2.032   5.578  0.2111  0.0894  0.0691
   14MOL    C94 7400   1.982   1.977   5.495  0.0802 -0.0510 -0.3569
   14MOL    C95 7401   1.938   1.844   5.506 -0.0927  0.0357 -0.8569
   14MOL    C96 7402   2.003   1.762   5.601  0.3854  0.1927 -0.0900
   14MOL    N97 7403   1.976   1.620   5.614  0.1206 -0.7895  0.4456
   14MOL    C98 7404   2.103   1.815   5.686  0.0365 -0.3108  0.6141
   14MOL    C99 7405   2.141   1.953   5.676  0.1151 -0.6410 -0.3185
   14MOL   O100 7406   2.160   2.363   5.455  0.0618  0.2884  0.0153
   14MOL   C101 7407   2.210   2.035   5.305  0.2253  0.9145 -0.2716
   14MOL   C102 7408   2.222   1.982   5.176  0.1577 -0.8045 -0.3290
   14MOL   O103 7409   2.163   2.082   4.819  0.5316  0.5912 -0.3558
   14MOL   H104 7410   2.162   2.268   5.002 -1.0964  2.1434  1.9064
   14MOL   H105 7411   2.118   2.349   5.205  2.5205  1.5195 -0.9446
   14MOL   H106 7412   2.141   2.217   5.656 -3.9071  1.4446  0.5889
   14MOL   H107 7413   1.923   2.032   5.423 -2.3594  0.0306  1.6112
   14MOL   H108 7414   1.850   1.816   5.449 -1.2737  1.5825  0.1657
   14MOL   H109 7415   1.900   1.594   5.674 -0.8921 -2.6022 -1.5381
   14MOL   H110 7416   2.165   1.748   5.744  0.1485 -1.2649 -0.6012
   14MOL   H111 7417   2.230   1.988   5.726 -0.7692  2.1529 -0.6251
   14MOL   H112 7418   2.220   1.965   5.386  1.3026 -1.2254 -2.1834
   14MOL   H113 7419   2.247   1.877   5.166 -2.2666 -1.4136 -0.3668
   14MOL   C114 7420   2.038   1.522   5.537  0.7979 -0.3914  0.4184
   14MOL   C115 7421   1.971   1.392   5.526 -0.1028  0.3946 -0.3870
   14MOL   C116 7422   1.878   1.349   5.622  0.9586 -0.6390  0.2459
   14MOL   C117 7423   1.823   1.220   5.617 -0.0057  0.5098  0.5698
   14MOL   C118 7424   1.866   1.130   5.508  0.6628 -0.1443  1.0683
   14MOL   C119 7425   1.806   0.989   5.499 -0.5910 -0.1537  0.8531
   14MOL   N120 7426   1.843   0.912   5.394  0.2357  0.3846  0.1297
   14MOL   C121 7427   1.796   0.780   5.368  0.0106  0.4706  0.3742
   14MOL   C122 7428   1.668   0.732   5.395  0.5755  0.3999  0.1440
   14MOL   C123 7429   1.620   0.602   5.365 -0.2715 -0.1705  0.7841
   14MOL   C124 7430   1.715   0.513   5.310 -0.1980 -0.4481  0.4326
   14MOL   N125 7431   1.667   0.383   5.293  0.5401  0.1055 -0.1929
   14MOL   C126 7432   1.845   0.560   5.277 -0.1741 -0.5023 -0.3017
   14MOL   C127 7433   1.886   0.691   5.305 -0.8662  0.7038 -0.2390
   14MOL   O128 7434   1.734   0.955   5.591  0.6124  0.0685  0.7610
   14MOL   C129 7435   1.960   1.174   5.409 -0.0975 -0.0955  0.3964
   14MOL   C130 7436   2.013   1.304   5.420 -0.5801 -0.3200 -0.4615
   14MOL   O131 7437   2.142   1.546   5.473  0.5468 -0.2006 -0.0263
   14MOL   H132 7438   1.836   1.414   5.697 -0.7267 -2.1385  0.6454
   14MOL   H133 7439   1.752   1.182   5.688  1.7006 -1.2394  1.4032
   14MOL   H134 7440   1.918   0.950   5.337  0.5654 -2.4268 -1.4258
   14MOL   H135 7441   1.599   0.801   5.440  0.3811 -0.2321  0.8165
   14MOL   H136 7442   1.521   0.568   5.390 -0.4335 -0.3361 -0.0644
   14MOL   H137 7443   1.592   0.361   5.229 -0.3703  0.7999  0.6223
   14MOL   H138 7444   1.918   0.485   5.248 -0.3197 -0.2688 -1.2975
   14MOL   H139 7445   1.985   0.730   5.285 -1.5899  3.7632  1.9217
   14MOL   H140 7446   1.968   1.119   5.316  1.8331 -1.9269  1.6140
   14MOL   H141 7447   2.081   1.346   5.348  0.9037  1.1076  1.7052
   14MOL   C142 7448   1.717   0.274   5.348 -0.6368  0.1063  0.3783
   14MOL   C143 7449   1.648   0.148   5.314 -0.2689  0.4509 -0.3786
   14MOL   C144 7450   1.729   0.029   5.284 -0.0253  0.2120 -1.1620
   14MOL   C145 7451   1.662   8.055   5.248 -0.2969 -0.5197 -1.0017
   14MOL   C146 7452   1.522   8.051   5.247 -0.4294  0.8443  0.0649
   14MOL   C147 7453   1.446   7.927   5.221  0.1643  0.4822  0.0171
   14MOL   N148 7454   1.513   7.840   5.141  0.3373  0.3903 -1.0839
   14MOL   C149 7455   1.466   7.710   5.106  0.2379  0.1694  0.6861
   14MOL   C150 7456   1.335   7.678   5.076  0.8122  0.4029 -0.2796
   14MOL   C151 7457   1.304   7.551   5.024 -0.0672  0.0003 -0.3620
   14MOL   C152 7458   1.405   7.453   4.998 -0.9046 -0.2702 -0.4628
   14MOL   N153 7459   1.365   7.338   4.936 -0.2000 -0.8454 -0.1298
   14MOL   C154 7460   1.543   7.487   5.017  0.4676  0.5985 -0.0308
   14MOL   C155 7461   1.572   7.612   5.075 -0.7055  0.1136  0.0286
   14MOL   O156 7462   1.328   7.911   5.258 -0.2209 -0.0912 -0.6717
   14MOL   C157 7463   1.446   0.020   5.281  0.0494 -0.2073  0.1473
   14MOL   C158 7464   1.509   0.141   5.316  0.5613  0.1417 -0.8866
   14MOL   O159 7465   1.798   0.285   5.438 -0.0848  0.1566  0.2185
   14MOL   H160 7466   1.836   0.023   5.271  0.0562 -0.8850 -0.0231
   14MOL   H161 7467   1.726   7.972   5.221  0.2601 -0.6888  0.7608
   14MOL   H162 7468   1.610   7.855   5.117  1.0147  1.4215  2.0982
   14MOL   H163 7469   1.252   7.744   5.096  1.2471  0.8060  0.2366
   14MOL   H164 7470   1.206   7.517   4.993  0.1354 -1.1197  0.1909
   14MOL   H165 7471   1.296   7.354   4.865 -0.6325  4.2750  1.2016
   14MOL   H166 7472   1.625   7.425   4.984  0.0690  1.2378 -2.3228
   14MOL   H167 7473   1.668   7.649   5.106  0.7839 -0.1638 -4.0168
   14MOL   H168 7474   1.339   0.017   5.279  0.0947 -2.3444 -0.6527
   14MOL   H169 7475   1.449   0.230   5.326  0.1612 -0.2791  0.5581
   14MOL   C170 7476   1.410   7.214   4.963  0.0596 -1.0812  0.2702
   14MOL   C171 7477   1.513   7.191   5.070 -0.2156 -0.1851 -0.1831
   14MOL   C172 7478   1.487   7.237   5.202 -0.6474  0.9625 -0.3806
   14MOL   C173 7479   1.588   7.236   5.297  0.2472  0.5192  0.0799
   14MOL   C174 7480   1.720   7.193   5.267 -0.4603  0.0780  0.8960
   14MOL   C175 7481   1.836   7.228   5.357  0.2243 -0.4769  0.4049
   14MOL   N176 7482   1.925   7.134   5.372 -0.2576 -0.0058  0.0860
   14MOL   C177 7483   2.051   7.154   5.437 -0.0497  0.2558  0.3116
   14MOL   C178 7484   2.137   7.261   5.406 -1.0263 -0.1130  0.5442
   14MOL   C179 7485   2.261   7.276   5.475  0.2689  0.0755 -0.8533
   14MOL   C180 7486   2.293   7.178   5.581 -0.6287 -0.1927 -0.0457
   14MOL   N181 7487   2.416   7.189   5.647  0.1120  0.1849  0.5921
   14MOL   C182 7488   2.197   7.086   5.622  0.0284  0.2257  0.2804
   14MOL   C183 7489   2.082   7.065   5.540  0.1092  0.4659  0.4079
   14MOL   O184 7490   1.842   7.344   5.401  0.6551  0.0480  0.2577
   14MOL   C185 7491   1.747   7.143   5.140  0.1925 -0.1667 -0.0878
   14MOL   C186 7492   1.645   7.141   5.044 -0.3182 -0.3098  0.3970
   14MOL   O187 7493   1.367   7.119   4.903 -0.0711  0.0971 -0.0819
   14MOL   H188 7494   1.387   7.267   5.232  1.1664  3.8193  3.2790
   14MOL   H189 7495   1.571   7.286   5.392  0.8049 -2.9425  2.0975
   14MOL   H190 7496   1.896   7.038   5.359  0.1016 -0.3391  1.6047
   14MOL   H191 7497   2.119   7.330   5.324 -1.2745 -1.9541 -0.9974
   14MOL   H192 7498   2.329   7.356   5.452 -1.2711  1.4149 -0.8570
   14MOL   H193 7499   2.455   7.279   5.673  0.4187  0.5653 -1.0936
   14MOL   H194 7500   2.217   7.025   5.709 -0.0363  1.2393  1.0103
   14MOL   H195 7501   2.016   6.986   5.572  1.6808 -0.6804  0.8740
   14MOL   H196 7502   1.851   7.118   5.126  0.5728  1.7636 -0.8413
   14MOL   H197 7503   1.658   7.109   4.942 -1.0265 -3.3100  1.1960
   14MOL   C198 7504   2.488   7.090   5.699 -0.3849 -0.3172  1.0563
   14MOL   C199 7505   2.583   7.139   5.807 -0.5304  0.1027 -1.1919
   14MOL   C200 7506   2.613   7.043   5.909  0.1633  0.7714  0.0190
   14MOL   C201 7507   2.705   7.075   6.008  0.3333  0.6282  0.4544
   14MOL   C202 7508   2.770   7.199   6.013 -0.2894 -0.2472  0.1685
   14MOL   C203 7509   2.881   7.219   6.117  0.0226  0.4568  0.0923
   14MOL   N204 7510   2.972   7.314   6.090  0.5275  0.5688 -0.8530
   14MOL   C205 7511   3.065   7.360   6.184 -0.9789 -0.7622 -0.3707
   14MOL   C206 7512   3.059   7.348   6.321  0.9418 -0.1162 -1.1655
   14MOL   C207 7513   3.169   7.384   6.404 -0.1545  0.8053 -0.3837
   14MOL   C208 7514   3.283   7.444   6.350 -0.6412  0.0037  0.8164
   14MOL   N209 7515   3.394   7.481   6.435 -0.4173  0.1948  0.0730
   14MOL   C210 7516   3.287   7.466   6.210 -0.3450  0.2950 -0.1138
   14MOL   C211 7517   3.180   7.427   6.131 -0.0853 -0.4374 -0.7209
   14MOL   O212 7518   2.894   7.133   6.207 -0.3005  0.1146  0.0603
   14MOL   C213 7519   2.734   7.296   5.919  0.5853  0.0709  0.6400
   14MOL   C214 7520   2.638   7.267   5.814  0.1736  0.2162 -0.0733
   14MOL   O215 7521   2.472   6.971   5.669  0.0386 -0.4549 -0.0603
   14MOL   H216 7522   2.573   6.943   5.916 -0.7149  1.0977 -0.2767
   14MOL   H217 7523   2.735   6.988   6.064 -1.1465 -0.2439 -0.0924
   14MOL   H218 7524   2.958   7.373   6.009 -0.7135  1.4156 -0.0450
   14MOL   H219 7525   2.978   7.298   6.372  0.8522  0.0548 -1.1406
   14MOL   H220 7526   3.166   7.362   6.509  0.7114  2.8644  0.0847
   14MOL   H221 7527   3.366   7.494   6.531 -1.3889  0.2928 -0.2112
   14MOL   H222 7528   3.373   7.514   6.167 -0.7911  1.3617  0.1571
   14MOL   H223 7529   3.197   7.447   6.026  0.4677  0.3932 -0.4782
   14MOL   H224 7530   2.787   7.390   5.915 -1.0720  1.0171  0.2296
   14MOL   H225 7531   2.620   7.351   5.748  1.9567  0.9737  0.3548
   14MOL   C226 7532   3.519   7.513   6.406  0.6684 -0.3093  0.4526
   14MOL   C227 7533   3.596   7.572   6.519 -0.5013 -0.4066  0.0853
   14MOL   C228 7534   3.738   7.538   6.531  0.1456  0.4841 -0.0102
   14MOL   C229 7535   3.802   7.560   6.652  0.1946  0.2695  0.3559
   14MOL   C230 7536   3.733   7.630   6.751  1.2860  0.8433  0.3124
   14MOL   C231 7537   3.805   7.653   6.884  0.5478 -0.6878  0.3287
   14MOL   N232 7538   3.801   7.781   6.914 -0.5509  0.1381  0.7084
   14MOL   C233 7539   3.866   7.847   7.016 -0.3215  0.5208 -0.0993
   14MOL   C234 7540   3.962   7.782   7.101  0.1291 -0.2433 -0.4633
   14MOL   C235 7541   4.039   7.862   7.189 -0.2330  0.0435  0.1970
   14MOL   C236 7542   4.008   8.000   7.195 -0.5288 -0.2795 -0.5317
   14MOL   N237 7543   4.089   8.087   7.265 -0.0985  0.0496  0.0885
   14MOL   C238 7544   3.913   8.059   7.115 -0.3951  0.1381 -0.1083
   14MOL   C239 7545   3.844   7.983   7.022 -0.0570 -0.8481  0.3437
   14MOL   O240 7546   3.870   7.562   6.931  0.0164  0.1791 -0.4217
   14MOL   C241 7547   3.598   7.669   6.738 -0.2854 -0.1335 -0.0557
   14MOL   C242 7548   3.525   7.640   6.624  0.2850  0.0954 -0.6996
   14MOL   O243 7549   3.572   7.495   6.295  0.0099 -0.1578 -0.4995
   14MOL   H244 7550   3.786   7.476   6.457 -0.2565  1.8298 -1.4065
   14MOL   H245 7551   3.901   7.518   6.665  0.6408  0.9539 -0.8420
   14MOL   H246 7552   3.754   7.841   6.847 -0.0769 -2.1752 -1.8005
   14MOL   H247 7553   3.984   7.677   7.090  0.4146 -0.0603 -1.7875
   14MOL   H248 7554   4.105   7.807   7.254  1.2548  1.7585  0.1602
   14MOL   H249 7555   4.036   0.025   7.282 -0.9772 -0.3882 -0.4478
   14MOL   H250 7556   3.896   0.020   7.113  1.7043  0.5358  1.2522
   14MOL   H251 7557   3.765   8.025   6.962  1.1838  2.5202  0.9982
   14MOL   H252 7558   3.554   7.721   6.822  1.3887 -0.1336  0.8437
   14MOL   H253 7559   3.422   7.670   6.612 -0.0510 -0.4675  0.6874
   14MOL   C254 7560   4.219   8.084   7.303 -0.4614  0.4407 -0.3443
   14MOL   C255 7561   4.262   0.063   7.385  0.0135  0.1032  0.1366
   14MOL   C256 7562   4.373   0.047   7.462 -0.2796 -0.1477 -0.4372
   14MOL   C257 7563   4.403   0.144   7.561 -0.3363 -1.0571  0.2395
   14MOL   C258 7564   4.327   0.269   7.565 -0.1406 -0.4606 -0.1484
   14MOL   C259 7565   4.363   0.375   7.663  0.0782  0.2969  0.0988
   14MOL   N260 7566   4.489   0.360   7.715 -0.6341 -0.7505  0.0272
   14MOL   C261 7567   4.545   0.429   7.821 -0.3637  0.6341  0.8939
   14MOL   C262 7568   4.473   0.507   7.914  0.0235  0.1299  0.3654
   14MOL   C263 7569   4.537   0.558   8.024  0.0556 -0.5269  0.3511
   14MOL   C264 7570   4.672   0.537   8.049  0.6170  0.0137  0.4845
   14MOL   N265 7571   4.733   0.580   0.020  0.0268  0.0571 -0.3758
   14MOL   C266 7572   4.744   0.461   7.960 -0.0446  0.0704 -0.4991
   14MOL   C267 7573   4.689   0.411   7.843 -0.0196 -0.2046 -0.0049
   14MOL   O268 7574   4.284   0.465   7.682  0.5634 -0.6233  0.2919
   14MOL   C269 7575   4.216   0.288   7.479 -0.3577 -0.0001 -0.7296
   14MOL   C270 7576   4.184   0.181   7.391  0.3476  0.3024 -0.2482
   14MOL   O271 7577   4.291   7.993   7.274  0.6794  0.1867 -0.2658
   14MOL   H272 7578   4.439   8.108   7.463  1.9889  1.5519  1.8419
   14MOL   H273 7579   4.477   0.120   7.636 -0.2273  0.6136  0.6787
   14MOL   H274 7580   4.541   0.289   7.665 -0.3452 -0.9499  0.6201
   14MOL   H275 7581   4.365   0.513   7.904 -0.1603 -1.1374  1.5142
   14MOL   H276 7582   4.487   0.606   8.106 -2.4418  2.0803 -2.5575
   14MOL   H277 7583   4.762   0.514   0.091 -0.5807  2.1840  1.9120
   14MOL   H278 7584   4.849   0.456   7.985  0.2810  0.7241 -1.7193
   14MOL   H279 7585   4.744   0.348   7.775 -0.0902 -0.7261  0.4173
   14MOL   H280 7586   4.157   0.378   7.480  0.7572  0.7899  2.2996
   14MOL   H281 7587   4.091   0.188   7.337  1.0723 -1.4089 -1.7439
   14MOL   C282 7588   4.748   0.707   0.050 -0.2254 -0.5846  0.5091
   14MOL   C283 7589   4.813   0.728   0.189 -0.0367 -0.2246  0.3809
   14MOL   C284 7590   4.747   0.682   0.301 -0.3756  0.0272  0.7838
   14MOL   C285 7591   4.812   0.663   0.421 -0.0411 -0.4024  0.1295
   14MOL   C286 7592   4.948   0.699   0.431 -0.7416  0.3741  0.9162
   14MOL   C287 7593   5.036   0.650   0.546  0.2366  0.5048 -0.1194
   14MOL   N288 7594   5.038   0.515   0.564  0.6803  0.4588 -0.0400
   14MOL   C289 7595   4.997   0.417   0.468 -0.0155  0.2457  0.3006
   14MOL   C290 7596   5.046   0.404   0.332 -0.2138  0.2430  0.0224
   14MOL   C291 7597   4.981   0.323   0.242  0.5703  0.0776  0.2378
   14MOL   C292 7598   4.872   0.246   0.280  0.7386 -0.6116  0.4946
   14MOL   N293 7599   4.801   0.169   0.185  0.1683 -0.1959 -0.7173
   14MOL   C294 7600   4.833   0.248   0.419 -0.7087  0.0567 -1.0920
   14MOL   C295 7601   4.906   0.323   0.511 -0.1660 -0.1223  0.6671
   14MOL   O296 7602   5.103   0.731   0.608  0.7190 -0.5007  0.5135
   14MOL   C297 7603   5.014   0.769   0.328  0.0844  0.3600 -0.0624
   14MOL   C298 7604   4.948   0.779   0.204 -0.0019 -0.4346  0.1112
   14MOL   O299 7605   4.722   0.806   8.133 -0.3304  0.5026  0.1895
   14MOL   H300 7606   4.650   0.638   0.281 -0.3351  0.1168  0.3744
   14MOL   H301 7607   4.760   0.606   0.497 -0.1254  0.6463  0.8618
   14MOL   H302 7608   5.087   0.477   0.643 -1.5762 -0.2153  1.0706
   14MOL   H303 7609   5.115   0.478   0.294  0.4228 -0.5484 -0.3742
   14MOL   H304 7610   5.004   0.316   0.137  2.2976  1.2522  0.5113
   14MOL   H305 7611   4.701   0.165   0.194  0.3208 -1.4181  0.5285
   14MOL   H306 7612   4.742   0.202   0.453 -0.8917  0.2586 -1.3031
   14MOL   H307 7613   4.866   0.329   0.611 -0.6646  1.5932  0.3772
   14MOL   H308 7614   5.116   0.802   0.345 -0.4611  1.1093  1.9353
   14MOL   H309 7615   5.002   0.818   0.118  1.4376  0.4786  1.3981
   14MOL   C310 7616   4.848   0.075   0.098 -0.1226  0.1571  0.4026
   14MOL   C311 7617   4.749   0.017   8.144  0.6078 -0.3370 -0.2551
   14MOL   C312 7618   4.792   8.081   8.037  0.2167  0.4222 -0.1940
   14MOL   C313 7619   4.696   8.023   7.947 -0.2686  0.3566 -0.9173
   14MOL   C314 7620   4.556   8.041   7.969  0.7339  0.1191 -0.3273
   14MOL   C315 7621   4.451   8.001   7.864 -0.8032  0.6548  0.2639
   14MOL   N316 7622   4.481   7.885   7.796 -0.9510  1.0071  0.1661
   14MOL   C317 7623   4.390   7.805   7.721 -0.1154 -0.4376 -0.1345
   14MOL   C318 7624   4.295   7.866   7.635 -0.2100 -0.4871 -0.0112
   14MOL   C319 7625   4.205   7.792   7.561  0.1662 -0.2616  0.1075
   14MOL   C320 7626   4.203   7.649   7.568 -0.5775  0.1572  0.1274
   14MOL   N321 7627   4.108   7.565   7.496 -0.2715  0.2917 -0.0673
   14MOL   C322 7628   4.290   7.588   7.667 -0.6492 -0.3489 -0.0827
   14MOL   C323 7629   4.387   7.666   7.741  0.3737  0.1245 -0.3832
   14MOL   O324 7630   4.343   8.058   7.856  0.1180 -0.1051 -0.2180
   14MOL   C325 7631   4.515   8.125   8.071 -0.7487 -0.2874 -0.3957
   14MOL   C326 7632   4.611   0.032   0.016  0.2467  0.2245  0.6285
   14MOL   O327 7633   4.968   0.055   0.086 -0.0311  0.3198  0.5566
   14MOL   H328 7634   4.898   8.072   8.017 -0.1317  1.0667 -2.4972
   14MOL   H329 7635   4.727   7.958   7.866 -3.9323 -4.0609  1.0360
   14MOL   H330 7636   4.573   7.847   7.813 -1.0069  0.5303 -0.5956
   14MOL   H331 7637   4.298   7.972   7.616 -0.2837 -0.4866 -0.0161
   14MOL   H332 7638   4.142   7.848   7.494 -0.1077  0.6251  1.1061
   14MOL   H333 7639   4.053   7.609   7.424  3.5648  1.1429 -2.6285
   14MOL   H334 7640   4.276   7.483   7.688 -1.5914  0.3669  3.1533
   14MOL   H335 7641   4.450   7.620   7.816 -0.4100  1.8951  1.4120
   14MOL   H336 7642   4.410   0.002   8.083 -0.3523  0.2676  2.2888
   14MOL   H337 7643   4.576   0.102   0.090 -1.4734 -0.0549  0.1212
   14MOL   C338 7644   4.083   7.428   7.497 -0.3057 -0.5241  0.1646
   14MOL   C339 7645   3.997   7.377   7.389 -0.8889  0.0863 -0.1026
   14MOL   C340 7646   3.863   7.365   7.425 -0.5801  1.2719 -0.2519
   14MOL   C341 7647   3.769   7.322   7.323  0.2383  0.5778 -1.0674
   14MOL   C342 7648   3.813   7.291   7.198 -0.9338  0.4214 -0.6270
   14MOL   C343 7649   3.708   7.255   7.094  0.1116 -0.2004  1.0960
   14MOL   N344 7650   3.746   7.174   6.999  0.0084 -0.6075 -0.2933
   14MOL   C345 7651   3.681   7.156   6.875  0.3205  0.9154  0.2550
   14MOL   C346 7652   3.716   7.039   6.795  0.1299  0.2995  0.1845
   14MOL   C347 7653   3.676   7.034   6.658  0.2062  0.3470  0.3371
   14MOL   C348 7654   3.592   7.128   6.601  0.1484  0.4899 -0.2452
   14MOL   N349 7655   3.533   7.102   6.477 -0.4360  0.4896  0.1288
   14MOL   C350 7656   3.555   7.243   6.676 -0.0472  0.1683  0.4733
   14MOL   C351 7657   3.605   7.255   6.810  0.2012  0.1953  0.2675
   14MOL   O352 7658   3.592   7.300   7.108 -0.0749 -0.4559  0.0116
   14MOL   C353 7659   3.949   7.305   7.164  0.2375  0.1561 -0.3519
   14MOL   C354 7660   4.042   7.348   7.260  0.0453 -0.6365  0.2180
   14MOL   O355 7661   4.113   7.345   7.580  0.0822 -0.0207 -0.2807
   14MOL   H356 7662   3.822   7.400   7.518  1.1443  1.2293  0.5415
   14MOL   H357 7663   3.663   7.324   7.345 -0.2162 -0.0113 -3.0931
   14MOL   H358 7664   3.834   7.130   7.020  0.4394 -0.8988 -2.6078
   14MOL   H359 7665   3.766   6.959   6.847 -0.8685 -0.9167 -0.7342
   14MOL   H360 7666   3.714   6.948   6.605  0.3726  0.9749 -0.5689
   14MOL   H361 7667   3.590   7.137   6.401  2.1934  0.0861  1.8462
   14MOL   H362 7668   3.491   7.318   6.632 -0.4388 -0.7444 -0.5310
   14MOL   H363 7669   3.569   7.343   6.862 -2.5566 -0.1287 -0.9867
   14MOL   H364 7670   3.972   7.304   7.059 -1.1322  1.1399 -0.6697
   14MOL   H365 7671   4.141   7.368   7.222 -0.8819  0.4383 -1.7359
   14MOL   C366 7672   3.413   7.054   6.454 -0.9112  0.5990  0.3487
   14MOL   C367 7673   3.359   7.044   6.316 -0.0769 -0.4326  0.3564
   14MOL   C368 7674   3.434   7.091   6.200  0.2623  0.0145 -0.4957
   14MOL   C369 7675   3.368   7.081   6.073  0.4071 -0.2732  0.3478
   14MOL   C370 7676   3.235   7.041   6.059 -0.4222 -0.2153  0.1996
   14MOL   C371 7677   3.168   7.069   5.928 -0.0471  0.0026 -0.1149
   14MOL   N372 7678   3.069   6.992   5.897  0.9080  0.3201  0.3602
   14MOL   C373 7679   2.978   7.010   5.789 -0.2878  0.2778  0.6729
   14MOL   C374 7680   2.950   7.133   5.720 -0.2037  0.2751 -0.4176
   14MOL   C375 7681   2.864   7.125   5.611  0.1354  0.1540  0.2623
   14MOL   C376 7682   2.804   7.007   5.560 -0.1517  0.5676 -0.3399
   14MOL   N377 7683   2.710   7.012   5.457  0.0778 -0.5030 -0.6084
   14MOL   C378 7684   2.828   6.888   5.636  0.2641  0.0572 -0.5117
   14MOL   C379 7685   2.921   6.890   5.748  0.7053  0.2331 -0.1651
   14MOL   O380 7686   3.213   7.156   5.851 -0.6344 -0.0540  0.6704
   14MOL   C381 7687   3.174   6.988   6.172 -0.0688  0.1794  0.7821
   14MOL   C382 7688   3.233   6.989   6.299 -0.1854  0.2848  0.4470
   14MOL   O383 7689   3.347   7.009   6.549 -0.0216 -0.6223  0.2925
   14MOL   H384 7690   3.533   7.132   6.213  0.8668 -1.6259  0.1975
   14MOL   H385 7691   3.417   7.127   5.988  1.4624 -0.5311  0.8047
   14MOL   H386 7692   3.046   6.921   5.964 -4.0782  0.5178 -0.9641
   14MOL   H387 7693   2.996   7.225   5.753  0.3648  0.2825 -1.2043
   14MOL   H388 7694   2.828   7.215   5.564  0.6827  0.2191 -0.0272
   14MOL   H389 7695   2.650   7.091   5.444 -1.2683 -1.2898  0.6800
   14MOL   H390 7696   2.767   6.800   5.622 -0.8958  0.6509  0.6619
   14MOL   H391 7697   2.937   6.796   5.800 -1.2635  0.0039  0.0454
   14MOL   H392 7698   3.070   6.957   6.172  0.5756 -2.1259  1.8969
   14MOL   H393 7699   3.179   6.958   6.388  1.7402  0.5267  1.7414
   14MOL   C394 7700   2.669   6.909   5.383  0.1688  0.5488 -0.1423
   14MOL   C395 7701   2.563   6.942   5.276 -0.2560  0.2171  0.3594
   14MOL   C396 7702   2.457   7.027   5.311 -0.5144 -0.0210 -0.6534
   14MOL   C397 7703   2.349   7.045   5.216 -0.1399  0.2247  0.0188
   14MOL   C398 7704   2.351   6.984   5.089  0.3067 -0.4803 -0.0449
   14MOL   C399 7705   2.236   7.007   4.988 -0.0033 -0.1878  0.0158
   14MOL   N400 7706   2.165   7.122   5.011  0.1892 -0.4004 -0.0802
   14MOL   C401 7707   2.059   7.182   4.937 -0.3999  0.0559  0.4667
   14MOL   C402 7708   1.999   7.293   4.999  0.5233  0.2407  0.2661
   14MOL   C403 7709   1.898   7.368   4.928 -0.0834  0.1317 -0.1323
   14MOL   C404 7710   1.866   7.337   4.794  0.1172 -0.0486 -0.2316
   14MOL   N405 7711   1.765   7.410   4.721 -0.0619 -0.3455 -0.0023
   14MOL   C406 7712   1.925   7.224   4.733 -0.2067  0.2318 -0.1891
   14MOL   C407 7713   2.018   7.145   4.804  0.0878  0.2134 -0.3075
   14MOL   O408 7714   2.219   6.933   4.886 -0.2131 -0.0972 -0.4729
   14MOL   C409 7715   2.465   6.909   5.054  0.1051  0.0199 -0.0824
   14MOL   C410 7716   2.568   6.884   5.147  0.1379  0.5973 -0.1761
   14MOL   O411 7717   2.728   6.796   5.378  0.4051  0.6167 -0.1573
   14MOL   H412 7718   2.456   7.077   5.406  4.7024 -0.7595 -0.0959
   14MOL   H413 7719   2.273   7.112   5.252  2.1425  2.3303  1.0725
   14MOL   H414 7720   2.202   7.163   5.095 -0.4326 -1.5965  0.7927
   14MOL   H415 7721   2.027   7.325   5.098 -2.0389  0.3544  0.9820
   14MOL   H416 7722   1.847   7.451   4.975 -0.9520 -1.5318  1.9542
   14MOL   H417 7723   1.698   7.361   4.664 -1.1501  0.6159  0.4459
   14MOL   H418 7724   1.891   7.183   4.639  1.4431 -0.2056 -0.6049
   14MOL   H419 7725   2.051   7.049   4.767 -3.1705 -1.5696  1.2093
   14MOL   H420 7726   2.474   6.862   4.957 -1.4020 -0.9321  0.2319
   14MOL   H421 7727   2.648   6.814   5.129  0.7258  0.5032  2.4905
   14MOL   C422 7728   1.750   7.543   4.729  0.9284  0.3266 -0.4172
   14MOL   C423 7729   1.869   7.630   4.767  0.0564  1.0006 -0.2321
   14MOL   C424 7730   1.857   7.725   4.874  1.4708 -0.4752  0.5057
   14MOL   C425 7731   1.959   7.813   4.911  0.4401  0.0209  0.0116
   14MOL   C426 7732   2.079   7.804   4.838 -0.1341 -0.1258 -0.8442
   14MOL   C427 7733   2.195   7.898   4.868 -0.5378 -0.4065 -0.3026
   14MOL   N428 7734   2.179   8.015   4.927 -0.2542  0.1489  0.1048
   14MOL   C429 7735   2.282   8.086   4.990 -0.8482  0.0472  0.6230
   14MOL   C430 7736   2.373   8.023   5.081  0.1395 -0.5271 -0.0522
   14MOL   C431 7737   2.468   8.096   5.152 -0.9036 -0.3442 -0.9303
   14MOL   C432 7738   2.469   0.092   5.131 -0.2216 -0.4753 -0.6804
   14MOL   N433 7739   2.543   0.172   5.226 -0.1559 -0.0357  0.5137
   14MOL   C434 7740   2.374   0.154   5.047  0.3819 -0.4276 -0.0790
   14MOL   C435 7741   2.274   0.081   4.972 -0.1190  0.2513 -0.8556
   14MOL   O436 7742   2.308   7.863   4.829 -0.0318 -0.1223  0.1735
   14MOL   C437 7743   2.096   7.711   4.733  0.1753 -1.0127 -0.3519
   14MOL   C438 7744   1.997   7.617   4.704  0.1376 -0.2137 -0.5454
   14MOL   O439 7745   1.644   7.601   4.703  0.1088 -0.4203 -0.1901
   14MOL   H440 7746   1.761   7.733   4.923  1.4800  1.1124  0.2722
   14MOL   H441 7747   1.939   7.892   4.982 -1.2592 -0.9337  0.6117
   14MOL   H442 7748   2.088   8.058   4.920 -0.8442 -1.2835 -1.4632
   14MOL   H443 7749   2.370   7.915   5.093  0.4293 -0.5731 -0.4209
   14MOL   H444 7750   2.537   8.052   5.223 -0.4805  0.2822 -0.9585
   14MOL   H445 7751   2.496   0.255   5.259 -0.9888 -0.7716  1.2011
   14MOL   H446 7752   2.366   0.261   5.044 -2.5356 -0.6465 -1.1651
   14MOL   H447 7753   2.219   0.133   4.895 -0.5632 -2.0411 -2.1655
   14MOL   H448 7754   2.186   7.710   4.673 -0.1756  0.9277 -0.9414
   14MOL   H449 7755   1.999   7.549   4.619  0.8214 -0.4880 -0.3120
   14MOL   C450 7756   2.669   0.159   5.277 -0.4660 -0.5634 -0.4144
   14MOL   C451 7757   2.725   0.267   5.365 -0.4585 -0.3574 -0.3473
   14MOL   C452 7758   2.852   0.250   5.421 -0.1906  0.0295  0.5641
   14MOL   C453 7759   2.910   0.348   5.509 -0.7939  0.4156 -1.3096
   14MOL   C454 7760   2.827   0.464   5.542  0.3001  0.0945 -0.2350
   14MOL   C455 7761   2.886   0.568   5.636 -0.2918 -0.7492 -0.0138
   14MOL   N456 7762   2.947   0.511   5.744 -0.2117 -0.1540  0.2308
   14MOL   C457 7763   3.007   0.570   5.858 -0.0308  0.0635  0.3716
   14MOL   C458 7764   2.959   0.693   5.912  0.1826  0.8129 -0.4143
   14MOL   C459 7765   3.012   0.753   6.025  0.2690 -0.2252  0.9366
   14MOL   C460 7766   3.116   0.684   6.099  0.4911 -0.7367 -0.0963
   14MOL   N461 7767   3.166   0.727   6.222  0.8107  0.2165 -0.0915
   14MOL   C462 7768   3.161   0.557   6.052 -0.1629 -0.1105  0.1193
   14MOL   C463 7769   3.103   0.504   5.931  0.2883 -0.4195 -0.1902
   14MOL   O464 7770   2.865   0.691   5.616  0.6835 -0.3985 -0.0509
   14MOL   C465 7771   2.702   0.483   5.477 -0.4459 -0.0170 -0.3322
   14MOL   C466 7772   2.652   0.389   5.386  0.0704  0.3260 -0.7944
   14MOL   O467 7773   2.751   0.069   5.245 -0.6306  0.2483 -0.1350
   14MOL   H468 7774   2.914   0.164   5.399  2.7598  2.0369  0.6466
   14MOL   H469 7775   3.007   0.326   5.552 -1.1735 -1.9288 -1.6071
   14MOL   H470 7776   2.944   0.411   5.731  0.0163 -0.1987  0.5321
   14MOL   H471 7777   2.877   0.740   5.859 -0.6114 -0.7949 -0.6381
   14MOL   H472 7778   2.972   0.845   6.063  0.3695  0.2591 -0.1185
   14MOL   H473 7779   3.265   0.712   6.236  0.8803 -0.5157 -1.2827
   14MOL   H474 7780   3.232   0.490   6.098  0.1086  0.7102  0.8906
   14MOL   H475 7781   3.138   0.410   5.890  0.8641 -0.1578 -0.3039
   14MOL   H476 7782   2.649   0.577   5.487 -1.7490 -0.5571 -2.0310
   14MOL   H477 7783   2.562   0.420   5.335 -0.0843 -0.2917 -0.8897
   14MOL   C478 7784   3.097   0.785   6.326  0.0370 -0.0269  0.2216
   14MOL   C479 7785   2.946   0.781   6.325  0.2317  0.1024  1.1096
   14MOL   C480 7786   2.879   0.905   6.328  0.7745  0.4525 -0.7037
   14MOL   C481 7787   2.739   0.908   6.314 -0.0528 -0.3463 -1.1106
   14MOL   C482 7788   2.665   0.785   6.309  0.5175 -0.5936 -0.1123
   14MOL   C483 7789   2.515   0.781   6.325 -0.7373  0.0766 -0.6051
   14MOL   N484 7790   2.453   0.683   6.255  0.3377  0.4821 -0.2557
   14MOL   C485 7791   2.316   0.640   6.256 -0.2298 -0.2823  0.4826
   14MOL   C486 7792   2.200   0.718   6.298  0.3168  0.0875 -1.1998
   14MOL   C487 7793   2.076   0.650   6.317 -0.4506 -0.2872  0.5413
   14MOL   C488 7794   2.049   0.520   6.271 -0.5589  0.3675  0.0248
   14MOL   N489 7795   1.928   0.450   6.288  0.1187 -0.0340  0.5824
   14MOL   C490 7796   2.160   0.447   6.219 -0.2403  0.7775 -0.7322
   14MOL   C491 7797   2.293   0.508   6.212 -0.0270 -0.0724 -0.4747
   14MOL   O492 7798   2.462   0.852   6.412 -0.6221 -0.7820 -0.3767
   14MOL   C493 7799   2.735   0.668   6.302 -0.0432  0.4298  0.2887
   14MOL   C494 7800   2.874   0.664   6.320  0.4470  0.3100 -0.9994
   14MOL   O495 7801   3.154   0.828   6.431 -0.3709 -0.2044  0.3634
   14MOL   H496 7802   2.933   0.998   6.341  1.0452 -0.1550  3.3382
   14MOL   H497 7803   2.696   1.007   6.310  0.8024  0.2388  2.3837
   14MOL   H498 7804   2.508   0.643   6.181  1.3834 -2.1631  1.8918
   14MOL   H499 7805   2.218   0.815   6.342  0.8362 -0.0177 -1.1841
   14MOL   H500 7806   1.989   0.709   6.343  1.1386  2.3471  0.1339
   14MOL   H501 7807   1.929   0.369   6.227 -0.5657  1.1538 -1.0701
   14MOL   H502 7808   2.139   0.342   6.210 -0.7970  0.6985  1.2227
   14MOL   H503 7809   2.377   0.445   6.185  0.4825  0.4557 -0.1252
   14MOL   H504 7810   2.681   0.574   6.296  0.2132  0.3126 -0.2309
   14MOL   H505 7811   2.924   0.569   6.307  0.2225  0.2601 -1.4888
   14MOL   C506 7812   1.834   0.468   6.382 -0.0703  0.5985  0.2221
   14MOL   C507 7813   1.733   0.360   6.384  0.5729  0.3745 -0.2525
   14MOL   C508 7814   1.753   0.229   6.330 -0.7122 -0.2730  0.9006
   14MOL   C509 7815   1.645   0.138   6.327 -0.1601 -0.0284  0.4518
   14MOL   C510 7816   1.518   0.166   6.374 -0.3254  0.0424 -0.0749
   14MOL   C511 7817   1.405   0.092   6.327  0.1319 -0.0160  0.5737
   14MOL   N512 7818   1.336   0.029   6.426 -0.1300  0.0135 -0.1398
   14MOL   C513 7819   1.205   8.129   6.437  0.0831  0.1391  0.5324
   14MOL   C514 7820   1.186   8.030   6.535  0.2163  0.2892  0.0672
   14MOL   C515 7821   1.055   7.996   6.572  0.2153  0.4073 -0.2816
   14MOL   C516 7822   0.941   8.058   6.514 -0.3242 -0.2600 -0.1665
   14MOL   N517 7823   0.810   8.018   6.547 -0.4440 -0.4381 -0.4541
   14MOL   C518 7824   0.964   8.142   6.398  0.2118 -0.0013 -0.5109
   14MOL   C519 7825   1.099   0.033   6.365  0.2977 -0.3741 -0.2873
   14MOL   O520 7826   1.383   0.071   6.207  0.5482 -0.5025  0.0658
   14MOL   C521 7827   1.496   0.292   6.437  0.2800  0.2385  0.2492
   14MOL   C522 7828   1.605   0.388   6.436 -0.1045 -0.2852 -0.3250
   14MOL   O523 7829   1.817   0.569   6.456  0.0624 -0.6089 -0.7588
   14MOL   H524 7830   1.850   0.210   6.288 -0.7965  1.6636 -0.2526
   14MOL   H525 7831   1.651   0.045   6.271 -3.3377 -1.5696  2.5339
   14MOL   H526 7832   1.381   0.053   6.513 -0.1662 -2.3663  0.5752
   14MOL   H527 7833   1.265   7.985   6.592 -0.6338 -0.3828  0.7338
   14MOL   H528 7834   1.023   7.926   6.647  0.9961 -0.6933 -0.9611
   14MOL   H529 7835   0.800   7.924   6.583 -1.3186 -0.0257  0.4069
   14MOL   H530 7836   0.897   0.055   6.338  1.4747  0.9788 -0.9827
   14MOL   H531 7837   1.119   0.085   6.272 -1.3067 -0.5417 -0.7527
   14MOL   H532 7838   1.399   0.308   6.480  0.2618 -1.7392  1.0135
   14MOL   H533 7839   1.585   0.484   6.481  1.4995  0.0506 -0.3155
   14MOL   C534 7840   0.696   8.095   6.549 -0.4109  0.3027 -0.1235
   14MOL   C535 7841   0.568   8.014   6.571  0.1944  0.8166  0.4218
   14MOL   C536 7842   0.451   8.080   6.620  0.6362 -0.1374  0.5850
   14MOL   C537 7843   0.328   8.012   6.616  0.1584  0.4689 -0.0349
   14MOL   C538 7844   0.320   7.879   6.572  0.2124 -0.3460 -0.2727
   14MOL   C539 7845   0.194   7.805   6.579  0.4022  0.5124 -0.0773
   14MOL   N540 7846   0.090   7.890   6.581  0.7627 -0.1873  0.4505
   14MOL   C541 7847   8.103   7.868   6.631  0.3390  0.4065  0.7391
   14MOL   C542 7848   8.044   7.736   6.627 -0.0168  0.3328  0.2823
   14MOL   C543 7849   7.920   7.716   6.691  0.0302  0.9272  0.2348
   14MOL   C544 7850   7.855   7.829   6.748  0.0757 -0.4829  0.4028
   14MOL   N545 7851   7.745   7.810   6.825  0.3220 -0.0191  0.1014
   14MOL   C546 7852   7.908   7.959   6.734 -0.2651  0.1390  0.0220
   14MOL   C547 7853   8.033   7.980   6.677  0.0058 -0.7067  0.1813
   14MOL   O548 7854   0.185   7.679   6.586 -0.4389 -0.1568 -0.5650
   14MOL   C549 7855   0.437   7.814   6.525  0.1139 -0.4320 -0.3405
   14MOL   C550 7856   0.560   7.883   6.525 -0.0281 -0.7111  0.1793
   14MOL   O551 7857   0.697   0.068   6.542  0.5178 -0.5816  0.1350
   14MOL   H552 7858   0.449   0.042   6.628 -1.0564 -0.0622 -0.6427
   14MOL   H553 7859   0.242   8.050   6.669  1.9049  0.9505  2.5998
   14MOL   H554 7860   0.115   7.988   6.577 -2.1837  0.6809  1.9613
   14MOL   H555 7861   8.085   7.645   6.587 -2.0603 -0.7250  0.5184
   14MOL   H556 7862   7.880   7.616   6.694 -0.8227  1.2957  1.3400
   14MOL   H557 7863   7.725   7.877   6.897  0.3172 -0.2973  0.3607
   14MOL   H558 7864   7.856   8.047   6.770  0.4383  0.2090  0.8655
   14MOL   H559 7865   8.082   8.075   6.684 -1.3843 -0.0785  1.9683
   14MOL   H560 7866   0.433   7.714   6.486 -0.7006 -0.8101  0.6899
   14MOL   H561 7867   0.646   7.834   6.483 -1.2172 -2.0629 -0.6876
   14MOL   H562 7868   7.723   7.715   6.853 -2.7858  0.4292 -0.7010
   15MOL     C1 7869   6.360   6.044   7.367  0.2469 -0.3283 -0.8367
   15MOL     C2 7870   6.273   5.944   7.421  0.0657  0.8179 -0.0603
   15MOL     C3 7871   6.226   5.834   7.342 -0.8900 -0.1046  0.4816
   15MOL     C4 7872   6.137   5.738   7.393  0.1802 -0.6673 -0.0478
   15MOL     C5 7873   6.089   5.750   7.526 -0.6569  0.1120 -0.1641
   15MOL     C6 7874   5.994   5.651   7.586 -0.6892  0.8576  0.2023
   15MOL     N7 7875   5.932   5.568   7.502 -0.7316  0.3573  0.2100
   15MOL     C8 7876   5.836   5.469   7.528 -0.1805 -0.4719  0.0603
   15MOL     C9 7877   5.819   5.410   7.656  0.1143 -0.2367  0.2012
   15MOL    C10 7878   5.729   5.307   7.683 -0.6694  0.5480 -0.1953
   15MOL    C11 7879   5.631   5.280   7.583 -0.1768  0.1670 -0.3367
   15MOL    N12 7880   5.519   5.198   7.597  0.0683 -0.5762 -0.7835
   15MOL    C13 7881   5.651   5.333   7.452 -0.9616 -0.4511 -0.1443
   15MOL    C14 7882   5.743   5.438   7.430 -0.5781 -0.0891 -0.1422
   15MOL    O15 7883   5.993   5.648   7.711 -0.4274 -0.7361 -0.0715
   15MOL    C16 7884   6.133   5.854   7.605  0.3467  0.2105 -0.4959
   15MOL    C17 7885   6.227   5.950   7.554 -0.2465 -0.7199 -1.1063
   15MOL    O18 7886   6.390   6.155   7.415  0.0108  1.0904  0.1052
   15MOL    H19 7887   6.257   5.821   7.239 -2.2469  1.1626 -0.0872
   15MOL    H20 7888   6.117   5.661   7.320 -0.3798 -0.7165  0.1547
   15MOL    H21 7889   5.963   5.576   7.406 -1.3987  0.2704 -0.0142
   15MOL    H22 7890   5.884   5.438   7.738 -0.4723 -0.4761  0.7478
   15MOL    H23 7891   5.720   5.252   7.775  0.0254  0.3780 -0.2259
   15MOL    H24 7892   5.482   5.143   7.521 -0.1109 -0.5898 -0.6848
   15MOL    H25 7893   5.579   5.309   7.375 -1.3668  0.6435 -0.1250
   15MOL    H26 7894   5.742   5.490   7.335 -0.4950  0.1262 -0.0268
   15MOL    H27 7895   6.109   5.857   7.711  1.9955 -1.2596 -0.0576
   15MOL    H28 7896   6.258   6.022   7.628 -1.2803  0.8042 -2.1022
   15MOL    H29 7897   6.394   6.035   7.264  0.5906  0.4452 -0.7961
   15MOL    C30 7898   5.438   5.198   7.701  0.3325  0.3048 -0.5328
   15MOL    C31 7899   5.324   5.103   7.681 -0.5222 -0.3885 -0.1341
   15MOL    C32 7900   5.280   5.014   7.782 -0.2988 -0.1266  0.0185
   15MOL    C33 7901   5.168   4.932   7.764 -0.6907 -0.0449 -0.4408
   15MOL    C34 7902   5.096   4.945   7.642 -0.1796  0.1648  0.5127
   15MOL    C35 7903   5.001   4.843   7.597 -0.2619 -0.6894 -0.4730
   15MOL    N36 7904   4.881   4.863   7.651  0.5493  0.0052 -0.5342
   15MOL    C37 7905   4.765   4.784   7.637  0.5873  0.0901 -0.3030
   15MOL    C38 7906   4.769   4.648   7.608 -0.5023  0.5090 -0.1509
   15MOL    C39 7907   4.647   4.580   7.582 -1.1442 -0.3788  0.2025
   15MOL    C40 7908   4.523   4.648   7.586  0.5897 -0.3858 -1.0190
   15MOL    N41 7909   4.405   4.580   7.550 -0.1690 -0.4229 -0.0019
   15MOL    C42 7910   4.520   4.784   7.633 -0.7733 -0.3204 -0.2757
   15MOL    C43 7911   4.643   4.851   7.659  0.6748  0.5612 -0.4689
   15MOL    O44 7912   5.045   4.743   7.537 -0.3576 -0.0232 -0.1773
   15MOL    C45 7913   5.125   5.051   7.548 -0.1016  1.0773 -0.0236
   15MOL    C46 7914   5.244   5.118   7.563  0.1763  0.1622  0.1006
   15MOL    O47 7915   5.457   5.255   7.810 -0.4332  0.3913  0.2617
   15MOL    H48 7916   5.338   4.989   7.869 -1.9994 -0.6675  1.0296
   15MOL    H49 7917   5.141   4.859   7.838 -0.4919  2.5894  2.2972
   15MOL    H50 7918   4.869   4.958   7.684  3.5350  0.5555 -0.8716
   15MOL    H51 7919   4.866   4.601   7.615 -1.3006 -1.0065  0.9969
   15MOL    H52 7920   4.638   4.473   7.569 -0.2142 -0.4323 -0.0173
   15MOL    H53 7921   4.371   4.508   7.611  1.1393 -1.2423 -0.2138
   15MOL    H54 7922   4.429   4.842   7.637 -1.0503 -0.6249 -1.8115
   15MOL    H55 7923   4.636   4.957   7.680  1.2593  0.4700  0.1871
   15MOL    H56 7924   5.062   5.052   7.460 -0.1498 -0.0478 -0.0091
   15MOL    H57 7925   5.272   5.191   7.488 -0.0294  1.7519  1.5532
   15MOL    C58 7926   4.336   4.600   7.438  0.4227  0.1726 -0.2791
   15MOL    C59 7927   4.195   4.547   7.434  0.2799 -0.5774  0.0576
   15MOL    C60 7928   4.115   4.554   7.321 -0.1063  0.6957 -0.8726
   15MOL    C61 7929   3.983   4.512   7.321  0.2183 -0.1736 -0.0243
   15MOL    C62 7930   3.925   4.444   7.436 -0.5299 -0.2776 -0.3322
   15MOL    C63 7931   3.786   4.388   7.425  0.2688  0.1530 -0.0591
   15MOL    N64 7932   3.697   4.488   7.405  0.1081  0.2109  0.1741
   15MOL    C65 7933   3.555   4.459   7.405 -0.0416  0.3850 -0.0038
   15MOL    C66 7934   3.472   4.509   7.302 -0.0025  0.4338 -0.1490
   15MOL    C67 7935   3.334   4.489   7.325  0.2189 -0.5967 -0.3063
   15MOL    C68 7936   3.277   4.429   7.440 -0.5408  0.1951  0.0507
   15MOL    N69 7937   3.138   4.389   7.453 -0.1860  0.3643  0.0886
   15MOL    C70 7938   3.364   4.384   7.543  0.7217 -0.6030  0.2332
   15MOL    C71 7939   3.500   4.412   7.527  0.1070  0.0542  0.5267
   15MOL    O72 7940   3.753   4.271   7.421  0.3501  0.3356 -0.2212
   15MOL    C73 7941   4.008   4.434   7.549  0.5277 -0.1278 -0.3253
   15MOL    C74 7942   4.142   4.487   7.552 -1.1246 -0.3993 -0.1558
   15MOL    O75 7943   4.382   4.671   7.347  0.3085  0.4213  0.3580
   15MOL    H76 7944   4.151   4.602   7.232  1.7107  1.1625  0.0975
   15MOL    H77 7945   3.924   4.526   7.232  0.3569 -2.2814 -0.4728
   15MOL    H78 7946   3.728   4.583   7.390  1.3728 -0.4379 -1.5115
   15MOL    H79 7947   3.505   4.556   7.211  1.3885  0.1921  0.2114
   15MOL    H80 7948   3.269   4.519   7.244 -2.0290 -0.9810  1.2840
   15MOL    H81 7949   3.110   4.317   7.518  1.2117  0.2859  0.6372
   15MOL    H82 7950   3.323   4.340   7.632 -0.2648 -0.2585 -0.0503
   15MOL    H83 7951   3.558   4.382   7.613  2.2175  1.7512 -0.2437
   15MOL    H84 7952   3.971   4.389   7.640  0.1461 -1.3193 -1.0594
   15MOL    H85 7953   4.201   4.486   7.643  0.3313  0.0076 -1.0783
   15MOL    C86 7954   3.034   4.442   7.395 -0.1514  0.5170  0.3742
   15MOL    C87 7955   2.905   4.368   7.410  0.0119 -0.6993  0.2071
   15MOL    C88 7956   2.885   4.274   7.517  0.0185 -0.3870  0.2202
   15MOL    C89 7957   2.774   4.202   7.540 -0.1520 -0.5036  0.0320
   15MOL    C90 7958   2.670   4.220   7.451 -0.2315 -0.3300  0.0040
   15MOL    C91 7959   2.553   4.131   7.457  0.3556 -0.5624  0.2893
   15MOL    N92 7960   2.501   4.126   7.578  0.5540 -0.0836 -0.7693
   15MOL    C93 7961   2.374   4.064   7.612  0.1909 -0.2687 -0.1310
   15MOL    C94 7962   2.270   4.069   7.520  0.3101 -0.1211  0.2025
   15MOL    C95 7963   2.150   4.007   7.549 -0.0865 -0.2203  0.4677
   15MOL    C96 7964   2.131   3.947   7.676  0.0205  0.3255 -0.9754
   15MOL    N97 7965   2.017   3.878   7.712  0.3117 -0.1416 -0.5642
   15MOL    C98 7966   2.238   3.940   7.765  0.6475 -0.3453  0.4054
   15MOL    C99 7967   2.360   4.003   7.733  0.2958 -0.9924  0.1363
   15MOL   O100 7968   2.501   4.092   7.353 -0.5612  0.5654  0.4764
   15MOL   C101 7969   2.681   4.307   7.339 -0.2450 -0.0698  0.4604
   15MOL   C102 7970   2.793   4.386   7.325  0.0579 -0.3559 -1.0828
   15MOL   O103 7971   3.046   4.535   7.321 -0.1783 -0.2044  0.1737
   15MOL   H104 7972   2.959   4.255   7.593  0.5352  0.3192 -0.0986
   15MOL   H105 7973   2.775   4.124   7.615  0.2704  0.6298  1.2105
   15MOL   H106 7974   2.561   4.163   7.651  3.3008 -1.2831 -2.3650
   15MOL   H107 7975   2.272   4.119   7.424  1.0993  0.8701  0.7313
   15MOL   H108 7976   2.079   4.008   7.468  0.4480  0.2913  0.0064
   15MOL   H109 7977   2.030   3.809   7.785  1.1204  1.2563  0.6239
   15MOL   H110 7978   2.224   3.899   7.864 -1.6351  2.1105  1.1655
   15MOL   H111 7979   2.444   3.991   7.799 -1.2948  0.1043  2.4200
   15MOL   H112 7980   2.602   4.345   7.276  0.9346 -1.5693 -2.0202
   15MOL   H113 7981   2.788   4.457   7.244  2.1727 -0.3810 -1.2816
   15MOL   C114 7982   1.904   3.855   7.649  0.1551 -0.6425 -0.4534
   15MOL   C115 7983   1.835   3.737   7.703  0.1886  0.0673  0.9433
   15MOL   C116 7984   1.701   3.743   7.745  0.2346 -0.2569  0.3520
   15MOL   C117 7985   1.649   3.643   7.822  0.4016  0.3218 -0.3013
   15MOL   C118 7986   1.725   3.533   7.853 -0.7234 -0.7660  0.2325
   15MOL   C119 7987   1.665   3.419   7.932  0.3517  0.0565 -0.1465
   15MOL   N120 7988   1.740   3.394   8.044  0.5897 -0.4440 -0.1634
   15MOL   C121 7989   1.725   3.291   0.002  0.6588 -0.4867 -0.6615
   15MOL   C122 7990   1.636   3.185   8.144  0.0195  0.6210  0.5917
   15MOL   C123 7991   1.627   3.099   0.109 -0.6976  0.7276  0.2905
   15MOL   C124 7992   1.711   3.115   0.219  0.0718 -0.6016  0.6343
   15MOL   N125 7993   1.696   3.026   0.325 -0.0236 -0.4104 -0.2157
   15MOL   C126 7994   1.815   3.213   0.215 -0.1551  0.1566  0.5243
   15MOL   C127 7995   1.820   3.306   0.109 -0.0189 -0.0619  0.5553
   15MOL   O128 7996   1.565   3.356   7.894 -0.5933  0.2480 -0.1127
   15MOL   C129 7997   1.855   3.515   7.806  0.2584  0.2630  0.7610
   15MOL   C130 7998   1.914   3.623   7.741  0.5233  0.2094  0.1496
   15MOL   O131 7999   1.847   3.937   7.572 -0.5073 -0.2440 -0.0245
   15MOL   H132 8000   1.635   3.828   7.729 -1.4125 -1.1546  2.1488
   15MOL   H133 8001   1.551   3.655   7.866 -0.1303  1.0470 -1.6403
   15MOL   H134 8002   1.820   3.454   8.057  2.4047 -2.3755 -2.1032
   15MOL   H135 8003   1.581   3.162   8.055  3.0637  2.4788 -1.8798
   15MOL   H136 8004   1.561   3.014   0.109  1.2440 -0.8395 -1.5616
   15MOL   H137 8005   1.624   2.957   0.309 -0.2051 -0.0632 -0.9308
   15MOL   H138 8006   1.896   3.222   0.286  1.7644  0.6672 -1.7017
   15MOL   H139 8007   1.896   3.382   0.102 -0.0254 -0.0580  0.5290
   15MOL   H140 8008   1.916   3.426   7.820 -2.0393 -1.3633  0.6186
   15MOL   H141 8009   2.019   3.622   7.715  0.2816 -0.9535 -0.7915
   15MOL   C142 8010   1.777   3.009   0.430  0.4797  0.0054  0.5211
   15MOL   C143 8011   1.747   2.876   0.489  0.2654 -0.3236  0.5801
   15MOL   C144 8012   1.613   2.840   0.524  0.0265 -0.8520  0.3217
   15MOL   C145 8013   1.583   2.712   0.569  0.6513 -0.1876  0.3197
   15MOL   C146 8014   1.682   2.618   0.595  0.0349 -0.8671  0.2212
   15MOL   C147 8015   1.653   2.469   0.623  0.2505 -0.0445  0.2329
   15MOL   N148 8016   1.583   2.412   0.523 -0.0012  1.3679  0.1571
   15MOL   C149 8017   1.526   2.280   0.496  0.5030 -0.4286 -0.3676
   15MOL   C150 8018   1.487   2.186   0.595 -0.1675 -0.0875 -0.2952
   15MOL   C151 8019   1.436   2.062   0.557 -0.0175  0.0884 -0.8653
   15MOL   C152 8020   1.431   2.023   0.420  0.1058 -0.4042  0.3645
   15MOL   N153 8021   1.359   1.902   0.397  0.1076  0.1759  0.1972
   15MOL   C154 8022   1.485   2.107   0.324 -0.1024 -0.5769 -0.1687
   15MOL   C155 8023   1.523   2.239   0.361  0.1377 -0.1119 -0.2673
   15MOL   O156 8024   1.696   2.413   0.720 -0.2778  0.0918 -0.0039
   15MOL   C157 8025   1.813   2.659   0.575  0.1835 -0.4516  0.0664
   15MOL   C158 8026   1.845   2.791   0.537  0.0061 -0.2355  0.1930
   15MOL   O159 8027   1.855   3.093   0.479 -0.1016  0.8678  0.2424
   15MOL   H160 8028   1.534   2.905   0.489  1.4630  0.4543 -0.5882
   15MOL   H161 8029   1.484   2.671   0.581 -0.5498  2.0241 -1.5645
   15MOL   H162 8030   1.563   2.484   0.454  3.0011  1.6301 -0.5232
   15MOL   H163 8031   1.491   2.211   0.700 -1.8727  0.7753 -0.4286
   15MOL   H164 8032   1.398   1.998   0.635  0.1174  0.3935 -0.5521
   15MOL   H165 8033   1.391   1.818   0.443 -0.8755  0.2596  1.0408
   15MOL   H166 8034   1.480   2.075   0.221  0.4947  0.3544 -0.4983
   15MOL   H167 8035   1.560   2.301   0.281  0.1725  2.8017  1.9323
   15MOL   H168 8036   1.886   2.586   0.604  0.8088 -0.1965 -0.8286
   15MOL   H169 8037   1.950   2.817   0.538  0.7249 -2.9624 -0.2390
   15MOL   C170 8038   1.288   1.874   0.288  0.3022  0.0089 -0.5397
   15MOL   C171 8039   1.240   1.736   0.259 -0.2552  0.1630 -0.0521
   15MOL   C172 8040   1.210   1.704   0.124  0.1096 -0.3426  0.7991
   15MOL   C173 8041   1.142   1.587   0.099 -0.0122 -0.6051  0.8444
   15MOL   C174 8042   1.127   1.489   0.197 -0.0798  0.4334  0.1165
   15MOL   C175 8043   1.069   1.358   0.161  0.2695 -0.0876 -0.2081
   15MOL   N176 8044   0.967   1.370   0.076  0.1527  0.2216 -0.0347
   15MOL   C177 8045   0.881   1.267   0.030  0.0929  0.0971  0.1288
   15MOL   C178 8046   0.747   1.289   0.004  0.4220  0.2744 -0.4751
   15MOL   C179 8047   0.663   1.185   8.107  0.3057  0.3095 -0.0164
   15MOL   C180 8048   0.709   1.054   8.104 -0.0062 -0.2118 -0.3856
   15MOL   N181 8049   0.623   0.942   8.075 -0.0485 -0.3368  0.3716
   15MOL   C182 8050   0.847   1.030   8.119 -0.1216  0.0796  0.1567
   15MOL   C183 8051   0.930   1.137   0.012  0.0395  0.7070  0.2789
   15MOL   O184 8052   1.115   1.253   0.212 -0.1438  0.6530 -0.2051
   15MOL   C185 8053   1.162   1.518   0.330 -0.5088 -0.7269 -0.1449
   15MOL   C186 8054   1.219   1.643   0.364 -0.1847  0.1875 -0.5966
   15MOL   O187 8055   1.255   1.965   0.213 -0.4953 -0.5057 -0.0595
   15MOL   H188 8056   1.219   1.781   0.048  0.2410 -0.7175  0.4337
   15MOL   H189 8057   1.115   1.572   8.141  2.2500 -0.2238  0.1816
   15MOL   H190 8058   0.943   1.467   0.062  1.5062  0.6746  0.7111
   15MOL   H191 8059   0.709   1.389   0.021 -0.1973  0.3054 -1.9840
   15MOL   H192 8060   0.563   1.207   8.073  0.4628  2.0518  0.5518
   15MOL   H193 8061   0.534   0.968   8.034  1.4748  0.0476 -2.7821
   15MOL   H194 8062   0.893   0.935   8.097 -2.7122 -0.8564 -1.4018
   15MOL   H195 8063   1.034   1.109   0.022 -0.4452 -1.4079 -0.2308
   15MOL   H196 8064   1.166   1.456   0.419  0.9202  1.6837  1.5236
   15MOL   H197 8065   1.244   1.673   0.465  1.6529 -1.6583 -0.4571
   15MOL   C198 8066   0.641   0.805   8.090  0.5082  0.3496  0.4868
   15MOL   C199 8067   0.529   0.722   8.037 -0.9606 -0.7880 -0.3205
   15MOL   C200 8068   0.477   0.618   8.113  0.1078  1.0428  0.2243
   15MOL   C201 8069   0.363   0.552   8.067 -0.5487 -0.5593  0.5037
   15MOL   C202 8070   0.300   0.582   7.944 -0.2223  0.5907 -0.6799
   15MOL   C203 8071   0.166   0.536   7.895  0.5493  0.0180 -0.5905
   15MOL   N204 8072   0.084   0.500   7.995  0.0630  0.2073  0.2561
   15MOL   C205 8073   8.093   0.510   8.017 -0.1871 -0.0326 -0.0262
   15MOL   C206 8074   8.051   0.490   0.003  0.1587 -0.0074 -0.2614
   15MOL   C207 8075   7.917   0.478   0.032  0.1765  0.3719  0.0623
   15MOL   C208 8076   7.817   0.488   8.076  0.1016  0.8195 -0.0754
   15MOL   N209 8077   7.682   0.478   8.129  0.0465  0.4979  0.0668
   15MOL   C210 8078   7.858   0.518   7.945 -0.2249  0.3157  0.3327
   15MOL   C211 8079   7.998   0.522   7.914  0.9074 -0.3717 -0.0368
   15MOL   O212 8080   0.140   0.543   7.772 -0.1166 -0.3823 -0.4113
   15MOL   C213 8081   0.368   0.673   7.862  0.7339 -0.0424  0.7607
   15MOL   C214 8082   0.480   0.753   7.905  0.1656  0.5028  0.2636
   15MOL   O215 8083   0.731   0.755   0.015  0.1044  0.0593  0.3710
   15MOL   H216 8084   0.520   0.597   0.064  1.1828  0.9504 -0.2584
   15MOL   H217 8085   0.325   0.476   8.133  0.7527 -1.5073  0.1962
   15MOL   H218 8086   0.144   0.492   8.076  3.6040 -0.8306 -2.2867
   15MOL   H219 8087   8.117   0.478   0.087  1.8471 -0.2975 -1.6076
   15MOL   H220 8088   7.885   0.452   0.132 -0.1356  1.3521  0.2248
   15MOL   H221 8089   7.687   0.517   0.076  1.4838  0.1746  0.1340
   15MOL   H222 8090   7.780   0.540   7.874  0.0006 -0.4573 -0.1580
   15MOL   H223 8091   8.030   0.540   7.813 -0.7272 -0.9119 -0.6716
   15MOL   H224 8092   0.316   0.700   7.772 -1.4492 -0.9678  1.6996
   15MOL   H225 8093   0.524   0.829   7.842  2.5274 -0.5308  0.6208
   15MOL   C226 8094   7.565   0.467   8.065  0.4558 -0.1318 -0.5214
   15MOL   C227 8095   7.440   0.507   0.001 -0.6044 -0.2584 -0.0177
   15MOL   C228 8096   7.318   0.529   8.091 -0.5657 -0.2208  0.2548
   15MOL   C229 8097   7.197   0.545   0.018  0.3450 -0.5311  0.3207
   15MOL   C230 8098   7.209   0.555   0.159  0.3834  0.2667 -0.2436
   15MOL   C231 8099   7.096   0.597   0.240  0.7797 -0.5329 -0.0695
   15MOL   N232 8100   6.969   0.554   0.214 -0.3087  0.9363 -0.6987
   15MOL   C233 8101   6.857   0.571   0.293 -0.4474  0.3240 -0.9775
   15MOL   C234 8102   6.733   0.556   0.230  0.0965  0.2089 -0.5046
   15MOL   C235 8103   6.615   0.543   0.299  0.5523 -0.2243 -0.1296
   15MOL   C236 8104   6.618   0.567   0.438  0.3838  0.6489 -0.3473
   15MOL   N237 8105   6.497   0.555   0.520  0.0026  1.0843  0.5201
   15MOL   C238 8106   6.732   0.599   0.503 -0.2090 -0.0671  0.4540
   15MOL   C239 8107   6.856   0.592   0.428 -0.2024  0.0924 -0.5695
   15MOL   O240 8108   7.119   0.683   0.325 -0.3982  0.0117  0.3073
   15MOL   C241 8109   7.334   0.538   0.219 -0.2657  0.7232 -0.7147
   15MOL   C242 8110   7.449   0.509   0.144 -0.0556 -0.7875 -1.2214
   15MOL   O243 8111   7.560   0.417   7.952  0.3540  0.3329 -0.2839
   15MOL   H244 8112   7.316   0.521   7.983 -1.7718 -1.3349  0.3488
   15MOL   H245 8113   7.101   0.544   8.116 -1.4000 -1.4667  3.7170
   15MOL   H246 8114   6.961   0.495   0.132  2.9381 -1.7551  0.7945
   15MOL   H247 8115   6.744   0.544   0.124 -2.8375 -0.1788 -0.7998
   15MOL   H248 8116   6.531   0.502   0.245  1.4776 -2.3787  0.0098
   15MOL   H249 8117   6.491   0.604   0.608 -1.7590  0.3580  0.8191
   15MOL   H250 8118   6.733   0.626   0.608  2.2105 -0.0810  0.4746
   15MOL   H251 8119   6.947   0.603   0.486  0.4813  1.0405 -1.8202
   15MOL   H252 8120   7.344   0.531   0.326  2.6139 -0.7877 -1.0395
   15MOL   H253 8121   7.541   0.500   0.200 -1.4453  0.8873  1.4420
   15MOL   C254 8122   6.409   0.458   0.503 -0.2882 -0.3951  0.1539
   15MOL   C255 8123   6.274   0.482   0.564 -0.1961  0.0015 -0.7959
   15MOL   C256 8124   6.218   0.614   0.579  0.9303  0.1004 -0.0946
   15MOL   C257 8125   6.086   0.631   0.624 -0.3254 -0.3861 -0.0355
   15MOL   C258 8126   6.008   0.522   0.656  0.3376  0.4322  0.5012
   15MOL   C259 8127   5.863   0.540   0.706  0.0158  0.4958 -0.2225
   15MOL   N260 8128   5.776   0.590   0.617 -0.6760  0.2683  0.3345
   15MOL   C261 8129   5.796   0.588   0.476 -0.5246 -0.4511  0.6953
   15MOL   C262 8130   5.840   0.705   0.410  0.2478 -0.1498  0.6159
   15MOL   C263 8131   5.870   0.706   0.272 -0.4795 -0.1317 -0.2397
   15MOL   C264 8132   5.849   0.586   0.202 -0.1953  0.4276  0.0900
   15MOL   N265 8133   5.851   0.591   0.060 -0.0553 -0.2403  0.0426
   15MOL   C266 8134   5.807   0.469   0.262 -0.2719 -0.9233 -0.2475
   15MOL   C267 8135   5.784   0.474   0.399  0.6087 -0.3076  0.4836
   15MOL   O268 8136   5.820   0.494   0.812 -0.2180  0.4817 -0.1014
   15MOL   C269 8137   6.062   0.391   0.653  0.5241  0.0510 -0.0265
   15MOL   C270 8138   6.192   0.372   0.609 -0.0636 -0.1080  0.3792
   15MOL   O271 8139   6.427   0.358   0.430  0.2209  0.2809  0.3023
   15MOL   H272 8140   6.280   0.700   0.562 -1.9301  1.9767 -1.2757
   15MOL   H273 8141   6.046   0.731   0.626 -0.7638 -0.5205 -1.5647
   15MOL   H274 8142   5.683   0.606   0.653 -0.2211  0.0664  1.6674
   15MOL   H275 8143   5.848   0.799   0.463  1.5437 -0.6313  1.3103
   15MOL   H276 8144   5.894   0.797   0.219  1.6235 -0.4635  0.1268
   15MOL   H277 8145   5.772   0.540   0.022 -1.2531  0.1233  1.9590
   15MOL   H278 8146   5.796   0.377   0.207  0.3434 -0.4990 -1.0984
   15MOL   H279 8147   5.759   0.382   0.450  0.2151  0.3102  1.4112
   15MOL   H280 8148   5.996   0.314   0.690  1.8078 -0.6754  0.7817
   15MOL   H281 8149   6.229   0.271   0.601 -2.8996 -1.1492  0.0392
   15MOL   C282 8150   5.941   0.645   8.119  0.2039 -0.2204 -0.8606
   15MOL   C283 8151   6.077   0.698   0.023  0.4299 -0.0617 -0.6578
   15MOL   C284 8152   6.140   0.651   0.139 -0.6074  0.5986 -0.0787
   15MOL   C285 8153   6.267   0.697   0.168 -0.3318 -0.5290 -0.3821
   15MOL   C286 8154   6.324   0.801   0.094  0.1537 -0.0410  0.1561
   15MOL   C287 8155   6.460   0.848   0.130 -0.2153 -0.3046  0.9631
   15MOL   N288 8156   6.548   0.831   0.026 -0.3669  0.0820 -1.0521
   15MOL   C289 8157   6.687   0.859   0.029  0.5255 -0.5588  0.4229
   15MOL   C290 8158   6.767   0.768   8.107  0.6184 -0.1740 -0.3629
   15MOL   C291 8159   6.902   0.794   8.084 -0.1349 -0.7216  0.0030
   15MOL   C292 8160   6.965   0.907   8.135  0.7341  0.0928  0.5160
   15MOL   N293 8161   7.103   0.915   8.106  0.8962  0.0786  0.2451
   15MOL   C294 8162   6.881   1.009   0.049 -1.1019 -0.1215 -0.2527
   15MOL   C295 8163   6.745   0.981   0.068 -0.5395  0.1440  0.1409
   15MOL   O296 8164   6.485   0.876   0.247  0.2073 -0.0717  0.2142
   15MOL   C297 8165   6.264   0.851   8.126  0.5807  0.1838  0.5326
   15MOL   C298 8166   6.139   0.800   8.093  0.3786 -0.2156 -0.3456
   15MOL   O299 8167   5.912   0.639   7.999 -0.0270  0.4621  0.3843
   15MOL   H300 8168   6.107   0.578   0.211  3.1542 -2.1690 -1.0458
   15MOL   H301 8169   6.325   0.653   0.249 -0.3880  1.8114  0.9864
   15MOL   H302 8170   6.521   0.777   8.091  1.9365  0.3704 -2.0493
   15MOL   H303 8171   6.721   0.677   8.071  0.8685 -0.2328 -0.5384
   15MOL   H304 8172   6.960   0.721   8.029  0.0959 -2.2646  2.2151
   15MOL   H305 8173   7.150   0.852   8.043 -0.5148 -2.2274  1.4491
   15MOL   H306 8174   6.917   1.106   0.079 -0.2514  0.5371 -3.2471
   15MOL   H307 8175   6.690   1.051   0.130 -0.9100  0.0828 -0.1147
   15MOL   H308 8176   6.309   0.928   8.066  3.2223 -2.7708 -1.3936
   15MOL   H309 8177   6.098   0.837   8.001 -0.4481  2.0144  0.8691
   15MOL   C310 8178   7.181   1.021   8.129 -0.0236 -0.7687 -0.0062
   15MOL   C311 8179   7.319   1.010   8.059 -0.3006  0.4383 -0.2154
   15MOL   C312 8180   7.396   1.122   8.043  0.8816  0.4148 -0.2237
   15MOL   C313 8181   7.524   1.108   7.984  0.1856 -0.4830  0.0229
   15MOL   C314 8182   7.582   0.983   7.956 -0.0858  0.1902  0.3607
   15MOL   C315 8183   7.721   0.979   7.889  0.0861  0.1288 -0.3464
   15MOL   N316 8184   7.731   0.891   7.789 -0.4288 -0.4420  0.2389
   15MOL   C317 8185   7.845   0.855   7.717  0.9384  0.0018 -0.1967
   15MOL   C318 8186   7.819   0.827   7.582  0.4590 -0.3407  0.0476
   15MOL   C319 8187   7.929   0.784   7.506 -0.1561 -0.5903 -0.1265
   15MOL   C320 8188   8.062   0.797   7.557  0.1025 -0.4484 -0.6271
   15MOL   N321 8189   0.030   0.752   7.475  0.9264 -0.7359  0.8164
   15MOL   C322 8190   8.085   0.839   7.686  1.2433  0.9346  0.0551
   15MOL   C323 8191   7.972   0.868   7.763 -0.6985  0.1771 -0.1011
   15MOL   O324 8192   7.810   1.059   7.927 -0.1380 -0.0946  0.4303
   15MOL   C325 8193   7.502   0.869   7.977 -0.6066 -0.4910 -0.4131
   15MOL   C326 8194   7.369   0.880   8.019 -0.4521  0.3221 -0.6029
   15MOL   O327 8195   7.159   1.114   0.063 -0.4033  0.3356  0.0389
   15MOL   H328 8196   7.363   1.219   8.075  0.9305  0.7677 -1.2234
   15MOL   H329 8197   7.584   1.196   7.968  1.6259 -1.3250  0.6575
   15MOL   H330 8198   7.646   0.845   7.759 -0.6510 -0.7229  1.2589
   15MOL   H331 8199   7.720   0.823   7.540  0.8215 -0.7370 -0.7888
   15MOL   H332 8200   7.922   0.739   7.408  2.4120 -0.1345 -0.5674
   15MOL   H333 8201   0.019   0.670   7.418 -1.5184  1.4500 -1.9941
   15MOL   H334 8202   0.037   0.837   7.731  0.7529  3.8699  1.4032
   15MOL   H335 8203   7.991   0.892   7.867  2.4870 -1.0601 -0.3279
   15MOL   H336 8204   7.539   0.771   7.949 -0.0394 -0.8190  1.4247
   15MOL   H337 8205   7.308   0.791   8.019  0.4056 -0.2998 -2.5130
   15MOL   C338 8206   0.152   0.806   7.470 -0.5769 -0.2283 -0.0425
   15MOL   C339 8207   0.185   0.941   7.525 -0.7234  0.0826  0.9060
   15MOL   C340 8208   0.106   1.053   7.485 -0.0054  0.2607 -0.2441
   15MOL   C341 8209   0.146   1.184   7.530 -0.0905  0.4139 -0.2066
   15MOL   C342 8210   0.263   1.200   7.604  0.4541 -0.8040 -0.4271
   15MOL   C343 8211   0.308   1.343   7.639  0.6004 -0.1051 -0.9557
   15MOL   N344 8212   0.214   1.439   7.638 -0.0460  0.4175  0.4238
   15MOL   C345 8213   0.222   1.550   7.727 -0.0781 -0.1941  0.5069
   15MOL   C346 8214   0.122   1.575   7.817  0.1935 -0.0627  0.2182
   15MOL   C347 8215   0.119   1.693   7.900 -0.3224 -0.5559  0.2955
   15MOL   C348 8216   0.231   1.777   7.899 -0.2587 -0.0215 -0.2255
   15MOL   N349 8217   0.242   1.883   7.997 -0.1183 -0.0623  1.0971
   15MOL   C350 8218   0.337   1.746   7.813  0.4636  0.8417 -0.3050
   15MOL   C351 8219   0.333   1.635   7.725  0.3313 -0.0009 -0.6388
   15MOL   O352 8220   0.424   1.363   7.674  0.4399  0.1714 -0.2030
   15MOL   C353 8221   0.341   1.090   7.645 -0.0646  0.3196  0.3194
   15MOL   C354 8222   0.304   0.963   7.600 -0.3877  0.0776  0.4640
   15MOL   O355 8223   0.246   0.751   7.421 -0.4042 -0.1693  0.8012
   15MOL   H356 8224   0.013   1.035   7.433  0.8701 -1.2958 -1.2802
   15MOL   H357 8225   0.078   1.261   7.497  0.3643  0.4842 -1.0050
   15MOL   H358 8226   0.120   1.416   7.610  0.1631 -1.0328  0.8447
   15MOL   H359 8227   0.033   1.514   7.814  1.2211 -1.5388 -0.6421
   15MOL   H360 8228   0.035   1.709   7.966  0.6113 -0.3509  1.4479
   15MOL   H361 8229   0.335   1.916   8.018  0.0237 -0.2413  0.7507
   15MOL   H362 8230   0.430   1.799   7.830  0.1167  2.5683 -3.4709
   15MOL   H363 8231   0.422   1.608   7.669  2.3080 -2.2216  3.2880
   15MOL   H364 8232   0.429   1.110   7.704 -0.1648  1.5115  0.0810
   15MOL   H365 8233   0.359   0.876   7.633 -1.8895 -0.0285  2.7979
   15MOL   C366 8234   0.151   1.952   8.063  0.2277  0.2851  0.0191
   15MOL   C367 8235   0.208   2.036   0.033  0.4189 -0.2655 -0.2980
   15MOL   C368 8236   0.340   2.025   0.089  0.5123  0.5253  0.1675
   15MOL   C369 8237   0.361   2.077   0.216 -0.2386 -0.0636 -0.5698
   15MOL   C370 8238   0.261   2.156   0.279 -0.3932 -0.0676  0.0034
   15MOL   C371 8239   0.288   2.220   0.408 -0.0635 -0.2797 -0.1263
   15MOL   N372 8240   0.196   2.202   0.504 -0.7482  0.4251  0.1944
   15MOL   C373 8241   0.183   2.285   0.622 -0.0419 -0.3929 -0.0753
   15MOL   C374 8242   0.275   2.382   0.662  0.0200 -0.2952 -0.4896
   15MOL   C375 8243   0.245   2.471   0.767  0.4460  0.1597 -0.7030
   15MOL   C376 8244   0.114   2.475   0.818 -0.6451 -0.1523 -0.3061
   15MOL   N377 8245   0.083   2.571   0.921  0.2138 -0.4960 -0.6334
   15MOL   C378 8246   0.027   2.363   0.797  0.6040 -0.7419  0.1733
   15MOL   C379 8247   0.061   2.270   0.691 -0.2040 -0.7090 -1.2100
   15MOL   O380 8248   0.396   2.277   0.419  0.8515 -0.1949 -0.0295
   15MOL   C381 8249   0.139   2.183   0.213 -0.2423  0.6792  0.1831
   15MOL   C382 8250   0.112   2.114   0.098 -0.1196  0.0623  0.9176
   15MOL   O383 8251   0.032   1.949   8.033 -0.1409 -0.4773 -0.2941
   15MOL   H384 8252   0.422   1.965   0.053  0.8034  0.5340  0.8013
   15MOL   H385 8253   0.457   2.055   0.261 -0.5066  1.4317  0.8224
   15MOL   H386 8254   0.124   2.132   0.493  2.0012 -2.6195  0.6929
   15MOL   H387 8255   0.370   2.403   0.615 -0.0204  1.2975  0.0862
   15MOL   H388 8256   0.318   2.546   0.794 -2.0012  1.1365  3.6611
   15MOL   H389 8257   0.024   2.536   0.996 -0.7089 -0.0094 -1.1259
   15MOL   H390 8258   8.073   2.366   0.838  0.5513  1.3603 -0.0598
   15MOL   H391 8259   8.123   2.204   0.671 -0.1206 -1.6037  1.2110
   15MOL   H392 8260   0.065   2.248   0.258 -0.5776  0.7869 -0.5227
   15MOL   H393 8261   0.013   2.120   0.055  0.5254 -1.6864 -0.8976
   15MOL   C394 8262   0.106   2.704   0.922 -0.1181  0.3064 -0.6567
   15MOL   C395 8263   0.047   2.790   1.026  0.2723 -0.0795  0.5537
   15MOL   C396 8264   0.104   2.911   1.060  0.3669  0.4184  0.5236
   15MOL   C397 8265   0.059   2.980   1.174  0.4923  0.2733 -0.3577
   15MOL   C398 8266   8.091   2.942   1.244 -0.0909 -0.6517  0.2514
   15MOL   C399 8267   8.047   3.024   1.367  0.0551  0.2439 -0.0947
   15MOL   N400 8268   7.914   3.035   1.373 -0.2451  0.1157  0.4955
   15MOL   C401 8269   7.828   3.059   1.489  0.1550  0.3047 -0.2561
   15MOL   C402 8270   7.871   3.114   1.615  0.4557  0.1839 -0.4648
   15MOL   C403 8271   7.781   3.135   1.721 -0.2743  0.1790  0.2144
   15MOL   C404 8272   7.646   3.098   1.702  0.4262 -0.1500  0.3785
   15MOL   N405 8273   7.543   3.120   1.797  0.0160 -0.1641  0.1984
   15MOL   C406 8274   7.602   3.037   1.580 -0.9240 -0.1811 -0.4072
   15MOL   C407 8275   7.698   3.018   1.477 -0.0399  0.0484  1.1447
   15MOL   O408 8276   8.126   3.077   1.445  0.0476 -0.3286 -0.2297
   15MOL   C409 8277   8.035   2.824   1.208 -0.6775 -0.0163 -0.0432
   15MOL   C410 8278   8.083   2.746   1.098  0.1957 -0.1927  1.1149
   15MOL   O411 8279   0.172   2.761   0.834  0.2514 -0.5686 -0.1295
   15MOL   H412 8280   0.198   2.938   1.013  1.2579  0.0617  2.0586
   15MOL   H413 8281   0.103   3.071   1.211  1.7821 -0.7916  0.7530
   15MOL   H414 8282   7.876   3.003   1.285 -1.9405  0.7774  0.9586
   15MOL   H415 8283   7.975   3.131   1.640  0.2377  3.1309 -1.3371
   15MOL   H416 8284   7.824   3.140   1.820  2.7632 -1.1022 -0.9602
   15MOL   H417 8285   7.458   3.165   1.765 -0.6431 -0.4032  1.5618
   15MOL   H418 8286   7.499   3.007   1.574 -0.3424 -2.0136 -1.6757
   15MOL   H419 8287   7.658   2.973   1.387 -1.4157 -1.5874  2.5466
   15MOL   H420 8288   7.954   2.790   1.270 -0.1872 -0.1294  0.5385
   15MOL   H421 8289   8.032   2.652   1.085  0.8421 -0.5446  1.1454
   15MOL   C422 8290   7.565   3.125   1.927 -0.6774 -0.7578  0.2447
   15MOL   C423 8291   7.452   3.180   2.013 -0.0713  0.2858  0.0382
   15MOL   C424 8292   7.388   3.297   1.966 -0.0196 -0.0768  0.2273
   15MOL   C425 8293   7.289   3.368   2.037  0.3978  0.2434  0.5315
   15MOL   C426 8294   7.241   3.309   2.153  0.3817  0.1841 -0.5270
   15MOL   C427 8295   7.126   3.377   2.219 -0.9353 -0.1710  0.4445
   15MOL   N428 8296   7.126   3.512   2.225 -0.4776  0.5717 -0.0726
   15MOL   C429 8297   7.003   3.584   2.227 -0.1833  0.4039  0.0028
   15MOL   C430 8298   6.906   3.569   2.327  0.6438  0.6897  0.1955
   15MOL   C431 8299   6.794   3.655   2.331 -0.8182 -0.4132 -0.3755
   15MOL   C432 8300   6.767   3.745   2.231 -0.3016 -0.2620  0.5400
   15MOL   N433 8301   6.643   3.814   2.232  0.0062 -0.3844 -0.9704
   15MOL   C434 8302   6.862   3.759   2.127  0.6871  0.5856 -0.2921
   15MOL   C435 8303   6.982   3.682   2.129  0.1510 -0.3415 -0.0043
   15MOL   O436 8304   7.046   3.297   2.268 -0.2440 -0.1642 -0.2268
   15MOL   C437 8305   7.299   3.189   2.201 -0.5549  0.6081 -0.3954
   15MOL   C438 8306   7.409   3.126   2.133 -0.4586  0.2436 -0.8297
   15MOL   O439 8307   7.654   3.058   1.988 -0.7231 -0.2118 -0.0326
   15MOL   H440 8308   7.411   3.345   1.872 -3.6680  1.6480  0.1284
   15MOL   H441 8309   7.240   3.456   1.999 -0.5094  1.1471  3.6594
   15MOL   H442 8310   7.212   3.555   2.191 -2.1249  3.1451 -1.1244
   15MOL   H443 8311   6.920   3.503   2.411 -1.4485  2.4850  1.9892
   15MOL   H444 8312   6.720   3.633   2.406 -1.1647 -0.8104 -0.8354
   15MOL   H445 8313   6.573   3.761   2.281  0.7948  0.3997  1.0824
   15MOL   H446 8314   6.847   3.826   2.044 -1.0183  0.6931  0.0922
   15MOL   H447 8315   7.057   3.696   2.053  0.3407  0.3308  0.3002
   15MOL   H448 8316   7.265   3.131   2.286 -0.1298  2.7703  1.2990
   15MOL   H449 8317   7.461   3.040   2.170 -0.0493 -0.2158 -2.4068
   15MOL   C450 8318   6.621   3.941   2.200  0.3883 -1.1740  0.4624
   15MOL   C451 8319   6.482   3.988   2.196  0.6749  0.4516 -0.1822
   15MOL   C452 8320   6.454   4.102   2.256 -0.6467 -0.1078 -0.4153
   15MOL   C453 8321   6.322   4.145   2.252  0.1966  0.1405  0.9828
   15MOL   C454 8322   6.218   4.082   2.176  0.1560 -0.3399 -0.5284
   15MOL   C455 8323   6.076   4.125   2.178 -0.2273 -0.1101  0.6012
   15MOL   N456 8324   6.002   4.101   2.068 -0.3881  0.0451 -0.0484
   15MOL   C457 8325   5.867   4.057   2.055 -0.5306 -0.3907 -0.3532
   15MOL   C458 8326   5.763   4.075   2.151  0.0761 -0.1777  0.2596
   15MOL   C459 8327   5.631   4.026   2.126 -0.3402  0.3680 -0.8650
   15MOL   C460 8328   5.605   3.960   2.005 -0.1888  0.1686 -0.1322
   15MOL   N461 8329   5.480   3.898   1.980 -0.0472  0.7091  0.1139
   15MOL   C462 8330   5.713   3.936   1.911  0.2339  0.3295  0.3381
   15MOL   C463 8331   5.840   3.994   1.933 -0.0475 -0.0290 -0.2405
   15MOL   O464 8332   6.037   4.194   2.273  0.2066  0.0302  0.2949
   15MOL   C465 8333   6.253   3.965   2.108 -0.0104  0.3766 -0.0864
   15MOL   C466 8334   6.385   3.918   2.119 -0.2905 -0.2194 -0.4043
   15MOL   O467 8335   6.715   4.014   2.169  0.0733 -0.1018  0.1349
   15MOL   H468 8336   6.532   4.166   2.294  2.0561 -0.9264 -4.2938
   15MOL   H469 8337   6.296   4.231   2.311  0.1402  1.8590 -1.4946
   15MOL   H470 8338   6.063   4.081   1.990 -1.1958 -0.7248 -0.4840
   15MOL   H471 8339   5.790   4.127   2.242  0.2701  2.0680 -1.0460
   15MOL   H472 8340   5.555   4.035   2.202 -1.6482 -2.9592 -1.6865
   15MOL   H473 8341   5.473   3.840   1.898  0.7095  1.6524 -0.6375
   15MOL   H474 8342   5.690   3.871   1.827  2.6483  0.2487 -0.2996
   15MOL   H475 8343   5.915   3.975   1.858 -1.6756 -2.1605 -1.3661
   15MOL   H476 8344   6.184   3.902   2.053  0.5068  0.2643 -0.6256
   15MOL   H477 8345   6.413   3.834   2.059 -0.3895  0.7953 -1.9046
   15MOL   C478 8346   5.361   3.932   2.032 -0.1202 -0.1266  0.2876
   15MOL   C479 8347   5.247   3.871   1.954 -0.0824  0.7854 -0.3746
   15MOL   C480 8348   5.135   3.950   1.908 -0.2615 -0.6242 -0.2348
   15MOL   C481 8349   5.031   3.894   1.834 -0.6616  0.0989 -0.3847
   15MOL   C482 8350   5.036   3.756   1.794 -0.5785  0.4542  0.1939
   15MOL   C483 8351   4.925   3.690   1.719  0.7358  0.3187 -0.4066
   15MOL   N484 8352   4.930   3.558   1.697 -0.2206 -0.3884 -1.0239
   15MOL   C485 8353   4.886   3.491   1.581  0.2274  0.5464 -0.6446
   15MOL   C486 8354   4.963   3.379   1.524 -0.3582  0.4234 -0.5265
   15MOL   C487 8355   4.925   3.307   1.407  0.4722 -0.1157 -0.7056
   15MOL   C488 8356   4.804   3.345   1.343  0.3369 -0.4595  0.1380
   15MOL   N489 8357   4.747   3.286   1.230 -0.0077 -0.1906  0.2604
   15MOL   C490 8358   4.735   3.459   1.393  0.5618 -0.2762 -0.2461
   15MOL   C491 8359   4.769   3.526   1.506 -0.7412 -0.5394 -0.4751
   15MOL   O492 8360   4.829   3.758   1.682  0.3978  0.5906 -0.0706
   15MOL   C493 8361   5.143   3.679   1.847  0.1705  0.1932 -0.5004
   15MOL   C494 8362   5.243   3.736   1.921  0.8441 -0.0005 -0.6764
   15MOL   O495 8363   5.339   4.025   2.105  0.2727  0.4021 -0.0857
   15MOL   H496 8364   5.134   4.053   1.942  1.4167 -0.2022 -1.3932
   15MOL   H497 8365   4.944   3.955   1.815  0.5060  1.2877 -2.0798
   15MOL   H498 8366   5.018   3.530   1.739 -1.2193  0.8561  2.0563
   15MOL   H499 8367   5.056   3.345   1.568  0.3504  1.7598 -0.9568
   15MOL   H500 8368   4.987   3.231   1.362 -2.1931 -2.9369  0.1928
   15MOL   H501 8369   4.657   3.320   1.200  1.7053  0.4654 -4.5261
   15MOL   H502 8370   4.647   3.499   1.345  1.0066 -1.3542 -1.9884
   15MOL   H503 8371   4.705   3.610   1.523  1.0848  0.5855  1.0168
   15MOL   H504 8372   5.154   3.573   1.831  1.1589 -0.0568  1.6601
   15MOL   H505 8373   5.325   3.678   1.963 -1.1033 -1.1691  1.6304
   15MOL   C506 8374   4.794   3.189   1.153 -0.3773 -0.8053 -0.0489
   15MOL   C507 8375   4.698   3.136   1.050  0.6273 -0.1209  0.0156
   15MOL   C508 8376   4.740   3.048   0.942  0.1895 -0.3215 -0.6472
   15MOL   C509 8377   4.653   2.989   0.848 -0.3534 -0.6989 -0.2561
   15MOL   C510 8378   4.514   3.015   0.867  0.2177  0.0091  0.2005
   15MOL   C511 8379   4.410   2.947   0.785  0.1717 -0.1229 -0.4103
   15MOL   N512 8380   4.315   2.892   0.857  0.5723  0.3916  0.1686
   15MOL   C513 8381   4.197   2.825   0.817 -0.0106 -0.4095 -0.2121
   15MOL   C514 8382   4.140   2.737   0.913  0.3619 -0.4637 -0.5888
   15MOL   C515 8383   4.029   2.658   0.879  0.2754 -0.0176 -0.2142
   15MOL   C516 8384   3.959   2.685   0.758 -0.0951  0.0239 -0.3971
   15MOL   N517 8385   3.837   2.627   0.715  0.6485  0.0920 -0.3304
   15MOL   C518 8386   4.014   2.778   0.665  0.3287  1.3544  0.4897
   15MOL   C519 8387   4.131   2.842   0.696  0.0730  0.2858  0.1859
   15MOL   O520 8388   4.422   2.940   0.663  0.3862 -0.2289 -0.4509
   15MOL   C521 8389   4.471   3.105   0.963 -0.0586 -0.4606  0.0082
   15MOL   C522 8390   4.561   3.162   1.053  0.6939 -0.4107 -0.0556
   15MOL   O523 8391   4.911   3.145   1.165  0.4467  0.8812 -0.2809
   15MOL   H524 8392   4.844   3.018   0.942  0.2004 -0.3034  0.2329
   15MOL   H525 8393   4.695   2.922   0.774  0.8264 -0.4543  0.1819
   15MOL   H526 8394   4.334   2.908   0.955 -2.3572  1.1566  0.6470
   15MOL   H527 8395   4.186   2.709   1.007 -0.4896 -0.3820 -0.1444
   15MOL   H528 8396   4.007   2.575   0.945 -1.8380 -0.5762 -1.5966
   15MOL   H529 8397   3.777   2.686   0.660 -1.3602 -0.1277  1.5061
   15MOL   H530 8398   3.961   2.785   0.571 -0.4133  1.0991  0.8808
   15MOL   H531 8399   4.179   2.910   0.627 -0.4979  0.9303  0.4242
   15MOL   H532 8400   4.367   3.128   0.983  0.0927 -0.0560  0.3488
   15MOL   H533 8401   4.517   3.230   1.125  0.8477  1.0269 -1.2915
   15MOL   C534 8402   3.786   2.510   0.758  0.0353  0.0650  0.3116
   15MOL   C535 8403   3.637   2.489   0.731 -0.8993  0.4670 -0.2577
   15MOL   C536 8404   3.575   2.370   0.774  0.1339 -0.5497 -0.4226
   15MOL   C537 8405   3.444   2.342   0.733 -0.3340  0.3437  0.0819
   15MOL   C538 8406   3.369   2.427   0.650  0.0954 -0.1236 -0.1796
   15MOL   C539 8407   3.232   2.396   0.591  0.2344  0.8593  0.2221
   15MOL   N540 8408   3.181   2.489   0.501  0.1661 -0.0288  0.7203
   15MOL   C541 8409   3.053   2.504   0.448 -0.1181  0.4616 -0.0425
   15MOL   C542 8410   2.965   2.394   0.442 -0.3798 -0.0262  0.0200
   15MOL   C543 8411   2.827   2.420   0.411  0.0941 -1.1035 -0.3895
   15MOL   C544 8412   2.782   2.550   0.361  0.3846 -0.7189 -0.2340
   15MOL   N545 8413   2.656   2.565   0.317 -0.5757  0.3132  0.0871
   15MOL   C546 8414   2.883   2.651   0.363  0.2556  0.0971  0.8060
   15MOL   C547 8415   3.019   2.631   0.399  0.1758  0.1426  0.7500
   15MOL   O548 8416   3.178   2.287   0.615 -0.6415  0.1851  0.1647
   15MOL   C549 8417   3.430   2.544   0.605 -0.5290 -0.1473 -0.3775
   15MOL   C550 8418   3.562   2.578   0.646 -0.0640  0.6963 -0.1823
   15MOL   O551 8419   3.859   2.428   0.816 -0.1617  0.3682  0.2512
   15MOL   H552 8420   3.630   2.297   0.831  0.0737  1.1885  1.9283
   15MOL   H553 8421   3.402   2.244   0.749  1.7567 -0.3083  1.8715
   15MOL   H554 8422   3.257   2.554   0.486 -0.5090  0.4814 -0.6089
   15MOL   H555 8423   2.986   2.291   0.469 -0.2263  0.2329  0.8888
   15MOL   H556 8424   2.760   2.336   0.398  0.2921 -1.5143  1.1827
   15MOL   H557 8425   2.617   2.481   0.278  3.1741 -1.5197  0.0552
   15MOL   H558 8426   2.847   2.744   0.322 -0.5687 -0.1525  0.9465
   15MOL   H559 8427   3.082   2.719   0.399 -0.5432  0.7201  4.8004
   15MOL   H560 8428   3.382   2.617   0.543 -0.1774  2.1886  2.0137
   15MOL   H561 8429   3.609   2.668   0.609  0.9396  0.7381  1.1187
   15MOL   H562 8430   2.645   2.639   0.249 -0.8384  0.3625  0.1851
   16MOL     C1 8431   5.721   7.038   4.872 -0.5183  0.4643  0.0009
   16MOL     C2 8432   5.779   6.934   4.782  0.6740  0.2820 -0.8784
   16MOL     C3 8433   5.764   6.797   4.822 -0.4572  0.3899 -0.0447
   16MOL     C4 8434   5.820   6.695   4.742 -0.5208 -0.3756 -0.3696
   16MOL     C5 8435   5.906   6.733   4.633  0.2951  0.2438 -0.4536
   16MOL     C6 8436   5.962   6.617   4.548 -0.3341  0.0808  0.0125
   16MOL     N7 8437   6.015   6.508   4.615  0.3602  0.1193  0.1195
   16MOL     C8 8438   6.082   6.401   4.551 -0.5127  0.3595 -0.1754
   16MOL     C9 8439   6.044   6.345   4.425  1.3888  0.2407 -0.5442
   16MOL    C10 8440   6.133   6.256   4.364 -0.3786  0.1547  0.1074
   16MOL    C11 8441   6.251   6.206   4.426 -0.7410 -0.0238  0.2986
   16MOL    N12 8442   6.347   6.123   4.355  0.5899 -0.4864  0.1474
   16MOL    C13 8443   6.278   6.255   4.555 -0.3518  0.6484  0.3944
   16MOL    C14 8444   6.197   6.351   4.614 -0.7158 -0.0193 -0.1410
   16MOL    O15 8445   5.965   6.633   4.421 -0.0703  0.4975  0.1266
   16MOL    C16 8446   5.916   6.866   4.596  0.3409  0.3909  0.1432
   16MOL    C17 8447   5.850   6.968   4.669 -0.2934  0.4374 -0.3654
   16MOL    O18 8448   5.683   7.147   4.835  0.0138 -0.1959 -0.4155
   16MOL    H19 8449   5.708   6.767   4.909 -1.6843 -0.4664 -1.1180
   16MOL    H20 8450   5.805   6.589   4.756  0.8878 -0.9289 -2.7399
   16MOL    H21 8451   6.012   6.507   4.716 -1.8561 -2.2348  0.1094
   16MOL    H22 8452   5.955   6.376   4.373 -0.2775 -0.3717  1.8619
   16MOL    H23 8453   6.115   6.210   4.268 -3.5851 -2.0151  1.6527
   16MOL    H24 8454   6.374   6.147   4.260 -0.4404 -0.3410 -0.1184
   16MOL    H25 8455   6.365   6.214   4.605 -0.1580  0.1153 -0.3850
   16MOL    H26 8456   6.225   6.395   4.708 -0.3623 -0.9447  0.1953
   16MOL    H27 8457   5.971   6.884   4.505  1.8410 -1.2790  0.6934
   16MOL    H28 8458   5.846   7.068   4.630 -1.6416  0.5510  0.0399
   16MOL    H29 8459   5.713   7.006   4.976  0.7793  0.8939  0.2472
   16MOL    C30 8460   6.402   6.011   4.401 -0.6346 -0.2577  0.2013
   16MOL    C31 8461   6.332   5.939   4.512 -1.1493 -0.2303 -0.5731
   16MOL    C32 8462   6.196   5.923   4.513  1.1270  0.2075 -0.2427
   16MOL    C33 8463   6.138   5.867   4.632  0.6042 -0.1642 -0.3928
   16MOL    C34 8464   6.212   5.829   4.748  0.0139 -0.1987  0.1073
   16MOL    C35 8465   6.151   5.793   4.880  0.2023  0.5307 -0.6705
   16MOL    N36 8466   6.094   5.896   4.941  0.2700 -0.0075 -0.5038
   16MOL    C37 8467   6.090   5.919   5.084 -0.6016 -1.1892  0.3796
   16MOL    C38 8468   6.183   5.858   5.175 -0.6546 -0.2278  0.2594
   16MOL    C39 8469   6.178   5.886   5.312  0.0037 -0.1874 -0.2579
   16MOL    C40 8470   6.074   5.964   5.366  0.7347 -0.3373 -0.1026
   16MOL    N41 8471   6.043   5.982   5.503 -0.0942 -0.6803  0.3453
   16MOL    C42 8472   5.982   6.020   5.277 -0.2785 -0.0071 -0.3427
   16MOL    C43 8473   5.991   6.001   5.139  0.6013  0.0760 -0.5511
   16MOL    O44 8474   6.167   5.683   4.933 -0.3662  0.3282 -0.2480
   16MOL    C45 8475   6.353   5.837   4.736 -0.0451  0.4403  0.7817
   16MOL    C46 8476   6.408   5.897   4.623 -0.4578  0.3993  0.3272
   16MOL    O47 8477   6.509   5.965   4.359  0.8566  0.1275  0.4280
   16MOL    H48 8478   6.128   5.959   4.437  1.1393  0.9529  0.0987
   16MOL    H49 8479   6.031   5.855   4.648  0.9081 -3.9815 -0.6729
   16MOL    H50 8480   6.064   5.975   4.885  0.1233  0.2720 -0.0344
   16MOL    H51 8481   6.254   5.786   5.137 -1.0801 -0.6130  0.1926
   16MOL    H52 8482   6.249   5.829   5.371 -1.8659 -1.4251  0.8502
   16MOL    H53 8483   5.963   6.036   5.534 -0.3490 -1.9499  1.9754
   16MOL    H54 8484   5.897   6.073   5.317  0.6739  1.5806 -0.3830
   16MOL    H55 8485   5.930   6.060   5.072  0.3500  1.4668  0.8703
   16MOL    H56 8486   6.421   5.811   4.816 -0.7298  0.7576  1.4705
   16MOL    H57 8487   6.513   5.924   4.631 -0.7746  1.7239  0.1858
   16MOL    C58 8488   6.102   5.923   5.607 -0.6250  0.3802  0.2217
   16MOL    C59 8489   6.034   5.938   5.744  0.0537  0.2415 -0.4181
   16MOL    C60 8490   6.105   5.878   5.856  0.2640 -0.0164 -0.1750
   16MOL    C61 8491   6.055   5.895   5.983 -0.4814 -0.2201 -0.0280
   16MOL    C62 8492   5.937   5.967   6.011  0.6877 -0.1667 -0.1536
   16MOL    C63 8493   5.887   5.993   6.150 -0.1787  0.3157  0.2892
   16MOL    N64 8494   5.921   5.898   6.240 -0.4810 -0.4675  0.1582
   16MOL    C65 8495   5.919   5.897   6.379 -0.3329 -0.2197 -0.4275
   16MOL    C66 8496   5.970   5.784   6.444  0.6200  0.2910  0.8048
   16MOL    C67 8497   5.958   5.771   6.581 -0.1142  0.4293 -0.7247
   16MOL    C68 8498   5.923   5.879   6.658 -0.2595  0.1185 -0.4403
   16MOL    N69 8499   5.932   5.873   6.799  0.7332  0.6350 -0.2177
   16MOL    C70 8500   5.877   5.992   6.600  0.4553 -0.2664 -0.8697
   16MOL    C71 8501   5.867   6.002   6.463 -0.1212 -0.1233  0.5780
   16MOL    O72 8502   5.821   6.092   6.180  0.1209 -0.3227  0.5093
   16MOL    C73 8503   5.867   6.027   5.899 -0.7085  0.3205 -0.3005
   16MOL    C74 8504   5.917   6.012   5.771  0.3077 -0.0035 -0.0389
   16MOL    O75 8505   6.219   5.879   5.611 -0.4043  0.4672 -0.0322
   16MOL    H76 8506   6.193   5.821   5.829 -1.1265 -0.3751 -4.3466
   16MOL    H77 8507   6.109   5.840   6.059 -1.6694 -0.1296  0.9075
   16MOL    H78 8508   5.976   5.823   6.200 -1.2024 -1.5626  1.1923
   16MOL    H79 8509   6.017   5.708   6.384  0.4448  1.4412 -0.8295
   16MOL    H80 8510   5.982   5.676   6.627 -0.6220  0.3063 -0.7203
   16MOL    H81 8511   5.890   5.790   6.837  0.6102  0.2418 -1.2089
   16MOL    H82 8512   5.855   6.082   6.656 -3.1533 -0.0736 -2.4301
   16MOL    H83 8513   5.832   6.093   6.418 -0.0132 -0.2156  0.3046
   16MOL    H84 8514   5.781   6.090   5.920 -2.2117 -2.0062  0.7815
   16MOL    H85 8515   5.852   6.053   5.695 -1.3287 -1.1521  0.7123
   16MOL    C86 8516   5.980   5.961   6.891  0.0273  0.1933 -0.4066
   16MOL    C87 8517   5.943   5.947   7.034 -0.4519 -0.5194 -0.6074
   16MOL    C88 8518   6.010   6.020   7.137 -0.0566 -0.7079  0.0744
   16MOL    C89 8519   5.967   6.016   7.272  0.0743  0.3169 -0.3833
   16MOL    C90 8520   5.848   5.944   7.306 -0.0365  0.2286  0.2230
   16MOL    C91 8521   5.799   5.935   7.449  0.6000  0.4950  0.0319
   16MOL    N92 8522   5.853   6.030   7.537  0.2756  0.5145  0.0016
   16MOL    C93 8523   5.854   6.037   7.676  0.0712 -0.3896  0.0304
   16MOL    C94 8524   5.946   6.128   7.736 -0.4299 -0.0083  0.2421
   16MOL    C95 8525   5.969   6.134   7.876  0.0829  0.1738  0.0478
   16MOL    C96 8526   5.884   6.065   7.963  0.4736 -0.7558  0.5754
   16MOL    N97 8527   5.896   6.089   8.103  0.2845  0.3372  0.7535
   16MOL    C98 8528   5.790   5.978   7.907  0.1151 -0.5990 -0.6671
   16MOL    C99 8529   5.776   5.966   7.767 -0.7548  0.9190 -1.0115
   16MOL   O100 8530   5.711   5.852   7.479  0.2118 -0.6349  0.5579
   16MOL   C101 8531   5.778   5.876   7.203 -0.4195  0.0263 -0.2402
   16MOL   C102 8532   5.825   5.879   7.071 -0.0732 -0.5089 -0.1058
   16MOL   O103 8533   6.042   6.063   6.856  0.1713  0.1029 -0.7624
   16MOL   H104 8534   6.102   6.072   7.115  1.3355 -3.1685 -0.1083
   16MOL   H105 8535   6.028   6.060   7.349 -0.4588  1.7602 -0.7807
   16MOL   H106 8536   5.921   6.091   7.494  0.8289 -0.4355 -0.4846
   16MOL   H107 8537   6.019   6.187   7.682 -0.2286 -0.4116  0.0751
   16MOL   H108 8538   6.040   6.207   7.912 -0.4762  1.4869 -1.4432
   16MOL   H109 8539   5.948   6.169   8.137 -0.6487 -0.2228  3.6190
   16MOL   H110 8540   5.722   5.927   7.973 -1.3956  0.8856 -1.0434
   16MOL   H111 8541   5.698   5.901   7.730 -0.6227  0.1421  0.0510
   16MOL   H112 8542   5.687   5.820   7.222  0.6605 -1.2370  1.4004
   16MOL   H113 8543   5.754   5.840   6.999 -0.3920 -1.0528  0.4906
   16MOL   C114 8544   5.858   6.013   0.058  0.4058 -0.3403  0.4638
   16MOL   C115 8545   5.883   6.071   0.197 -0.3446  0.0411  0.5624
   16MOL   C116 8546   5.905   6.209   0.212 -0.9509  0.2284 -0.1686
   16MOL   C117 8547   5.914   6.267   0.342  0.2946 -0.2693  1.3724
   16MOL   C118 8548   5.902   6.181   0.454  1.2290  0.3435 -0.1438
   16MOL   C119 8549   5.909   6.237   0.590 -0.4814 -0.2359  0.2778
   16MOL   N120 8550   5.851   6.158   0.683  0.2746 -0.7014  0.3070
   16MOL   C121 8551   5.842   6.167   0.821  0.4384 -0.1898  0.2095
   16MOL   C122 8552   5.833   6.294   0.887 -0.0021  0.1744  0.6739
   16MOL   C123 8553   5.806   6.290   1.029  0.3449 -0.5343  0.3553
   16MOL   C124 8554   5.781   6.165   1.094  0.1104  0.3078 -0.6302
   16MOL   N125 8555   5.736   6.159   1.227 -0.1084  0.1032  0.3679
   16MOL   C126 8556   5.801   6.045   1.030  0.4728 -0.7129  0.2893
   16MOL   C127 8557   5.838   6.050   0.897  0.4614  0.0448  0.0392
   16MOL   O128 8558   5.957   6.350   0.611 -0.7582 -0.1058  0.3498
   16MOL   C129 8559   5.893   6.042   0.439  0.5029  0.4317  0.1309
   16MOL   C130 8560   5.886   5.986   0.309 -0.8206 -0.3709  0.0004
   16MOL   O131 8561   5.813   5.893   0.051 -0.1824 -0.6934 -0.5604
   16MOL   H132 8562   5.901   6.272   0.124  1.4773  1.0258  0.2606
   16MOL   H133 8563   5.908   6.373   0.358 -0.9012  0.0854 -1.2681
   16MOL   H134 8564   5.805   6.080   0.641 -1.4319  0.3857  0.1217
   16MOL   H135 8565   5.841   6.391   0.841  1.7421  0.1855  0.9876
   16MOL   H136 8566   5.795   6.385   1.079  0.9097 -0.4913  0.3998
   16MOL   H137 8567   5.797   6.211   1.288 -0.6023 -0.0898  1.0288
   16MOL   H138 8568   5.790   5.956   1.090 -0.1588  0.1554  1.4740
   16MOL   H139 8569   5.842   5.950   0.856 -2.5672 -1.1681  2.5390
   16MOL   H140 8570   5.875   5.976   0.523  1.6488 -0.2015 -0.0970
   16MOL   H141 8571   5.866   5.880   0.302 -0.9971 -0.4232  1.1458
   16MOL   C142 8572   5.611   6.115   1.277 -0.0026  0.2329  0.0217
   16MOL   C143 8573   5.518   6.061   1.175  0.3671 -0.2557 -0.1109
   16MOL   C144 8574   5.442   6.147   1.088 -0.2699  0.4628 -0.0002
   16MOL   C145 8575   5.373   6.088   0.980  1.3551 -0.3994 -0.5858
   16MOL   C146 8576   5.359   5.949   0.969 -0.1706  0.3161 -0.4189
   16MOL   C147 8577   5.286   5.884   0.856  1.1238 -0.3896  0.1005
   16MOL   N148 8578   5.283   5.958   0.741  0.3371 -0.0319  0.0911
   16MOL   C149 8579   5.210   5.938   0.623 -0.1468  0.0997 -0.0220
   16MOL   C150 8580   5.188   6.042   0.536  0.1460 -0.3088 -0.2308
   16MOL   C151 8581   5.120   6.020   0.410  0.2400 -0.4189 -0.6400
   16MOL   C152 8582   5.099   5.891   0.364 -0.4745  0.4247  0.2135
   16MOL   N153 8583   5.055   5.862   0.230  0.2842  0.1584  0.1464
   16MOL   C154 8584   5.134   5.783   0.453  0.3109  0.5789  0.0635
   16MOL   C155 8585   5.182   5.804   0.582 -0.3941 -0.3205 -0.7093
   16MOL   O156 8586   5.233   5.774   0.866 -0.5351 -0.0600 -0.3279
   16MOL   C157 8587   5.416   5.866   1.064 -0.0937  1.0934 -0.2491
   16MOL   C158 8588   5.497   5.921   1.166 -0.4914  0.0979 -0.5677
   16MOL   O159 8589   5.594   6.110   1.398 -0.0461  0.0212  0.7728
   16MOL   H160 8590   5.458   6.253   1.105  2.1776  0.0817  0.2712
   16MOL   H161 8591   5.318   6.153   0.912  0.2126  0.1863  0.8643
   16MOL   H162 8592   5.336   6.043   0.751  0.1047  0.2405 -1.0210
   16MOL   H163 8593   5.218   6.143   0.561  1.8592 -0.9410  0.2563
   16MOL   H164 8594   5.095   6.102   0.345 -1.0372 -1.4713 -1.5125
   16MOL   H165 8595   4.980   5.795   0.221  0.2198  0.0308  1.5115
   16MOL   H166 8596   5.118   5.685   0.411 -1.1773  0.7406  0.1942
   16MOL   H167 8597   5.204   5.719   0.644 -3.0215 -0.1417  0.5028
   16MOL   H168 8598   5.406   5.759   1.060  0.3679  1.0361  0.1739
   16MOL   H169 8599   5.537   5.855   1.241 -1.9121 -2.1592 -1.7605
   16MOL   C170 8600   5.094   5.923   0.118  0.4487  0.7507 -0.4643
   16MOL   C171 8601   5.040   5.883   8.132 -0.2786  0.1384 -0.2224
   16MOL   C172 8602   4.903   5.842   8.123 -0.6520  0.8915 -0.4650
   16MOL   C173 8603   4.851   5.809   7.992 -1.3321 -0.1914  0.1048
   16MOL   C174 8604   4.933   5.831   7.880  0.5720  0.4199  0.2745
   16MOL   C175 8605   4.883   5.791   7.741  0.6578 -0.3988 -0.2958
   16MOL   N176 8606   4.941   5.852   7.638  0.1223  0.0519 -0.3830
   16MOL   C177 8607   4.906   5.843   7.501 -0.6643 -0.3820  0.1824
   16MOL   C178 8608   4.898   5.961   7.423  0.2237 -0.2203 -0.4664
   16MOL   C179 8609   4.873   5.949   7.285  0.4022  0.3570 -0.1229
   16MOL   C180 8610   4.838   5.825   7.227 -0.3762 -0.1961  0.1075
   16MOL   N181 8611   4.809   5.803   7.089  0.0133 -0.1244 -0.2460
   16MOL   C182 8612   4.835   5.707   7.309 -0.4154  0.1194 -0.2151
   16MOL   C183 8613   4.860   5.722   7.446  0.2543  1.3508 -0.5609
   16MOL   O184 8614   4.791   5.716   7.742  0.0025  0.4739  0.3719
   16MOL   C185 8615   5.066   5.883   7.890  0.5269 -0.6013 -0.2321
   16MOL   C186 8616   5.116   5.915   8.016  1.0794 -0.4237 -0.3997
   16MOL   O187 8617   5.187   5.998   0.125 -0.1246  0.5888  0.1036
   16MOL   H188 8618   4.838   5.823   0.061  0.0295  1.6138  0.2352
   16MOL   H189 8619   4.754   5.764   7.976 -0.7049 -2.3699  2.0215
   16MOL   H190 8620   4.996   5.933   7.661  1.0199 -0.5914 -0.2293
   16MOL   H191 8621   4.922   6.060   7.458  1.5897 -0.7610  0.1759
   16MOL   H192 8622   4.876   6.036   7.220 -0.3770  1.5602  1.4065
   16MOL   H193 8623   4.854   5.858   7.017  0.5170 -0.5234 -0.2438
   16MOL   H194 8624   4.817   5.609   7.267 -0.3691 -0.6338  1.4878
   16MOL   H195 8625   4.854   5.630   7.502 -1.1725  1.7084 -0.1038
   16MOL   H196 8626   5.135   5.895   7.807 -0.5712 -0.7422 -1.1766
   16MOL   H197 8627   5.218   5.950   8.024  0.6288  1.5293 -2.6637
   16MOL   C198 8628   4.702   5.743   7.035  0.3743 -0.2144 -0.2551
   16MOL   C199 8629   4.687   5.762   6.889 -0.4006  0.1844  0.3319
   16MOL   C200 8630   4.732   5.879   6.830  0.0267  0.0484  0.2303
   16MOL   C201 8631   4.712   5.904   6.692  0.1704  0.2202  0.3225
   16MOL   C202 8632   4.628   5.819   6.620 -0.3818  0.0463 -0.7042
   16MOL   C203 8633   4.602   5.847   6.474 -0.3450  0.1649 -0.1298
   16MOL   N204 8634   4.546   5.745   6.401  0.1544 -0.3316 -0.1618
   16MOL   C205 8635   4.494   5.732   6.266  0.1922 -0.4845 -0.4595
   16MOL   C206 8636   4.527   5.827   6.172 -0.0654  0.1971  0.2230
   16MOL   C207 8637   4.465   5.820   6.047  0.3200  0.4093  0.4258
   16MOL   C208 8638   4.378   5.713   6.008  0.8856 -0.5149  0.1617
   16MOL   N209 8639   4.325   5.707   5.875 -0.1107 -0.4654 -0.1696
   16MOL   C210 8640   4.357   5.613   6.098  0.3686  0.3315 -0.0416
   16MOL   C211 8641   4.419   5.621   6.226  0.8276  0.4429 -0.6188
   16MOL   O212 8642   4.609   5.964   6.433  0.6134 -0.1778 -0.4524
   16MOL   C213 8643   4.570   5.700   6.682  0.4508  0.5775  0.0676
   16MOL   C214 8644   4.599   5.677   6.818 -1.0483 -0.2829  0.4154
   16MOL   O215 8645   4.624   5.670   7.097  0.0251 -0.2055 -0.0533
   16MOL   H216 8646   4.801   5.940   6.887  0.0891  0.4426 -0.2635
   16MOL   H217 8647   4.759   5.990   6.646  0.8203  0.8130  2.0204
   16MOL   H218 8648   4.543   5.665   6.463 -0.1240  0.5796  1.0065
   16MOL   H219 8649   4.598   5.907   6.191  1.4688 -1.8749  3.4981
   16MOL   H220 8650   4.483   5.904   5.981  1.2337 -0.1263 -0.0082
   16MOL   H221 8651   4.249   5.641   5.865  0.6009 -1.2867 -0.1932
   16MOL   H222 8652   4.287   5.536   6.070  0.9283 -0.4361  0.6223
   16MOL   H223 8653   4.397   5.545   6.300 -0.5658 -1.2970 -2.7572
   16MOL   H224 8654   4.529   5.623   6.619 -0.5558  1.9542 -0.9890
   16MOL   H225 8655   4.556   5.589   6.864  0.8111 -2.5068 -1.9487
   16MOL   C226 8656   4.377   5.762   5.767 -0.4376 -0.4501 -0.1182
   16MOL   C227 8657   4.294   5.726   5.646  0.1484 -0.2374 -0.9532
   16MOL   C228 8658   4.247   5.834   5.565  0.1139  0.9583  1.0680
   16MOL   C229 8659   4.179   5.798   5.446  0.5456  0.5845 -0.0562
   16MOL   C230 8660   4.149   5.658   5.413 -0.1114  1.3373 -0.2223
   16MOL   C231 8661   4.066   5.628   5.293  0.0170 -0.2383  0.5732
   16MOL   N232 8662   4.003   5.511   5.299 -0.5400 -0.3079 -0.9630
   16MOL   C233 8663   3.904   5.461   5.212 -0.3584 -0.1687 -0.2783
   16MOL   C234 8664   3.843   5.341   5.253 -0.0096 -0.3913  0.5458
   16MOL   C235 8665   3.741   5.288   5.171 -0.1661 -0.9251 -0.1972
   16MOL   C236 8666   3.704   5.344   5.044  0.0557  0.8702 -0.1429
   16MOL   N237 8667   3.613   5.282   4.950  0.0179 -1.1336 -0.1304
   16MOL   C238 8668   3.754   5.477   5.019 -0.5567  0.1641  0.2784
   16MOL   C239 8669   3.857   5.530   5.095  0.0555  0.3684 -0.2870
   16MOL   O240 8670   4.052   5.713   5.202 -0.0208  0.3003  0.0851
   16MOL   C241 8671   4.200   5.558   5.496  0.1764  0.3481  0.2061
   16MOL   C242 8672   4.276   5.593   5.611  0.0814  0.0251  0.0509
   16MOL   O243 8673   4.488   5.815   5.760  0.2834  0.7120 -0.6976
   16MOL   H244 8674   4.265   5.937   5.592  1.0345  0.4329  2.5363
   16MOL   H245 8675   4.123   5.871   5.388 -0.6815 -2.1660 -2.4720
   16MOL   H246 8676   4.014   5.459   5.385  1.2228 -0.4991 -1.2866
   16MOL   H247 8677   3.874   5.288   5.342  1.0163 -0.7179  0.0047
   16MOL   H248 8678   3.703   5.189   5.194  0.6723 -0.8802  1.3773
   16MOL   H249 8679   3.595   5.332   4.864 -0.6217 -2.7813 -0.9795
   16MOL   H250 8680   3.716   5.528   4.932 -0.1093 -3.1513 -1.9662
   16MOL   H251 8681   3.890   5.630   5.072 -1.7732  0.3995 -2.9789
   16MOL   H252 8682   4.173   5.454   5.483 -2.1316  1.0440 -0.8782
   16MOL   H253 8683   4.318   5.524   5.682  0.1623  0.5539  0.5163
   16MOL   C254 8684   3.561   5.157   4.937  0.7127  0.3707 -0.3722
   16MOL   C255 8685   3.449   5.151   4.836  0.4017  0.4920 -0.7910
   16MOL   C256 8686   3.360   5.261   4.824  0.5157  0.1362  0.2566
   16MOL   C257 8687   3.245   5.251   4.746  0.6511 -0.4168  0.7030
   16MOL   C258 8688   3.224   5.139   4.662 -0.0351  0.5430  0.4137
   16MOL   C259 8689   3.116   5.135   4.559 -0.3652  0.3885 -0.2914
   16MOL   N260 8690   3.098   5.016   4.483  0.2629  0.0509  0.0412
   16MOL   C261 8691   3.000   5.008   4.376  0.2982  0.1241  0.4965
   16MOL   C262 8692   3.031   4.930   4.261 -0.3613  0.1687  0.7799
   16MOL   C263 8693   2.939   4.927   4.158  0.2813 -0.6237 -0.2858
   16MOL   C264 8694   2.813   4.993   4.168 -0.0382 -0.4314 -0.2304
   16MOL   N265 8695   2.707   4.997   4.062  0.0616 -0.3219  0.1366
   16MOL   C266 8696   2.784   5.061   4.281  0.1964 -0.0748 -0.7943
   16MOL   C267 8697   2.874   5.072   4.391  0.3709 -0.1255 -0.3753
   16MOL   O268 8698   3.055   5.236   4.533  0.4936 -0.5072 -0.0068
   16MOL   C269 8699   3.315   5.029   4.672  0.1663  0.0582 -0.1027
   16MOL   C270 8700   3.421   5.033   4.767  0.1681 -0.2783 -0.0867
   16MOL   O271 8701   3.590   5.056   5.003  0.0715  0.4387 -0.3466
   16MOL   H272 8702   3.377   5.335   4.901  0.5647  0.4996 -0.1038
   16MOL   H273 8703   3.179   5.336   4.736  2.2886  0.5552 -2.6182
   16MOL   H274 8704   3.174   4.950   4.479 -1.2686 -1.6688 -2.5052
   16MOL   H275 8705   3.131   4.888   4.253 -0.0701  1.2360 -1.4165
   16MOL   H276 8706   2.968   4.884   4.063  1.6733  1.6034 -0.9088
   16MOL   H277 8707   2.639   5.070   4.077  0.4692  0.2706 -0.8841
   16MOL   H278 8708   2.690   5.113   4.294  0.4848  0.0151  1.0807
   16MOL   H279 8709   2.856   5.134   4.478 -0.4921  0.5142 -1.0065
   16MOL   H280 8710   3.306   4.944   4.606 -1.2178  1.2006 -1.4080
   16MOL   H281 8711   3.487   4.948   4.772  0.5163 -0.0158 -0.2737
   16MOL   C282 8712   2.668   4.889   3.999  0.2542  0.2454  0.6964
   16MOL   C283 8713   2.528   4.905   3.942 -0.0670 -0.0507 -0.5124
   16MOL   C284 8714   2.436   4.987   4.002 -0.3215 -0.5117 -0.4564
   16MOL   C285 8715   2.311   5.009   3.947 -0.4356 -0.2411 -0.4910
   16MOL   C286 8716   2.275   4.944   3.825  0.4212  0.0755  0.1162
   16MOL   C287 8717   2.137   4.970   3.770 -0.4949  0.7043  0.2714
   16MOL   N288 8718   2.138   5.036   3.655  0.1756 -0.0441 -0.4217
   16MOL   C289 8719   2.028   5.096   3.591  0.0686 -0.0484 -0.0992
   16MOL   C290 8720   1.921   5.156   3.653 -0.0204 -0.2293 -0.0141
   16MOL   C291 8721   1.812   5.201   3.582 -0.1434 -0.9940  0.0488
   16MOL   C292 8722   1.814   5.198   3.442  0.1172  0.1323  0.3785
   16MOL   N293 8723   1.707   5.235   3.354 -0.1718  0.7508 -0.3969
   16MOL   C294 8724   1.923   5.143   3.375  0.0893  0.0873  0.0351
   16MOL   C295 8725   2.028   5.082   3.450  0.1776  0.0394 -0.5267
   16MOL   O296 8726   2.036   4.954   3.840 -0.6331  0.1132  0.4756
   16MOL   C297 8727   2.366   4.852   3.763  0.4500  0.3571  0.4298
   16MOL   C298 8728   2.490   4.834   3.823 -0.3478 -0.3154  0.1720
   16MOL   O299 8729   2.734   4.783   4.000 -0.5124 -0.2997  0.6427
   16MOL   H300 8730   2.467   5.028   4.098 -0.6676 -1.9264  0.2691
   16MOL   H301 8731   2.244   5.076   3.998  0.3910  0.3645 -0.2012
   16MOL   H302 8732   2.224   5.020   3.605 -0.1219  1.1402 -1.3200
   16MOL   H303 8733   1.929   5.165   3.761 -1.3813  0.5265  0.0418
   16MOL   H304 8734   1.735   5.246   3.644  2.4042  0.0467  2.5630
   16MOL   H305 8735   1.724   5.264   3.259  2.1829  0.6818 -0.0044
   16MOL   H306 8736   1.916   5.147   3.267 -0.5347 -0.4577  0.0460
   16MOL   H307 8737   2.112   5.035   3.400  0.6665  1.8454 -1.4364
   16MOL   H308 8738   2.340   4.803   3.670  0.5464 -1.9446  1.5651
   16MOL   H309 8739   2.558   4.763   3.777 -1.2940 -1.4940  0.5570
   16MOL   C310 8740   1.574   5.231   3.383  0.4585  0.8587 -0.3328
   16MOL   C311 8741   1.469   5.270   3.280  0.3234  0.1182 -0.0825
   16MOL   C312 8742   1.515   5.354   3.176 -0.1879  0.6023  0.1541
   16MOL   C313 8743   1.416   5.397   3.078 -0.6035  0.4154  0.1496
   16MOL   C314 8744   1.281   5.356   3.076 -1.0118 -0.2831  0.6324
   16MOL   C315 8745   1.185   5.388   2.964 -0.3889 -0.2832  1.0095
   16MOL   N316 8746   1.239   5.360   2.845 -0.1944 -0.0661 -0.4531
   16MOL   C317 8747   1.215   5.404   2.717 -0.3444 -0.0268 -0.0803
   16MOL   C318 8748   1.088   5.458   2.677 -0.1659  0.0510  0.3956
   16MOL   C319 8749   1.081   5.501   2.542 -0.9607  0.7082  0.0683
   16MOL   C320 8750   1.195   5.490   2.453 -0.7244  0.3628  0.8890
   16MOL   N321 8751   1.189   5.531   2.317  0.5064  0.2135 -0.3459
   16MOL   C322 8752   1.321   5.443   2.501 -0.0071 -0.0755 -0.5474
   16MOL   C323 8753   1.325   5.391   2.631  0.2002  0.3125  0.4874
   16MOL   O324 8754   1.069   5.430   2.996 -0.4094  0.2734  0.5298
   16MOL   C325 8755   1.244   5.265   3.176 -0.6547  0.1295 -0.2721
   16MOL   C326 8756   1.337   5.217   3.279  0.0409  0.2705 -0.3121
   16MOL   O327 8757   1.543   5.195   3.496 -0.1309 -0.7414  0.3135
   16MOL   H328 8758   1.620   5.373   3.157 -0.5715  1.7643 -0.8807
   16MOL   H329 8759   1.452   5.456   2.995  1.0069 -1.0809 -0.2334
   16MOL   H330 8760   1.330   5.319   2.858  0.1097  0.6413 -0.3386
   16MOL   H331 8761   1.004   5.465   2.743 -1.6542 -0.7384 -1.3590
   16MOL   H332 8762   0.982   5.526   2.509 -1.0269  1.4188  0.7811
   16MOL   H333 8763   1.268   5.585   2.286 -0.8413  0.1078 -4.2302
   16MOL   H334 8764   1.406   5.429   2.436  0.9062 -0.5051  0.7246
   16MOL   H335 8765   1.418   5.351   2.669  0.3319  1.5161  1.4391
   16MOL   H336 8766   1.145   5.221   3.176  0.4348 -2.5170 -2.9950
   16MOL   H337 8767   1.296   5.145   3.348  0.2356 -0.2137 -0.6978
   16MOL   C338 8768   1.101   5.505   2.218  0.4253 -0.5353 -0.1549
   16MOL   C339 8769   1.158   5.548   2.087  0.1315  0.1098  0.4188
   16MOL   C340 8770   1.266   5.477   2.029  0.5424 -0.6286 -0.0940
   16MOL   C341 8771   1.313   5.510   1.905  0.0604 -0.4399  0.1379
   16MOL   C342 8772   1.265   5.628   1.838  0.4790 -0.0673 -0.0414
   16MOL   C343 8773   1.325   5.667   1.707  0.0176  0.1834  0.3022
   16MOL   N344 8774   1.279   5.784   1.655  0.0443  0.1999  0.1797
   16MOL   C345 8775   1.321   5.860   1.534 -0.1350 -0.4972 -0.0852
   16MOL   C346 8776   1.450   5.844   1.478 -0.5621 -0.6337  0.2106
   16MOL   C347 8777   1.486   5.906   1.360  0.7638 -0.0504  1.0399
   16MOL   C348 8778   1.388   5.980   1.293  0.3325 -0.5320  0.8174
   16MOL   N349 8779   1.425   6.033   1.165 -0.0257 -0.2453  0.1017
   16MOL   C350 8780   1.263   5.997   1.350  0.3336  0.3495  0.2119
   16MOL   C351 8781   1.224   5.950   1.475 -1.1499 -0.2085  0.3787
   16MOL   O352 8782   1.420   5.600   1.652 -0.4072 -0.9342  0.1996
   16MOL   C353 8783   1.169   5.711   1.900 -0.4935 -0.3895 -0.1749
   16MOL   C354 8784   1.109   5.667   2.025  0.1648 -0.2042 -0.3521
   16MOL   O355 8785   0.985   5.461   2.228  0.2196 -0.2096 -0.1108
   16MOL   H356 8786   1.299   5.397   2.094  1.9589  0.2621  0.3241
   16MOL   H357 8787   1.386   5.449   1.854 -2.0604 -3.5594  0.7284
   16MOL   H358 8788   1.201   5.824   1.706 -0.6764 -1.3846  0.3276
   16MOL   H359 8789   1.524   5.791   1.535  0.7207  0.3471 -0.4990
   16MOL   H360 8790   1.589   5.896   1.327  0.3076  0.0500 -0.4776
   16MOL   H361 8791   1.518   6.011   1.130 -0.0099 -0.9471  0.5713
   16MOL   H362 8792   1.193   6.064   1.303  1.1431  1.6381  0.8313
   16MOL   H363 8793   1.123   5.966   1.512 -1.3066  0.7209 -0.4497
   16MOL   H364 8794   1.136   5.803   1.853  0.0946 -0.7236 -1.2616
   16MOL   H365 8795   1.026   5.721   2.067  0.8412  1.1519 -0.7279
   16MOL   C366 8796   1.376   6.127   1.086 -0.0271  0.3727 -0.3071
   16MOL   C367 8797   1.250   6.205   1.122  0.2254 -0.1024  0.4723
   16MOL   C368 8798   1.120   6.176   1.078 -0.4712  0.1746  0.8607
   16MOL   C369 8799   1.011   6.254   1.111 -0.0697  0.2170  0.5726
   16MOL   C370 8800   1.033   6.375   1.189  0.3428  0.3703 -0.6461
   16MOL   C371 8801   0.914   6.470   1.228  0.4316  0.4639  0.3659
   16MOL   N372 8802   0.957   6.563   1.318  0.2367  0.6293  0.0129
   16MOL   C373 8803   0.886   6.674   1.367  0.9035  0.2132 -0.0337
   16MOL   C374 8804   0.900   6.702   1.504 -0.6430  0.1778  0.3858
   16MOL   C375 8805   0.838   6.810   1.570 -0.3141  0.5333 -0.4167
   16MOL   C376 8806   0.779   6.908   1.488  0.9954  0.2273 -0.4055
   16MOL   N377 8807   0.736   7.029   1.550 -0.6168  0.1932  0.1644
   16MOL   C378 8808   0.752   6.878   1.353  0.2825  0.3748 -0.1833
   16MOL   C379 8809   0.798   6.763   1.296  0.5539 -0.2267  0.1116
   16MOL   O380 8810   0.804   6.466   1.183  0.1080 -0.1688 -0.5574
   16MOL   C381 8811   1.168   6.410   1.231 -0.2686  0.0218 -0.4000
   16MOL   C382 8812   1.274   6.321   1.200 -0.3070  0.2852  0.7620
   16MOL   O383 8813   1.432   6.150   0.984 -0.0577 -0.4258 -0.0106
   16MOL   H384 8814   1.106   6.089   1.016 -0.0732 -0.1222  1.1817
   16MOL   H385 8815   0.920   6.239   1.054  1.4541 -0.5945 -1.7077
   16MOL   H386 8816   1.044   6.549   1.366 -0.2442  0.9465  0.9757
   16MOL   H387 8817   0.965   6.638   1.562 -0.1692  1.1064  0.9071
   16MOL   H388 8818   0.839   6.822   1.677  1.3570  0.9334 -0.4550
   16MOL   H389 8819   0.658   7.076   1.507  0.4172 -0.5527 -2.6275
   16MOL   H390 8820   0.689   6.947   1.299  0.8655  0.9849 -0.0840
   16MOL   H391 8821   0.774   6.734   1.195  1.2635 -1.3224  0.2441
   16MOL   H392 8822   1.183   6.498   1.291  0.6277 -0.3716 -0.0347
   16MOL   H393 8823   1.373   6.338   1.240 -0.5747 -1.7689  2.3476
   16MOL   C394 8824   0.801   7.105   1.645  0.1244 -0.2858  0.3936
   16MOL   C395 8825   0.948   7.073   1.689  0.2080  0.5603  0.5110
   16MOL   C396 8826   0.989   7.081   1.826  0.0320  0.2151  0.2538
   16MOL   C397 8827   1.123   7.050   1.861  0.2704  0.2169  0.2813
   16MOL   C398 8828   1.210   6.990   1.771 -0.0981  0.1189 -0.0107
   16MOL   C399 8829   1.343   6.934   1.816  0.2883 -0.8313 -1.0138
   16MOL   N400 8830   1.431   6.900   1.722 -0.6368  0.2045 -0.2496
   16MOL   C401 8831   1.569   6.860   1.740 -0.3396  0.6146 -0.1001
   16MOL   C402 8832   1.660   6.888   1.638  0.2764 -0.5257 -0.1630
   16MOL   C403 8833   1.790   6.838   1.643  0.1631 -0.5288  0.3554
   16MOL   C404 8834   1.833   6.753   1.744 -0.2831  0.5874 -0.4421
   16MOL   N405 8835   1.962   6.695   1.742 -0.2074 -0.5265  0.6046
   16MOL   C406 8836   1.751   6.732   1.853  0.2072  0.1898 -0.1283
   16MOL   C407 8837   1.614   6.782   1.853 -0.1096  0.1898  0.3631
   16MOL   O408 8838   1.365   6.918   1.935  0.9331 -0.0487 -0.0456
   16MOL   C409 8839   1.172   6.980   1.631 -0.2540 -0.3672 -0.3116
   16MOL   C410 8840   1.043   7.030   1.593 -0.7596  0.3245  0.0419
   16MOL   O411 8841   0.754   7.205   1.690  0.4012  0.5267  0.2830
   16MOL   H412 8842   0.913   7.111   1.897 -0.2672 -0.2608  0.1373
   16MOL   H413 8843   1.153   7.052   1.965 -1.1138  0.2628  0.6877
   16MOL   H414 8844   1.406   6.916   1.625  2.9068  0.2940 -1.2097
   16MOL   H415 8845   1.626   6.942   1.552  1.5545 -1.1802 -1.0949
   16MOL   H416 8846   1.854   6.864   1.560  0.1299  1.6378  0.9928
   16MOL   H417 8847   1.993   6.640   1.821  2.3442 -2.4508 -1.6562
   16MOL   H418 8848   1.787   6.666   1.930 -2.8523  0.6256  1.7984
   16MOL   H419 8849   1.549   6.753   1.935  1.4359 -0.6963  1.2956
   16MOL   H420 8850   1.238   6.922   1.567  1.3044 -2.5016  3.1173
   16MOL   H421 8851   1.005   7.005   1.495  0.2963 -2.8353  0.3947
   16MOL   C422 8852   2.049   6.687   1.640  0.2240  0.4822 -0.1149
   16MOL   C423 8853   2.180   6.631   1.687  0.3715  0.4531  1.0377
   16MOL   C424 8854   2.270   6.585   1.589  0.0606  0.1504  0.6187
   16MOL   C425 8855   2.400   6.541   1.619 -0.6808 -0.6724  0.5318
   16MOL   C426 8856   2.438   6.544   1.758  0.8576 -0.1178 -0.0872
   16MOL   C427 8857   2.572   6.491   1.804 -0.4171 -0.1805  0.0041
   16MOL   N428 8858   2.653   6.436   1.708  0.2601  0.8550  0.1274
   16MOL   C429 8859   2.774   6.362   1.729 -0.4980  0.1315 -0.7878
   16MOL   C430 8860   2.881   6.409   1.811 -0.0519  0.3299  0.0137
   16MOL   C431 8861   2.996   6.334   1.819 -0.4248  0.2017 -0.0331
   16MOL   C432 8862   3.000   6.200   1.774 -0.2339  0.1975  0.7590
   16MOL   N433 8863   3.108   6.108   1.810 -0.1289  0.1093  0.3770
   16MOL   C434 8864   2.897   6.155   1.692 -0.0357 -0.0578 -0.3703
   16MOL   C435 8865   2.783   6.237   1.666 -0.2004  0.4241  1.0531
   16MOL   O436 8866   2.605   6.485   1.923  0.7159  0.4130  0.2415
   16MOL   C437 8867   2.353   6.598   1.854 -0.3918 -0.2852 -0.1079
   16MOL   C438 8868   2.223   6.631   1.817 -0.3141 -0.4024 -0.2706
   16MOL   O439 8869   2.036   6.720   1.524  0.6087 -0.2406  0.0899
   16MOL   H440 8870   2.233   6.591   1.488  0.3701  2.3964  0.6328
   16MOL   H441 8871   2.468   6.509   1.542 -0.2943 -1.2013  1.0891
   16MOL   H442 8872   2.616   6.448   1.615  1.0516  1.1960 -0.1452
   16MOL   H443 8873   2.879   6.508   1.854 -2.5340 -0.6472  2.2852
   16MOL   H444 8874   3.076   6.366   1.883 -1.0189  0.9468  0.3380
   16MOL   H445 8875   3.086   6.011   1.794 -2.6043  0.4884  1.2662
   16MOL   H446 8876   2.899   6.052   1.658  0.2114 -0.5065  0.9931
   16MOL   H447 8877   2.700   6.195   1.612  1.1205 -0.0005 -0.6969
   16MOL   H448 8878   2.381   6.610   1.958 -0.3024 -2.3203  0.1119
   16MOL   H449 8879   2.162   6.685   1.888 -1.0775  0.2213 -1.3736
   16MOL   C450 8880   3.203   6.132   1.901  0.2716 -0.2232  1.0767
   16MOL   C451 8881   3.248   6.003   1.972  0.8152  0.1410  0.5359
   16MOL   C452 8882   3.380   5.985   2.024 -0.3448  0.8373  0.4454
   16MOL   C453 8883   3.419   5.867   2.088 -0.0154  0.1918  0.4429
   16MOL   C454 8884   3.324   5.762   2.106  0.0331  0.2862 -0.2271
   16MOL   C455 8885   3.363   5.642   2.184 -0.5435  0.1805  0.5715
   16MOL   N456 8886   3.268   5.546   2.201  0.2218 -0.1623  0.7033
   16MOL   C457 8887   3.251   5.432   2.277  0.1898 -0.6232 -0.4665
   16MOL   C458 8888   3.130   5.362   2.268 -0.5055 -0.4244  1.1135
   16MOL   C459 8889   3.110   5.244   2.339  0.5121  0.1185 -0.0581
   16MOL   C460 8890   3.216   5.189   2.416  0.0294 -0.7169  0.0259
   16MOL   N461 8891   3.204   5.064   2.481  0.0584  0.2587 -1.4025
   16MOL   C462 8892   3.344   5.254   2.423 -0.1455 -0.6573 -0.4451
   16MOL   C463 8893   3.360   5.378   2.353 -0.8306  0.1253 -0.0818
   16MOL   O464 8894   3.476   5.632   2.232  0.3462  0.1819  0.0854
   16MOL   C465 8895   3.195   5.780   2.051  0.0966 -0.0019  0.4797
   16MOL   C466 8896   3.158   5.896   1.983  0.0892  0.6885 -0.0756
   16MOL   O467 8897   3.256   6.239   1.931 -0.2065 -0.3936  0.0678
   16MOL   H468 8898   3.459   6.056   2.010 -1.1070  1.7247  0.5699
   16MOL   H469 8899   3.522   5.871   2.118  0.0610 -1.1096  0.3684
   16MOL   H470 8900   3.190   5.580   2.147  1.2946 -0.1086 -0.8514
   16MOL   H471 8901   3.056   5.386   2.194  1.0304  0.2746 -0.2185
   16MOL   H472 8902   3.013   5.197   2.326 -0.2304  1.4791  0.4957
   16MOL   H473 8903   3.272   5.038   2.551  0.5243 -0.2871 -2.0502
   16MOL   H474 8904   3.432   5.225   2.479 -1.3362  0.8116  2.2933
   16MOL   H475 8905   3.455   5.427   2.365 -2.0502  2.5325  0.0334
   16MOL   H476 8906   3.122   5.707   2.084 -0.2082  1.2981  2.8070
   16MOL   H477 8907   3.056   5.905   1.946 -0.2450 -0.2703  0.5791
   16MOL   C478 8908   3.121   4.966   2.446  0.3286  0.2214  0.4934
   16MOL   C479 8909   3.129   4.842   2.523 -0.9522 -0.1295 -1.0591
   16MOL   C480 8910   3.102   4.724   2.454  0.0093 -0.2122  0.0745
   16MOL   C481 8911   3.088   4.603   2.522 -0.0382 -0.0172 -0.0193
   16MOL   C482 8912   3.093   4.604   2.664 -0.3385 -0.6219  0.4423
   16MOL   C483 8913   3.041   4.489   2.737 -0.9563  0.0664 -0.7070
   16MOL   N484 8914   2.984   4.397   2.654 -0.0205 -0.5438 -0.1119
   16MOL   C485 8915   2.920   4.277   2.695 -0.6318  0.1750 -0.1600
   16MOL   C486 8916   2.901   4.182   2.592  0.1064  0.6935  0.0288
   16MOL   C487 8917   2.833   4.060   2.615 -0.4329 -0.3844 -0.0981
   16MOL   C488 8918   2.785   4.031   2.743  0.2172  0.0684 -0.3842
   16MOL   N489 8919   2.722   3.912   2.787 -0.0764  0.4615 -0.4395
   16MOL   C490 8920   2.812   4.117   2.850  0.0851 -0.0201  0.0810
   16MOL   C491 8921   2.866   4.244   2.820 -0.0757  0.2141 -0.1547
   16MOL   O492 8922   3.047   4.487   2.858  0.4097  0.1298  0.3986
   16MOL   C493 8923   3.119   4.724   2.734 -0.8298  0.2194 -0.4751
   16MOL   C494 8924   3.149   4.842   2.668 -0.1334  0.1175  0.0484
   16MOL   O495 8925   3.044   4.967   2.350 -0.3611 -0.6257  0.3906
   16MOL   H496 8926   3.117   4.726   2.347 -1.3315  0.9155 -0.0960
   16MOL   H497 8927   3.085   4.514   2.462 -0.2876  0.8330 -1.2889
   16MOL   H498 8928   2.988   4.420   2.556 -0.3885  1.0012  0.2149
   16MOL   H499 8929   2.952   4.214   2.502 -0.5485 -0.6545 -0.8446
   16MOL   H500 8930   2.819   3.990   2.534 -2.3210  1.0557 -1.0646
   16MOL   H501 8931   2.720   3.910   2.888  0.3242  3.1723 -0.3363
   16MOL   H502 8932   2.778   4.091   2.949 -2.9406  1.3200 -0.5465
   16MOL   H503 8933   2.889   4.312   2.902 -1.1805  0.0156  0.3327
   16MOL   H504 8934   3.114   4.736   2.842  0.2559  1.6181 -0.5737
   16MOL   H505 8935   3.162   4.935   2.722 -0.2926 -0.9060  1.9079
   16MOL   C506 8936   2.672   3.811   2.715  0.0748 -0.1166 -0.1162
   16MOL   C507 8937   2.601   3.703   2.784 -0.7729  0.0410 -0.6392
   16MOL   C508 8938   2.487   3.644   2.739  0.2686 -0.0834  0.0159
   16MOL   C509 8939   2.430   3.534   2.804 -0.2637 -0.5946 -0.7153
   16MOL   C510 8940   2.492   3.484   2.922 -0.0432 -0.2857 -0.8160
   16MOL   C511 8941   2.435   3.363   2.983  1.0910 -0.7869  0.1402
   16MOL   N512 8942   2.479   3.343   3.107 -0.3498 -0.2419 -0.0664
   16MOL   C513 8943   2.447   3.249   3.208  0.3754 -0.2301 -0.0287
   16MOL   C514 8944   2.350   3.145   3.186 -0.3373 -0.3117 -0.8592
   16MOL   C515 8945   2.325   3.057   3.291 -0.4167 -0.2559 -0.1006
   16MOL   C516 8946   2.393   3.071   3.417  0.7988  0.3634 -0.1672
   16MOL   N517 8947   2.363   2.983   3.522  0.3536  0.1585 -0.9019
   16MOL   C518 8948   2.491   3.171   3.435 -0.2745 -0.2366  0.3252
   16MOL   C519 8949   2.517   3.267   3.331 -0.1581 -0.1110 -0.4968
   16MOL   O520 8950   2.345   3.302   2.922  0.5084  0.2652  0.5716
   16MOL   C521 8951   2.607   3.548   2.972 -0.7279  0.2010  0.3396
   16MOL   C522 8952   2.663   3.651   2.902 -0.9114  0.6363 -0.7817
   16MOL   O523 8953   2.679   3.808   2.590 -0.0994 -0.1613  0.6067
   16MOL   H524 8954   2.441   3.681   2.648 -0.3607 -1.7160 -0.3578
   16MOL   H525 8955   2.350   3.481   2.755  1.4674 -1.8546 -2.2158
   16MOL   H526 8956   2.539   3.417   3.139  0.5431 -0.5412 -1.0128
   16MOL   H527 8957   2.304   3.124   3.090  0.0637 -3.6108 -0.3903
   16MOL   H528 8958   2.269   2.971   3.259 -1.2623  0.7405 -1.3416
   16MOL   H529 8959   2.445   2.970   3.580  0.7212 -1.2614 -1.7030
   16MOL   H530 8960   2.550   3.173   3.526 -0.2958  1.1402  0.3228
   16MOL   H531 8961   2.586   3.350   3.341  0.1102 -0.0892 -2.3079
   16MOL   H532 8962   2.661   3.504   3.055 -0.9054 -0.6465  0.0158
   16MOL   H533 8963   2.759   3.686   2.938 -1.2430 -0.3872  1.1690
   16MOL   C534 8964   2.254   2.910   3.536 -0.4673 -0.2182 -0.2002
   16MOL   C535 8965   2.270   2.799   3.644  0.3555  0.3098  0.6691
   16MOL   C536 8966   2.343   2.820   3.766  0.1962 -0.6433  0.7762
   16MOL   C537 8967   2.361   2.714   3.856  0.2924 -0.6445  0.3151
   16MOL   C538 8968   2.305   2.589   3.833 -0.2730  0.5916  0.3511
   16MOL   C539 8969   2.314   2.478   3.936 -0.4580 -0.3211 -0.3992
   16MOL   N540 8970   2.358   2.513   4.058 -0.0893 -0.0152 -0.8443
   16MOL   C541 8971   2.341   2.446   4.185 -0.1609 -0.2144  0.8392
   16MOL   C542 8972   2.308   2.309   4.192  0.1349 -0.0607  0.1918
   16MOL   C543 8973   2.292   2.251   4.319 -0.0752  0.3074  0.7272
   16MOL   C544 8974   2.303   2.330   4.437 -0.2554 -0.4659  0.4180
   16MOL   N545 8975   2.301   2.268   4.564  0.5994  0.3197  0.2538
   16MOL   C546 8976   2.344   2.463   4.424 -0.3442 -0.2538 -0.0629
   16MOL   C547 8977   2.363   2.523   4.299 -0.3761  0.6919  0.3171
   16MOL   O548 8978   2.278   2.367   3.912  0.1940  0.4455  0.1615
   16MOL   C549 8979   2.237   2.564   3.710 -0.0981  0.2328 -0.4915
   16MOL   C550 8980   2.217   2.672   3.617  0.3737  0.0394  0.3521
   16MOL   O551 8981   2.143   2.926   3.490 -0.0406  0.6289  0.0598
   16MOL   H552 8982   2.378   2.920   3.789 -0.1241  0.3684 -2.7426
   16MOL   H553 8983   2.412   2.737   3.949 -2.0334 -0.1627  1.5123
   16MOL   H554 8984   2.399   2.605   4.058 -1.7406  0.7391 -1.0409
   16MOL   H555 8985   2.299   2.242   4.108  1.3228  0.7793 -0.6384
   16MOL   H556 8986   2.280   2.144   4.319 -0.0603  0.3078  0.9776
   16MOL   H557 8987   2.334   2.321   4.644  0.9521  0.2006  0.1877
   16MOL   H558 8988   2.351   2.522   4.514 -0.4610  1.6268 -1.2754
   16MOL   H559 8989   2.406   2.621   4.288 -0.6738  0.8822  0.8665
   16MOL   H560 8990   2.183   2.471   3.694  1.2407 -0.8037  0.9296
   16MOL   H561 8991   2.157   2.665   3.528  0.9991  0.9773 -0.1551
   16MOL   H562 8992   2.260   2.177   4.581  1.0229  0.2885  1.1387
   17MOL     C1 8993   5.676   7.504   0.802  0.3519 -0.3655  0.3920
   17MOL     C2 8994   5.628   7.396   0.707 -0.8956 -0.0749  1.2610
   17MOL     C3 8995   5.667   7.404   0.568  0.4022  0.7471 -0.6610
   17MOL     C4 8996   5.603   7.323   0.476  0.1878 -0.1586 -0.8078
   17MOL     C5 8997   5.499   7.229   0.520  0.1632  0.1988 -0.2338
   17MOL     C6 8998   5.421   7.146   0.428 -0.4499  0.7039  0.8017
   17MOL     N7 8999   5.499   7.102   0.325  0.6763 -0.0390 -0.3380
   17MOL     C8 9000   5.457   7.037   0.209  0.4883 -0.1149  0.0100
   17MOL     C9 9001   5.330   7.063   0.147  0.3657 -0.0765 -0.2351
   17MOL    C10 9002   5.302   7.008   0.020  0.9202  0.1346  0.4602
   17MOL    C11 9003   5.388   6.921   8.103  0.0465  0.0073 -0.1054
   17MOL    N12 9004   5.350   6.863   7.983 -0.6433  0.0507  0.2374
   17MOL    C13 9005   5.508   6.888   0.019  0.1345 -0.0361 -0.2802
   17MOL    C14 9006   5.543   6.951   0.140 -0.4258  0.7270  0.6914
   17MOL    O15 9007   5.306   7.113   0.451  0.5126  0.0286 -0.2640
   17MOL    C16 9008   5.461   7.225   0.656 -0.0234  0.7705  0.0822
   17MOL    C17 9009   5.524   7.311   0.745 -0.5171 -0.5490  0.2021
   17MOL    O18 9010   5.743   7.597   0.764  0.2147  0.6880 -0.4288
   17MOL    H19 9011   5.749   7.468   0.539  1.9224 -0.3155  1.1972
   17MOL    H20 9012   5.635   7.319   0.373  3.3029  1.6020  0.0402
   17MOL    H21 9013   5.596   7.097   0.349  0.9284 -2.4396 -1.6584
   17MOL    H22 9014   5.253   7.121   0.195  0.5729 -1.0691  1.3298
   17MOL    H23 9015   5.207   7.028   8.119  1.2317  1.2024  0.2756
   17MOL    H24 9016   5.412   6.881   7.905  0.6094 -1.5311  0.8350
   17MOL    H25 9017   5.579   6.823   8.118  0.1425  1.3863 -2.2844
   17MOL    H26 9018   5.635   6.935   0.193 -1.5992 -1.6265  2.0935
   17MOL    H27 9019   5.377   7.169   0.692 -1.8531  2.3895 -1.5551
   17MOL    H28 9020   5.506   7.296   0.851  0.2005  2.0556  0.7211
   17MOL    H29 9021   5.656   7.495   0.909  0.6485 -1.0185  0.3987
   17MOL    C30 9022   5.278   6.749   7.969 -0.3694 -0.3555 -0.5786
   17MOL    C31 9023   5.280   6.703   7.826  0.8499 -0.4040  0.5383
   17MOL    C32 9024   5.160   6.692   7.752 -0.1570  0.2172 -0.4835
   17MOL    C33 9025   5.165   6.678   7.611 -0.4139  0.1918 -0.1926
   17MOL    C34 9026   5.287   6.655   7.543 -0.3588  0.4379  0.4442
   17MOL    C35 9027   5.291   6.617   7.396 -0.4945  0.0119  0.0906
   17MOL    N36 9028   5.177   6.568   7.343  0.3144 -0.1545  0.4877
   17MOL    C37 9029   5.156   6.518   7.213 -0.3600 -0.7328 -0.1205
   17MOL    C38 9030   5.046   6.562   7.135  0.0252  0.2061  0.5844
   17MOL    C39 9031   5.031   6.514   6.999  0.4370  0.2805 -0.6586
   17MOL    C40 9032   5.120   6.413   6.950  0.1802  0.1770  0.3856
   17MOL    N41 9033   5.103   6.373   6.815 -0.2749 -0.4021  0.6568
   17MOL    C42 9034   5.217   6.362   7.033  0.0232 -0.8786 -0.9061
   17MOL    C43 9035   5.242   6.420   7.162  0.2858  0.6653  0.1040
   17MOL    O44 9036   5.389   6.632   7.327  0.3491 -0.0128  0.0082
   17MOL    C45 9037   5.407   6.661   7.622  0.0786 -0.1806  0.0260
   17MOL    C46 9038   5.400   6.676   7.761 -0.5060 -0.2941  0.2174
   17MOL    O47 9039   5.200   6.694   8.049  0.3156  0.1874  0.6882
   17MOL    H48 9040   5.065   6.706   7.803  0.6736  0.9599  0.8948
   17MOL    H49 9041   5.065   6.679   7.572 -0.6204  2.9576  0.2927
   17MOL    H50 9042   5.100   6.575   7.408 -1.1616 -1.1914 -1.1179
   17MOL    H51 9043   4.973   6.635   7.163 -0.8876 -0.8308  0.9417
   17MOL    H52 9044   4.950   6.542   6.933 -1.6673  0.6925  2.0540
   17MOL    H53 9045   5.080   6.440   6.743  0.3417 -0.1769  0.6660
   17MOL    H54 9046   5.284   6.285   6.997  2.3144  1.2391 -1.3548
   17MOL    H55 9047   5.319   6.378   7.225 -0.2004 -0.3184  0.0487
   17MOL    H56 9048   5.498   6.641   7.569  0.2205  1.1997 -0.2459
   17MOL    H57 9049   5.490   6.687   7.820  0.3968 -2.4206 -0.7045
   17MOL    C58 9050   5.100   6.245   6.763  0.3918  0.3960  0.0115
   17MOL    C59 9051   5.043   6.249   6.625 -0.5830 -0.0918 -0.1806
   17MOL    C60 9052   5.072   6.350   6.529  0.2524  0.3103 -0.3243
   17MOL    C61 9053   4.999   6.347   6.403  0.3929  0.2084 -0.0927
   17MOL    C62 9054   4.901   6.253   6.374 -0.0502 -0.0645 -0.0353
   17MOL    C63 9055   4.825   6.266   6.244 -0.1192 -0.0516  0.6227
   17MOL    N64 9056   4.712   6.194   6.235  0.3572  0.3948 -0.4157
   17MOL    C65 9057   4.613   6.193   6.129  0.1772 -0.0866  0.5520
   17MOL    C66 9058   4.482   6.169   6.177 -0.1801  0.4987 -0.4424
   17MOL    C67 9059   4.374   6.183   6.083 -0.3127 -0.2495  0.5759
   17MOL    C68 9060   4.404   6.223   5.951  0.2454 -0.3761  0.2068
   17MOL    N69 9061   4.298   6.258   5.857  0.1210  0.3459 -0.0260
   17MOL    C70 9062   4.539   6.225   5.903  1.0374  0.2553  0.0049
   17MOL    C71 9063   4.644   6.220   5.992 -0.4643  0.1330  0.5315
   17MOL    O72 9064   4.873   6.335   6.160 -0.3788 -0.4943 -0.2779
   17MOL    C73 9065   4.879   6.147   6.467 -0.1605  0.1572  0.2873
   17MOL    C74 9066   4.946   6.144   6.591  0.1358 -0.2112 -0.0008
   17MOL    O75 9067   5.119   6.137   6.814 -0.2098  0.1623 -0.1769
   17MOL    H76 9068   5.142   6.430   6.548 -0.9097  0.5641  3.4651
   17MOL    H77 9069   5.021   6.428   6.334  0.4147  0.5062  0.2621
   17MOL    H78 9070   4.688   6.133   6.312  1.4213 -2.6615 -2.4211
   17MOL    H79 9071   4.474   6.144   6.281  0.9750  1.5008 -0.0954
   17MOL    H80 9072   4.273   6.174   6.118  0.0893  2.7423  2.7444
   17MOL    H81 9073   4.320   6.235   5.761 -0.5869  2.9968 -0.8779
   17MOL    H82 9074   4.559   6.249   5.799  1.2333 -4.7388 -1.2489
   17MOL    H83 9075   4.743   6.243   5.955 -1.0105 -0.4019 -1.3206
   17MOL    H84 9076   4.805   6.072   6.444  1.6002 -2.1450  1.9565
   17MOL    H85 9077   4.923   6.070   6.665 -1.1821  0.3618  0.1835
   17MOL    C86 9078   4.174   6.307   5.881 -0.0116  0.0291 -0.3535
   17MOL    C87 9079   4.083   6.351   5.766 -0.3290  0.0585 -0.0901
   17MOL    C88 9080   3.980   6.449   5.788  0.1276  0.0834 -0.4479
   17MOL    C89 9081   3.898   6.496   5.681 -0.0734  0.1311 -0.0349
   17MOL    C90 9082   3.918   6.437   5.550 -0.1142 -0.7109 -0.0786
   17MOL    C91 9083   3.829   6.484   5.441  0.0676 -0.1369  0.1810
   17MOL    N92 9084   3.886   6.488   5.318  0.3761 -0.3152 -0.5297
   17MOL    C93 9085   3.843   6.557   5.195  0.2782  1.0418 -0.2549
   17MOL    C94 9086   3.944   6.628   5.125  0.6328  0.2896 -0.0269
   17MOL    C95 9087   3.914   6.696   5.006 -0.6759  0.1632  0.6063
   17MOL    C96 9088   3.778   6.702   4.964  1.0376  0.1972 -0.6803
   17MOL    N97 9089   3.742   6.776   4.854  0.1645 -0.7271  0.7945
   17MOL    C98 9090   3.682   6.625   5.030 -0.2452 -0.0800  0.6904
   17MOL    C99 9091   3.717   6.544   5.140 -0.0890  0.4979 -0.4884
   17MOL   O100 9092   3.717   6.532   5.464 -0.2885  0.0774 -0.0468
   17MOL   C101 9093   4.015   6.338   5.528 -0.5676 -0.1863  0.0763
   17MOL   C102 9094   4.102   6.301   5.634 -0.1208  0.1931 -0.5622
   17MOL   O103 9095   4.135   6.314   5.996  0.2499 -0.3182  0.7869
   17MOL   H104 9096   3.977   6.511   5.876  0.6831  1.7890 -1.5876
   17MOL   H105 9097   3.834   6.582   5.686 -1.4236 -0.8625  0.1337
   17MOL   H106 9098   3.981   6.454   5.314  0.4665  0.0358 -1.7493
   17MOL   H107 9099   4.045   6.623   5.162  0.4285  0.6705  0.6076
   17MOL   H108 9100   3.987   6.758   4.957 -0.5128 -0.9828 -0.6370
   17MOL   H109 9101   3.777   6.748   4.763 -0.3032  2.4580 -0.4221
   17MOL   H110 9102   3.579   6.618   4.998 -0.7961  1.3782  2.1084
   17MOL   H111 9103   3.641   6.479   5.182 -0.2782  1.7571  1.1299
   17MOL   H112 9104   4.020   6.289   5.432 -1.1335  1.9619 -1.0662
   17MOL   H113 9105   4.173   6.223   5.614 -0.7504 -0.0626 -1.8394
   17MOL   C114 9106   3.655   6.883   4.859  0.4666 -0.2891 -0.6236
   17MOL   C115 9107   3.613   6.942   4.995  0.8969  0.7169  0.5291
   17MOL   C116 9108   3.706   7.015   5.069 -0.5283 -0.1970 -0.5623
   17MOL   C117 9109   3.673   7.045   5.207 -0.7484 -0.7483 -0.0803
   17MOL   C118 9110   3.559   6.989   5.273  0.0905  0.1540  0.4637
   17MOL   C119 9111   3.548   7.006   5.425  0.6857  0.5302 -0.1697
   17MOL   N120 9112   3.501   6.898   5.493  0.3927  0.1985  0.0836
   17MOL   C121 9113   3.524   6.866   5.631 -1.0343  0.1976 -0.0085
   17MOL   C122 9114   3.642   6.798   5.677  0.6189 -0.4039  0.3650
   17MOL   C123 9115   3.653   6.766   5.809  0.2654  0.3395  0.4973
   17MOL   C124 9116   3.550   6.789   5.907  0.0045 -0.2511 -0.0713
   17MOL   N125 9117   3.545   6.758   6.040  0.2823  0.1309 -0.9609
   17MOL   C126 9118   3.433   6.843   5.856  0.0908 -0.9549  0.1115
   17MOL   C127 9119   3.418   6.880   5.720 -0.4558  0.4158 -0.0558
   17MOL   O128 9120   3.582   7.110   5.478  0.3988  0.7501  0.1551
   17MOL   C129 9121   3.462   6.926   5.194  0.6302 -0.6484  0.2184
   17MOL   C130 9122   3.487   6.911   5.056 -0.1138 -0.1220 -0.0412
   17MOL   O131 9123   3.596   6.919   4.753  0.1690 -0.1903 -0.2515
   17MOL   H132 9124   3.801   7.046   5.031 -0.1595 -2.5609 -1.6307
   17MOL   H133 9125   3.740   7.109   5.264 -0.2257 -0.2397 -1.2492
   17MOL   H134 9126   3.470   6.819   5.439  0.8311  1.0065 -1.3782
   17MOL   H135 9127   3.723   6.768   5.613  0.0362  1.5464 -1.3432
   17MOL   H136 9128   3.747   6.721   5.837  0.2468 -0.3189 -0.4696
   17MOL   H137 9129   3.467   6.780   6.099  0.7282  0.0920 -0.3556
   17MOL   H138 9130   3.341   6.850   5.911  1.2718 -0.6792  2.0674
   17MOL   H139 9131   3.326   6.926   5.686 -0.7974 -0.9092 -1.0010
   17MOL   H140 9132   3.373   6.879   5.233  1.5917 -1.8086  1.0310
   17MOL   H141 9133   3.412   6.864   4.994 -0.7499  2.3065 -1.2067
   17MOL   C142 9134   3.632   6.695   6.121 -0.4064  0.1969  0.8820
   17MOL   C143 9135   3.595   6.689   6.265 -0.3541  0.6407  0.5421
   17MOL   C144 9136   3.692   6.654   6.364 -1.2658  0.1532 -0.2196
   17MOL   C145 9137   3.654   6.652   6.502 -0.6423  0.3168 -0.4136
   17MOL   C146 9138   3.517   6.673   6.535 -0.4446  0.5509  0.3344
   17MOL   C147 9139   3.482   6.673   6.685 -0.1941  0.7771  0.2524
   17MOL   N148 9140   3.433   6.791   6.726 -0.3112  0.1347  0.1749
   17MOL   C149 9141   3.382   6.828   6.855 -0.6074  1.0146  0.0638
   17MOL   C150 9142   3.358   6.742   6.960 -0.3000 -0.0824 -0.4052
   17MOL   C151 9143   3.298   6.784   7.082  0.5229  0.3688 -0.4171
   17MOL   C152 9144   3.266   6.921   7.101 -0.0482 -0.0127  0.4119
   17MOL   N153 9145   3.205   6.974   7.219  0.3135 -0.0158  1.1978
   17MOL   C154 9146   3.308   7.015   7.002  0.5121 -0.6131 -0.5515
   17MOL   C155 9147   3.360   6.966   6.882  0.4352  1.0052  0.0801
   17MOL   O156 9148   3.493   6.569   6.752 -0.0474  0.0511  0.3778
   17MOL   C157 9149   3.416   6.699   6.439 -0.5583  0.2292 -0.7635
   17MOL   C158 9150   3.460   6.715   6.304  0.3451  0.6837 -0.3041
   17MOL   O159 9151   3.736   6.641   6.082 -0.8001 -0.1179  0.8785
   17MOL   H160 9152   3.794   6.634   6.336 -1.3691  1.3842 -1.5731
   17MOL   H161 9153   3.720   6.636   6.585 -2.8039  1.5187  1.6156
   17MOL   H162 9154   3.428   6.859   6.651  2.2194 -1.1334 -1.2157
   17MOL   H163 9155   3.371   6.635   6.959  1.2312  0.0935  0.1673
   17MOL   H164 9156   3.277   6.712   7.159  0.8423 -0.4961 -1.1263
   17MOL   H165 9157   3.232   7.066   7.250  0.2266  0.2550  0.4650
   17MOL   H166 9158   3.284   7.119   7.018  1.3146 -0.8020  2.2378
   17MOL   H167 9159   3.380   7.033   6.800 -2.0544  1.4307 -0.2362
   17MOL   H168 9160   3.314   6.708   6.472 -0.3267 -1.7145  0.6042
   17MOL   H169 9161   3.377   6.739   6.238 -2.2195  2.4371  3.4127
   17MOL   C170 9162   3.120   6.916   7.305  0.2251 -0.5286  0.4366
   17MOL   C171 9163   3.087   6.998   7.425  0.0918 -0.0718  0.1034
   17MOL   C172 9164   2.967   6.974   7.492 -0.1507  1.0447  0.6173
   17MOL   C173 9165   2.928   7.053   7.594  0.4127  0.4889 -0.0519
   17MOL   C174 9166   3.013   7.158   7.638 -0.6272  0.1375 -0.0822
   17MOL   C175 9167   2.970   7.227   7.765 -0.3044  0.2556  0.0004
   17MOL   N176 9168   3.062   7.276   7.847 -0.3768  0.1200  0.5022
   17MOL   C177 9169   3.049   7.389   7.933 -0.2457  0.5232  0.1182
   17MOL   C178 9170   3.154   7.407   8.021 -0.2500 -0.1885 -0.0027
   17MOL   C179 9171   3.164   7.508   8.116  0.5537 -0.1012  0.0771
   17MOL   C180 9172   3.054   7.594   8.123 -0.5536 -0.5967  1.0356
   17MOL   N181 9173   3.057   7.698   0.077  0.1758 -0.2310  0.1686
   17MOL   C182 9174   2.942   7.579   8.039  0.3690  0.6334 -0.5216
   17MOL   C183 9175   2.938   7.475   7.942 -0.0064 -0.8758  0.0513
   17MOL   O184 9176   2.845   7.235   7.787  0.5022  0.0911 -0.8634
   17MOL   C185 9177   3.131   7.193   7.573 -0.3280  1.0452  0.1243
   17MOL   C186 9178   3.161   7.113   7.459 -0.2832 -0.3045  0.4259
   17MOL   O187 9179   3.081   6.803   7.299  0.2360  0.5937  0.0629
   17MOL   H188 9180   2.890   6.904   7.462 -0.8945  2.5684 -1.1322
   17MOL   H189 9181   2.831   7.036   7.638  0.8106 -0.6027  0.4379
   17MOL   H190 9182   3.151   7.229   7.844 -0.8802 -0.8331  0.2872
   17MOL   H191 9183   3.234   7.335   8.012  0.0179 -0.0880  1.5081
   17MOL   H192 9184   3.247   7.532   0.034  0.0172  1.6549  0.1465
   17MOL   H193 9185   3.095   7.674   0.167  0.4873  3.4566  1.1035
   17MOL   H194 9186   2.861   7.650   8.049  0.1796  0.1175  1.7722
   17MOL   H195 9187   2.855   7.467   7.873 -0.7159 -1.4968  0.9702
   17MOL   H196 9188   3.185   7.282   7.600  1.1392  0.1393  0.2482
   17MOL   H197 9189   3.247   7.132   7.396 -0.2989 -0.7620  0.2661
   17MOL   C198 9190   3.000   7.816   0.070 -0.1697  0.4898 -0.6147
   17MOL   C199 9191   3.004   7.886   0.197 -0.3089 -0.1470 -0.1096
   17MOL   C200 9192   3.080   8.003   0.206  0.2231  0.8601 -0.1314
   17MOL   C201 9193   3.084   8.074   0.328  0.4848  0.0535 -1.3024
   17MOL   C202 9194   3.004   8.042   0.437  0.3949 -0.7013 -0.0470
   17MOL   C203 9195   3.004   8.113   0.569  0.2140  0.5808 -0.6151
   17MOL   N204 9196   2.988   0.101   0.571 -0.0499 -0.1192  0.1329
   17MOL   C205 9197   2.982   0.176   0.687 -0.0623  0.1186 -0.3078
   17MOL   C206 9198   3.101   0.188   0.768 -0.0441  0.3059 -0.0595
   17MOL   C207 9199   3.098   0.268   0.880  0.3236  0.2685  0.8169
   17MOL   C208 9200   2.981   0.338   0.917  0.4190 -0.2827  0.0591
   17MOL   N209 9201   2.991   0.428   1.028  0.6236  0.5833  0.3225
   17MOL   C210 9202   2.868   0.337   0.834  0.2777 -0.1638 -0.0534
   17MOL   C211 9203   2.871   0.255   0.722  0.2058  0.6724  0.1393
   17MOL   O212 9204   3.010   8.043   0.671 -0.2236  0.0464  0.1603
   17MOL   C213 9205   2.928   7.920   0.425 -0.5364  0.3737 -0.4727
   17MOL   C214 9206   2.940   7.839   0.310  0.1246  0.3137  0.4257
   17MOL   O215 9207   2.959   7.873   8.116  0.2517  0.0215  0.0557
   17MOL   H216 9208   3.150   8.028   0.127  1.7664  1.6009  1.4114
   17MOL   H217 9209   3.142   0.020   0.328  1.4058 -0.5149 -1.1685
   17MOL   H218 9210   2.962   0.151   0.487  1.9507  0.2884 -0.2593
   17MOL   H219 9211   3.190   0.135   0.739 -0.5461 -0.4726 -0.2202
   17MOL   H220 9212   3.180   0.271   0.951  1.6347 -2.6376 -0.4927
   17MOL   H221 9213   3.055   0.395   1.099  1.9824  1.0060 -0.6815
   17MOL   H222 9214   2.786   0.402   0.861  1.4882  0.2717  2.7506
   17MOL   H223 9215   2.786   0.244   0.658 -0.4391 -0.7453  1.1931
   17MOL   H224 9216   2.873   7.876   0.507  0.8891  1.0885  0.8965
   17MOL   H225 9217   2.897   7.740   0.307 -1.1564  0.9098 -2.0283
   17MOL   C226 9218   2.939   0.555   1.042  0.6023  0.6602 -0.3817
   17MOL   C227 9219   2.967   0.628   1.172  0.6189  0.1288 -0.1213
   17MOL   C228 9220   2.950   0.768   1.177  0.9689 -0.4031 -0.2710
   17MOL   C229 9221   2.958   0.834   1.301  0.4192  0.3173 -0.7588
   17MOL   C230 9222   2.981   0.767   1.425 -0.1792  0.5278 -0.6651
   17MOL   C231 9223   2.994   0.838   1.556  0.1113  0.1228  0.6494
   17MOL   N232 9224   2.953   0.967   1.563  0.6724 -0.3710 -0.2211
   17MOL   C233 9225   2.965   1.054   1.672  0.1318 -0.2726 -0.0957
   17MOL   C234 9226   3.090   1.076   1.732 -0.0888  0.1531 -0.5138
   17MOL   C235 9227   3.103   1.177   1.829  0.6460  0.0639  0.0050
   17MOL   C236 9228   2.987   1.252   1.868 -0.4180  0.2594 -0.3084
   17MOL   N237 9229   3.010   1.370   1.942  0.9986 -0.2766  0.2692
   17MOL   C238 9230   2.860   1.224   1.811  0.4401 -0.1811  0.3445
   17MOL   C239 9231   2.854   1.129   1.709 -1.3483  0.4974  0.3364
   17MOL   O240 9232   3.045   0.781   1.651 -0.4252 -0.1389 -0.0241
   17MOL   C241 9233   2.982   0.623   1.414  0.7320  0.1163  0.5724
   17MOL   C242 9234   2.978   0.556   1.291  0.4560  0.0275 -0.3698
   17MOL   O243 9235   2.878   0.605   0.951  0.9051 -0.2504 -0.2591
   17MOL   H244 9236   2.938   0.821   1.084 -1.4880  0.2849  0.4029
   17MOL   H245 9237   2.964   0.941   1.284  0.3709  0.9070  2.6684
   17MOL   H246 9238   2.909   0.999   1.478  0.8016 -1.2708 -0.6370
   17MOL   H247 9239   3.178   1.019   1.707  1.2941  0.2749  3.5978
   17MOL   H248 9240   3.198   1.206   1.871 -1.0479  0.8134  3.5037
   17MOL   H249 9241   3.103   1.406   1.931  0.6157  0.5149 -0.4722
   17MOL   H250 9242   2.774   1.285   1.835  0.9320 -0.4052  2.7851
   17MOL   H251 9243   2.764   1.105   1.655 -0.5947  0.4330 -0.9202
   17MOL   H252 9244   3.006   0.575   1.507 -1.4842  0.2396  1.2476
   17MOL   H253 9245   2.986   0.449   1.288 -1.4332 -0.0835 -1.5748
   17MOL   C254 9246   2.935   1.415   2.047 -0.1807 -0.0942  0.2793
   17MOL   C255 9247   2.989   1.535   2.124  0.0083  0.2871 -0.8782
   17MOL   C256 9248   2.897   1.620   2.182 -0.4597  0.4910 -1.2539
   17MOL   C257 9249   2.944   1.744   2.231 -0.1883  0.6905  0.3825
   17MOL   C258 9250   3.076   1.786   2.206 -0.5004 -0.9718  1.3679
   17MOL   C259 9251   3.119   1.928   2.221  0.6023  0.4356  0.7548
   17MOL   N260 9252   3.142   1.993   2.105 -0.1357 -0.2261 -0.1761
   17MOL   C261 9253   3.132   1.931   1.977 -0.3045 -0.1927 -0.3965
   17MOL   C262 9254   3.244   1.880   1.911  0.0211 -0.3301  1.2990
   17MOL   C263 9255   3.231   1.816   1.787  0.1403 -0.4643  0.7700
   17MOL   C264 9256   3.104   1.802   1.727 -0.2771  0.1370  0.0103
   17MOL   N265 9257   3.091   1.715   1.612  0.2693 -0.1898 -0.2853
   17MOL   C266 9258   2.993   1.850   1.793 -0.2980  0.2553 -1.4235
   17MOL   C267 9259   3.006   1.927   1.912  0.1230  0.4521 -0.6108
   17MOL   O268 9260   3.113   1.991   2.327 -0.7465 -0.3919  1.0384
   17MOL   C269 9261   3.171   1.684   2.171  0.0014 -0.6163 -0.1470
   17MOL   C270 9262   3.124   1.557   2.132  0.3780  0.2695  0.4372
   17MOL   O271 9263   2.830   1.365   2.078  0.0090  0.4833 -0.2307
   17MOL   H272 9264   2.793   1.598   2.202  0.1362 -0.3694  1.0458
   17MOL   H273 9265   2.866   1.805   2.274 -0.5897  0.9614 -0.7096
   17MOL   H274 9266   3.149   2.094   2.109 -0.5838 -0.1882 -0.2380
   17MOL   H275 9267   3.340   1.908   1.951  0.7473  0.0872 -0.6842
   17MOL   H276 9268   3.316   1.790   1.725 -1.7875 -3.1261 -0.8600
   17MOL   H277 9269   3.038   1.740   1.530  0.4038  0.2726 -0.2300
   17MOL   H278 9270   2.898   1.840   1.744 -0.7967 -0.8283 -0.2631
   17MOL   H279 9271   2.921   1.969   1.964  0.5056  1.4119 -0.7489
   17MOL   H280 9272   3.274   1.716   2.169 -0.0149 -0.6006 -0.8681
   17MOL   H281 9273   3.189   1.478   2.098 -1.2093 -0.5504 -0.7593
   17MOL   C282 9274   3.144   1.596   1.613 -0.6180  1.2862  0.6113
   17MOL   C283 9275   3.126   1.507   1.489  0.2972  0.1527  0.9427
   17MOL   C284 9276   3.107   1.367   1.502  0.8417 -0.4574  0.1681
   17MOL   C285 9277   3.103   1.278   1.388 -0.4046 -0.7987  0.5804
   17MOL   C286 9278   3.121   1.335   1.258 -0.2583  0.0410 -0.0317
   17MOL   C287 9279   3.101   1.248   1.137  0.9340 -0.0776  0.4558
   17MOL   N288 9280   3.149   1.124   1.139 -0.1550  0.1913 -0.0300
   17MOL   C289 9281   3.165   1.028   1.034  0.4131  0.0982  0.5243
   17MOL   C290 9282   3.279   0.941   1.030 -0.3830 -0.2446  0.5502
   17MOL   C291 9283   3.277   0.839   0.931 -1.2091  0.7020 -0.2612
   17MOL   C292 9284   3.171   0.822   0.836  0.3883  0.2206 -0.9558
   17MOL   N293 9285   3.173   0.727   0.729 -0.6907 -0.5645  0.3515
   17MOL   C294 9286   3.069   0.916   0.843 -0.1932  0.4510 -0.0413
   17MOL   C295 9287   3.067   1.023   0.935  0.5366  0.3761 -0.0740
   17MOL   O296 9288   3.050   1.304   1.036 -0.2243 -0.4973  0.1167
   17MOL   C297 9289   3.152   1.472   1.251 -0.5681  0.0204  1.0408
   17MOL   C298 9290   3.151   1.555   1.360 -0.5249 -0.1705 -0.4478
   17MOL   O299 9291   3.210   1.546   1.702 -0.0182 -0.4896  0.3460
   17MOL   H300 9292   3.098   1.326   1.601 -0.5319 -1.3750 -0.3296
   17MOL   H301 9293   3.085   1.172   1.400  1.7371 -1.1368  0.9941
   17MOL   H302 9294   3.189   1.102   1.229 -0.6185  0.3795  0.2269
   17MOL   H303 9295   3.361   0.948   1.100 -0.6207  1.1481  0.7127
   17MOL   H304 9296   3.364   0.777   0.913 -1.7579 -0.3256  0.5351
   17MOL   H305 9297   3.227   0.644   0.750  0.4355  0.1527  0.3143
   17MOL   H306 9298   2.991   0.910   0.769  1.5902  2.4201 -2.1569
   17MOL   H307 9299   2.974   1.078   0.927  0.3696 -0.0542 -1.1768
   17MOL   H308 9300   3.170   1.517   1.154 -0.6137 -0.6778  0.7070
   17MOL   H309 9301   3.178   1.658   1.339  1.5199 -0.5519  0.2387
   17MOL   C310 9302   3.130   0.740   0.600  0.0368  0.0177  0.1528
   17MOL   C311 9303   3.161   0.626   0.507 -0.3722  0.1127  0.6882
   17MOL   C312 9304   3.170   0.489   0.548 -0.5564 -0.1402  0.2235
   17MOL   C313 9305   3.209   0.384   0.468 -0.2645  0.5125 -0.3264
   17MOL   C314 9306   3.224   0.410   0.331  0.2628  0.9261  0.5490
   17MOL   C315 9307   3.260   0.295   0.240  1.0252  0.1719  0.4255
   17MOL   N316 9308   3.229   0.305   0.109 -0.1156  0.0600  0.1336
   17MOL   C317 9309   3.253   0.211   0.007 -0.4647  0.1850 -0.5698
   17MOL   C318 9310   3.165   0.208   8.042  0.3575  0.5990  0.6497
   17MOL   C319 9311   3.174   0.106   7.944 -0.4206 -0.0576  0.4447
   17MOL   C320 9312   3.267   0.002   7.951  0.6321  0.8159 -0.2372
   17MOL   N321 9313   3.269   8.044   7.851  0.0460  0.4521 -0.0809
   17MOL   C322 9314   3.351   8.144   8.067 -0.3767  0.0783 -0.0411
   17MOL   C323 9315   3.352   0.106   0.013  0.0803 -0.4848  0.4709
   17MOL   O324 9316   3.301   0.190   0.294 -0.9610  0.2678  0.1074
   17MOL   C325 9317   3.200   0.541   0.276  0.2333 -0.3977  0.7665
   17MOL   C326 9318   3.178   0.649   0.367  0.7440 -0.2458 -0.6136
   17MOL   O327 9319   3.077   0.840   0.555  0.0413 -0.0579  0.2727
   17MOL   H328 9320   3.150   0.465   0.651 -1.6763 -0.2390 -0.0166
   17MOL   H329 9321   3.217   0.288   0.517 -3.0458 -0.2100 -1.2010
   17MOL   H330 9322   3.182   0.391   0.086  0.8238 -0.0148 -2.1885
   17MOL   H331 9323   3.083   0.278   8.029  0.6624  0.8026 -0.2406
   17MOL   H332 9324   3.102   0.108   7.863  1.5220  0.8273 -1.3060
   17MOL   H333 9325   3.231   8.062   7.759 -0.8913  0.6330  0.3337
   17MOL   H334 9326   3.433   8.074   8.075 -0.3069 -0.0048 -1.3058
   17MOL   H335 9327   3.423   0.107   0.095 -0.3532  0.5654  0.8450
   17MOL   H336 9328   3.191   0.556   0.170  1.0856 -1.3604  0.5404
   17MOL   H337 9329   3.163   0.750   0.331  0.8409 -0.8785 -2.4837
   17MOL   C338 9330   3.274   7.913   7.875 -0.3125 -0.1014  0.5654
   17MOL   C339 9331   3.223   7.826   7.765 -0.4822 -1.0044  0.6117
   17MOL   C340 9332   3.227   7.886   7.632 -0.0216 -0.4592  0.1782
   17MOL   C341 9333   3.192   7.808   7.522  0.4160  0.3053  0.4660
   17MOL   C342 9334   3.152   7.675   7.533 -0.2136 -0.1440  0.4258
   17MOL   C343 9335   3.124   7.591   7.407  0.3739 -0.1772  0.2358
   17MOL   N344 9336   3.026   7.499   7.425 -0.2318 -0.3723 -0.1586
   17MOL   C345 9337   2.984   7.389   7.346 -0.1213  0.1791  0.1433
   17MOL   C346 9338   3.061   7.345   7.233 -0.5447  0.1167 -0.3710
   17MOL   C347 9339   3.028   7.233   7.155 -0.1816 -0.6519 -0.1789
   17MOL   C348 9340   2.902   7.169   7.184  0.6405  0.0657 -0.0668
   17MOL   N349 9341   2.871   7.056   7.112 -0.0735 -0.0414  0.1017
   17MOL   C350 9342   2.822   7.209   7.295  0.3822  0.1678 -0.2454
   17MOL   C351 9343   2.867   7.313   7.374  0.3770 -0.2382  0.4044
   17MOL   O352 9344   3.184   7.612   7.303  0.1305 -0.1803  0.6780
   17MOL   C353 9345   3.147   7.616   7.661  0.3160 -0.1458 -0.5640
   17MOL   C354 9346   3.193   7.690   7.773  0.2212 -0.1440  0.5086
   17MOL   O355 9347   3.312   7.862   7.982 -0.0391  0.7699 -0.3447
   17MOL   H356 9348   3.268   7.983   7.610 -0.9776  0.1148  0.8860
   17MOL   H357 9349   3.213   7.848   7.424  0.9341 -0.1237  0.3996
   17MOL   H358 9350   2.985   7.501   7.517  2.2477  0.6507  0.9810
   17MOL   H359 9351   3.157   7.389   7.209 -0.2185 -1.3993 -1.9024
   17MOL   H360 9352   3.093   7.195   7.077  0.2938  0.9938 -0.5967
   17MOL   H361 9353   2.948   6.992   7.101  0.1370 -0.1511  2.0892
   17MOL   H362 9354   2.730   7.160   7.323  0.3337 -1.1252 -2.4814
   17MOL   H363 9355   2.811   7.339   7.463 -0.8994 -1.2288 -0.0966
   17MOL   H364 9356   3.120   7.514   7.683 -0.3695  0.3355  0.8989
   17MOL   H365 9357   3.198   7.647   7.872 -0.1895  0.2220  0.6934
   17MOL   C366 9358   2.748   7.005   7.077 -0.6059  0.2059  0.1696
   17MOL   C367 9359   2.746   6.853   7.055  0.0544  0.2915  0.4090
   17MOL   C368 9360   2.623   6.786   7.060 -0.9794  0.5901 -0.1678
   17MOL   C369 9361   2.622   6.649   7.034 -0.7499 -0.2072  0.1430
   17MOL   C370 9362   2.744   6.581   7.020 -0.9341 -0.1442  0.1486
   17MOL   C371 9363   2.735   6.434   7.011  0.3191 -1.0622 -0.2290
   17MOL   N372 9364   2.808   6.356   7.097  0.3950 -0.2211 -0.3841
   17MOL   C373 9365   2.879   6.402   7.209 -0.3197  0.4204  0.2833
   17MOL   C374 9366   3.023   6.408   7.203  0.1039 -0.5215 -0.5373
   17MOL   C375 9367   3.089   6.441   7.320 -0.3452 -0.0320 -0.0757
   17MOL   C376 9368   3.027   6.479   7.441  0.5778  0.3506  0.3658
   17MOL   N377 9369   3.103   6.515   7.548  0.2601  0.9717  0.3204
   17MOL   C378 9370   2.885   6.465   7.442  0.2524  0.0349  0.1253
   17MOL   C379 9371   2.808   6.435   7.328 -0.1955 -0.2257 -0.0956
   17MOL   O380 9372   2.667   6.386   6.918  0.4988 -0.2360 -0.0825
   17MOL   C381 9373   2.873   6.643   7.014 -0.3019  0.1515  0.1438
   17MOL   C382 9374   2.868   6.780   7.030 -0.0789  0.4848  0.3531
   17MOL   O383 9375   2.642   7.071   7.073  0.2904  0.2578 -0.1011
   17MOL   H384 9376   2.527   6.830   7.082 -0.8208  0.1181  1.6043
   17MOL   H385 9377   2.524   6.604   7.031 -0.8166  0.0595 -2.8138
   17MOL   H386 9378   2.825   6.258   7.080  1.1587 -0.4748  1.7598
   17MOL   H387 9379   3.075   6.371   7.115  0.1375  1.2621 -1.2839
   17MOL   H388 9380   3.196   6.431   7.316 -0.4377 -0.6532 -1.1791
   17MOL   H389 9381   3.193   6.556   7.529  1.2369  0.2661  3.1505
   17MOL   H390 9382   2.826   6.468   7.533 -1.3543 -0.0544 -0.8904
   17MOL   H391 9383   2.702   6.415   7.334 -0.9095  2.3109 -2.8909
   17MOL   H392 9384   2.970   6.595   7.004 -0.6413 -0.0007 -2.9977
   17MOL   H393 9385   2.964   6.830   7.020  0.9134 -1.8636 -2.6394
   17MOL   C394 9386   3.054   6.528   7.674  0.3841 -0.6893  0.1175
   17MOL   C395 9387   3.131   6.631   7.753 -0.3525  0.0402 -0.4271
   17MOL   C396 9388   3.172   6.750   7.681 -0.1084  0.0445 -0.1315
   17MOL   C397 9389   3.211   6.867   7.748  0.6857  0.1262 -0.3990
   17MOL   C398 9390   3.221   6.865   7.890 -0.4573 -0.5593  0.1111
   17MOL   C399 9391   3.256   6.992   7.962 -0.6364 -0.0660 -0.4144
   17MOL   N400 9392   3.217   6.997   8.092  0.2347  0.1126 -0.3232
   17MOL   C401 9393   3.240   7.100   0.039 -0.2207 -0.0179  0.1873
   17MOL   C402 9394   3.365   7.161   0.051 -0.1478 -0.1188 -0.2425
   17MOL   C403 9395   3.395   7.247   0.157  0.4074  0.3188  0.6328
   17MOL   C404 9396   3.285   7.288   0.240 -0.4113 -0.1498  0.0963
   17MOL   N405 9397   3.306   7.384   0.345  0.1787  0.2924  0.1575
   17MOL   C406 9398   3.157   7.231   0.228  0.3495 -0.3318 -0.3364
   17MOL   C407 9399   3.138   7.135   0.131  0.5191 -0.4766  0.3063
   17MOL   O408 9400   3.314   7.086   7.905  0.8841 -0.3763 -0.1701
   17MOL   C409 9401   3.185   6.752   7.965  0.3424  0.3809  0.0905
   17MOL   C410 9402   3.140   6.632   7.893 -0.1469 -0.1313 -0.3196
   17MOL   O411 9403   2.972   6.454   7.728 -0.3211  0.1533 -0.0228
   17MOL   H412 9404   3.147   6.764   7.576  0.0401 -0.3346 -0.2188
   17MOL   H413 9405   3.237   6.960   7.700  0.6818  0.0209 -0.6060
   17MOL   H414 9406   3.158   6.921   8.124  0.4852  0.5543  1.1941
   17MOL   H415 9407   3.441   7.142   8.122 -0.3061  0.8721 -0.6593
   17MOL   H416 9408   3.492   7.289   0.181  0.5043  1.6089 -1.8094
   17MOL   H417 9409   3.392   7.375   0.399  0.2577 -1.6068 -0.2414
   17MOL   H418 9410   3.074   7.246   0.296 -1.1947 -0.9663 -2.0337
   17MOL   H419 9411   3.043   7.084   0.132  1.2483 -1.8693 -0.0005
   17MOL   H420 9412   3.181   6.753   8.073 -1.0211 -0.7908  0.0737
   17MOL   H421 9413   3.097   6.551   7.950 -1.5320  0.7096 -0.1573
   17MOL   C422 9414   3.222   7.486   0.371 -0.5939 -0.2041 -0.2636
   17MOL   C423 9415   3.258   7.580   0.485 -0.1581 -0.1592  0.1538
   17MOL   C424 9416   3.314   7.525   0.600  0.2684 -0.5058 -0.2210
   17MOL   C425 9417   3.358   7.612   0.701  0.4265  0.7004  0.7612
   17MOL   C426 9418   3.335   7.756   0.695 -0.1206 -0.1433 -0.1701
   17MOL   C427 9419   3.389   7.834   0.811 -0.5597  0.7484  0.0951
   17MOL   N428 9420   3.323   7.942   0.849 -0.4533 -0.1984 -0.2397
   17MOL   C429 9421   3.342   8.025   0.952  0.3421  0.4530 -0.8736
   17MOL   C430 9422   3.234   8.103   0.994  0.3332 -0.0063  0.7514
   17MOL   C431 9423   3.245   0.038   1.107 -0.0093 -0.0388  0.4776
   17MOL   C432 9424   3.363   0.047   1.183  0.9689  0.4810 -0.6769
   17MOL   N433 9425   3.379   0.136   1.289 -0.0162  0.2824  0.3646
   17MOL   C434 9426   3.475   8.122   1.138 -0.3614  0.3115  1.0935
   17MOL   C435 9427   3.468   8.047   1.022  0.0454 -0.1051 -0.5180
   17MOL   O436 9428   3.491   7.790   0.864  0.1035  0.4328  0.2606
   17MOL   C437 9429   3.274   7.812   0.581 -0.4277  0.0529 -0.1032
   17MOL   C438 9430   3.234   7.724   0.480 -0.4615  0.6382 -0.4132
   17MOL   O439 9431   3.118   7.520   0.309 -0.0110 -0.4115 -0.2862
   17MOL   H440 9432   3.337   7.420   0.611 -0.3327 -0.9795 -3.2330
   17MOL   H441 9433   3.414   7.564   0.780 -1.0549 -1.5351  0.5165
   17MOL   H442 9434   3.230   7.941   0.810  0.0021 -2.6952 -1.3155
   17MOL   H443 9435   3.145   8.085   0.936  0.1882  1.2315  0.5629
   17MOL   H444 9436   3.158   0.097   1.134 -2.5781 -3.2126 -0.5627
   17MOL   H445 9437   3.467   0.123   1.338  0.2880  0.3242 -0.1660
   17MOL   H446 9438   3.575   8.129   1.178  0.6557  0.1535 -1.3328
   17MOL   H447 9439   3.556   7.995   0.986  0.7967  0.7585  0.0434
   17MOL   H448 9440   3.263   7.919   0.574  0.4929  0.0764 -1.1823
   17MOL   H449 9441   3.179   7.759   0.393 -2.7644 -0.3887  0.5819
   17MOL   C450 9442   3.306   0.249   1.314 -0.5872  0.3671 -0.1788
   17MOL   C451 9443   3.351   0.327   1.430  0.7152 -0.4009  0.0675
   17MOL   C452 9444   3.257   0.406   1.495 -0.1587  0.1623  0.2865
   17MOL   C453 9445   3.303   0.492   1.599  0.3644  0.0477  0.3793
   17MOL   C454 9446   3.442   0.508   1.626  0.1092  0.2887 -0.0345
   17MOL   C455 9447   3.491   0.613   1.721 -0.6636  0.7846  0.3156
   17MOL   N456 9448   3.422   0.622   1.837  0.1124 -0.0901 -0.4783
   17MOL   C457 9449   3.457   0.711   1.937  0.0709 -0.6209  0.4164
   17MOL   C458 9450   3.365   0.796   1.999 -0.1852 -0.7203 -0.4207
   17MOL   C459 9451   3.403   0.898   2.086 -0.1194  0.5211 -0.0776
   17MOL   C460 9452   3.537   0.918   2.120  0.2606 -0.3170 -0.4391
   17MOL   N461 9453   3.571   1.024   2.207 -0.8577 -0.0173  0.0822
   17MOL   C462 9454   3.632   0.829   2.065  0.0642  0.0980  0.6752
   17MOL   C463 9455   3.596   0.724   1.979  0.3626  0.5145 -0.4418
   17MOL   O464 9456   3.591   0.674   1.693  0.3119 -0.3246  0.3278
   17MOL   C465 9457   3.533   0.427   1.555  0.4240  0.4824 -0.1176
   17MOL   C466 9458   3.486   0.334   1.463  1.3411  0.5347 -0.6297
   17MOL   O467 9459   3.213   0.291   1.249  0.1591 -0.5081  0.7711
   17MOL   H468 9460   3.152   0.400   1.472 -0.5349  0.4867  1.8203
   17MOL   H469 9461   3.240   0.560   1.654  1.4433  2.1240 -0.8422
   17MOL   H470 9462   3.350   0.553   1.854  1.3657 -1.2225  0.4064
   17MOL   H471 9463   3.260   0.795   1.974 -0.7029  1.1737  1.5291
   17MOL   H472 9464   3.321   0.959   2.120  0.4014  2.4958 -2.2728
   17MOL   H473 9465   3.513   1.106   2.196 -0.0153  0.2786 -2.5199
   17MOL   H474 9466   3.734   0.851   2.089  0.5768  1.0869 -2.2274
   17MOL   H475 9467   3.678   0.667   1.938  0.2451 -1.1759  1.6321
   17MOL   H476 9468   3.640   0.436   1.570  0.4494  1.3692 -0.7752
   17MOL   H477 9469   3.560   0.276   1.410  1.2707  1.7191 -2.0467
   17MOL   C478 9470   3.664   1.029   2.298  0.5858  0.8614 -0.6200
   17MOL   C479 9471   3.684   1.159   2.368  0.7273 -0.2325  0.1368
   17MOL   C480 9472   3.664   1.166   2.508 -0.2306  0.5504 -0.6187
   17MOL   C481 9473   3.696   1.284   2.578  0.3607 -0.0031  0.4443
   17MOL   C482 9474   3.760   1.393   2.516  0.4569  0.2240  0.6756
   17MOL   C483 9475   3.798   1.509   2.592  0.0077  0.5989  0.3273
   17MOL   N484 9476   3.907   1.572   2.551  0.2297 -0.2316 -0.5308
   17MOL   C485 9477   3.960   1.691   2.608  0.0894 -0.3368  0.1390
   17MOL   C486 9478   4.100   1.709   2.610  0.5754  0.1683  0.0723
   17MOL   C487 9479   4.149   1.816   2.682 -0.8793  0.0185 -0.1602
   17MOL   C488 9480   4.071   1.913   2.741 -0.1125 -0.3879  0.2425
   17MOL   N489 9481   4.142   2.001   2.820 -0.2527  0.2723 -0.2643
   17MOL   C490 9482   3.933   1.904   2.724 -0.3170  0.2795 -0.1370
   17MOL   C491 9483   3.876   1.798   2.650  1.0043 -0.2042  0.8644
   17MOL   O492 9484   3.734   1.550   2.689  0.5264  0.2147  0.6306
   17MOL   C493 9485   3.775   1.388   2.372  0.4039 -0.7209  0.1975
   17MOL   C494 9486   3.741   1.270   2.303  0.0110  0.0667  0.5496
   17MOL   O495 9487   3.729   0.930   2.339  0.2625  0.3010  0.5615
   17MOL   H496 9488   3.609   1.090   2.561  0.5110  0.1284 -0.4335
   17MOL   H497 9489   3.658   1.300   2.677 -1.5932 -2.8316  0.2185
   17MOL   H498 9490   3.947   1.526   2.470 -0.7331 -1.0792 -0.5329
   17MOL   H499 9491   4.166   1.641   2.558 -0.7850  0.0784 -1.6186
   17MOL   H500 9492   4.257   1.816   2.688 -0.7973 -2.5326 -1.1729
   17MOL   H501 9493   4.226   1.963   2.861  0.0634  2.0128  0.7835
   17MOL   H502 9494   3.860   1.965   2.775  1.0675  0.8496  1.1913
   17MOL   H503 9495   3.768   1.789   2.650  1.0721 -1.0476  0.2569
   17MOL   H504 9496   3.805   1.475   2.316 -1.7273 -0.3599 -0.4348
   17MOL   H505 9497   3.753   1.259   2.197 -1.9952 -1.8384  0.4808
   17MOL   C506 9498   4.102   2.117   2.874  0.1145 -0.4979  0.6994
   17MOL   C507 9499   3.990   2.193   2.809  0.0543 -0.1969 -0.1106
   17MOL   C508 9500   3.985   2.217   2.671 -0.8178 -0.3211 -0.7604
   17MOL   C509 9501   3.880   2.283   2.606 -0.2714 -0.1469 -0.2074
   17MOL   C510 9502   3.776   2.340   2.689 -0.1144  0.0339 -0.3260
   17MOL   C511 9503   3.653   2.410   2.630 -0.3775  0.6473  0.6814
   17MOL   N512 9504   3.696   2.519   2.566 -0.2025  0.4665 -0.2444
   17MOL   C513 9505   3.613   2.614   2.498 -0.5610  0.0349  0.6217
   17MOL   C514 9506   3.638   2.754   2.490  0.6949  0.2638  0.3405
   17MOL   C515 9507   3.555   2.846   2.422 -0.0014  0.2209 -0.2174
   17MOL   C516 9508   3.439   2.799   2.356  0.2368 -0.1172 -0.5149
   17MOL   N517 9509   3.370   2.890   2.267  0.5148 -0.6783  0.0872
   17MOL   C518 9510   3.407   2.659   2.361 -0.3466  0.0538  0.0033
   17MOL   C519 9511   3.498   2.575   2.430  0.5283  0.1582  0.1107
   17MOL   O520 9512   3.536   2.377   2.660  0.2179  0.0560 -0.0319
   17MOL   C521 9513   3.786   2.319   2.829  0.0629 -0.1632 -0.5167
   17MOL   C522 9514   3.894   2.256   2.887  0.2469 -0.6245  0.2858
   17MOL   O523 9515   4.146   2.149   2.981  0.1687 -0.2640  0.0557
   17MOL   H524 9516   4.066   2.172   2.614  0.9271  0.8371  0.7363
   17MOL   H525 9517   3.873   2.299   2.499  1.7414  3.6736  0.1392
   17MOL   H526 9518   3.796   2.533   2.565  0.0136 -0.9083 -1.9865
   17MOL   H527 9519   3.730   2.795   2.529  0.9094  0.6605 -0.5620
   17MOL   H528 9520   3.570   2.952   2.409 -0.2143  0.1937 -0.7235
   17MOL   H529 9521   3.420   2.971   2.236 -0.3233 -0.2868 -0.2677
   17MOL   H530 9522   3.327   2.608   2.309  0.9390 -0.3144 -1.6683
   17MOL   H531 9523   3.477   2.470   2.416  2.5324 -0.2859  0.2119
   17MOL   H532 9524   3.701   2.350   2.888  0.7435  0.4131  0.1689
   17MOL   H533 9525   3.897   2.248   2.995  0.3249 -0.7904  0.2719
   17MOL   C534 9526   3.242   2.899   2.224  0.0873  0.3260 -0.6709
   17MOL   C535 9527   3.214   3.017   2.134  0.1702 -0.5707 -0.1665
   17MOL   C536 9528   3.097   3.029   2.059 -0.2238  0.0400 -0.2924
   17MOL   C537 9529   3.067   3.124   1.965 -0.2675 -0.2421  0.0725
   17MOL   C538 9530   3.162   3.220   1.937 -0.0541  0.5870 -1.1887
   17MOL   C539 9531   3.145   3.329   1.833 -0.8098  0.2523  0.3505
   17MOL   N540 9532   3.036   3.406   1.837  0.1047  0.1939  0.1638
   17MOL   C541 9533   3.012   3.529   1.774  0.0587  0.1606 -0.9456
   17MOL   C542 9534   3.111   3.615   1.744 -0.0760 -0.7874  0.5925
   17MOL   C543 9535   3.089   3.742   1.675 -0.4692  0.2775  0.4442
   17MOL   C544 9536   2.960   3.777   1.635  0.1985 -0.5562 -0.4120
   17MOL   N545 9537   2.942   3.892   1.561 -0.2969  0.3007 -0.4161
   17MOL   C546 9538   2.854   3.689   1.663 -0.0386 -0.3390 -0.3746
   17MOL   C547 9539   2.880   3.575   1.738 -0.8270  0.6101 -0.8654
   17MOL   O548 9540   3.231   3.334   1.737  0.4822 -0.1666 -0.0348
   17MOL   C549 9541   3.284   3.220   2.010 -0.1080  0.1990  0.0795
   17MOL   C550 9542   3.306   3.117   2.104 -0.0709  0.2395  0.1480
   17MOL   O551 9543   3.155   2.815   2.249  0.1899 -0.2547 -0.5318
   17MOL   H552 9544   3.022   2.953   2.076  0.0548 -0.3036 -0.5746
   17MOL   H553 9545   2.971   3.118   1.915  1.3745  2.9613 -3.7572
   17MOL   H554 9546   2.963   3.388   1.904  1.2671 -0.6677  1.2242
   17MOL   H555 9547   3.208   3.597   1.789 -0.3822  0.2758  1.7019
   17MOL   H556 9548   3.172   3.802   1.642 -0.6648 -0.0761 -0.7225
   17MOL   H557 9549   2.847   3.918   1.539  0.1190  0.5810 -1.9720
   17MOL   H558 9550   2.757   3.717   1.626  0.2083 -0.5419 -1.1798
   17MOL   H559 9551   2.794   3.514   1.760 -0.5745  0.5783  0.0265
   17MOL   H560 9552   3.365   3.290   1.998  0.3780 -0.3993 -0.1557
   17MOL   H561 9553   3.400   3.123   2.156 -0.4995 -0.7676  1.0697
   17MOL   H562 9554   3.004   3.972   1.560 -0.1062  0.1874  1.1504
   18MOL     C1 9555   4.766   0.693   7.678  0.3778  0.1463 -0.0078
   18MOL     C2 9556   4.675   0.618   7.583  0.8619  0.2878 -0.0800
   18MOL     C3 9557   4.720   0.514   7.501 -0.2619  0.0339  0.5021
   18MOL     C4 9558   4.637   0.468   7.389  0.2584  0.5352  0.4984
   18MOL     C5 9559   4.510   0.527   7.371 -0.1174  0.3138  0.2260
   18MOL     C6 9560   4.422   0.480   7.259  0.5337 -0.3833  0.0529
   18MOL     N7 9561   4.353   0.576   7.194 -0.3953  0.2984 -0.1254
   18MOL     C8 9562   4.258   0.565   7.081 -0.2221  0.3789  0.1790
   18MOL     C9 9563   4.183   0.451   7.053 -0.4481  0.1321 -0.7035
   18MOL    C10 9564   4.097   0.441   6.950  1.0928 -0.3952  0.5645
   18MOL    C11 9565   4.071   0.550   6.870  0.7448  0.0624  0.1156
   18MOL    N12 9566   3.976   0.551   6.765  0.1987  0.5553 -0.2160
   18MOL    C13 9567   4.140   0.669   6.888  0.1775  0.2540  0.3263
   18MOL    C14 9568   4.229   0.677   6.997  0.1035  0.2096 -0.5077
   18MOL    O15 9569   4.427   0.356   7.224 -0.1595 -0.7268 -0.1231
   18MOL    C16 9570   4.459   0.619   7.464 -0.2061 -0.4281 -0.8537
   18MOL    C17 9571   4.546   0.670   7.565  0.3784 -0.4315  0.3312
   18MOL    O18 9572   4.883   0.650   7.702  0.4168  0.1120  0.2591
   18MOL    H19 9573   4.820   0.479   7.520 -1.0102 -1.7882  1.1998
   18MOL    H20 9574   4.666   0.386   7.324 -0.7832  1.0075 -0.5885
   18MOL    H21 9575   4.375   0.669   7.226 -2.0205  0.1017  1.6363
   18MOL    H22 9576   4.200   0.363   7.113  2.2288 -0.2248 -1.9265
   18MOL    H23 9577   4.044   0.347   6.939  0.9973 -0.6113  2.7984
   18MOL    H24 9578   3.998   0.594   6.676  0.3832  1.2584  0.1636
   18MOL    H25 9579   4.128   0.757   6.825 -1.2893 -1.3337 -1.6712
   18MOL    H26 9580   4.283   0.769   7.014  0.4180  0.0842 -0.8130
   18MOL    H27 9581   4.355   0.645   7.457 -0.2017 -0.5161 -1.3182
   18MOL    H28 9582   4.495   0.742   7.628 -1.2553 -1.5043  0.2707
   18MOL    H29 9583   4.725   0.785   7.719  2.6881  0.4464  1.7431
   18MOL    C30 9584   3.858   0.483   6.769  0.2955 -0.6680 -0.4757
   18MOL    C31 9585   3.794   0.457   6.636 -0.2883 -0.2816 -0.0496
   18MOL    C32 9586   3.834   0.527   6.520  0.0027 -0.3800 -0.1988
   18MOL    C33 9587   3.758   0.504   6.400 -0.1826 -0.3203  0.8311
   18MOL    C34 9588   3.649   0.415   6.392 -0.6184 -0.1722 -0.7079
   18MOL    C35 9589   3.567   0.387   6.266  0.1753 -0.4333  0.1450
   18MOL    N36 9590   3.494   0.271   6.263  0.2795  0.3696 -0.3218
   18MOL    C37 9591   3.405   0.228   6.164 -0.1423  0.2867  0.4270
   18MOL    C38 9592   3.317   0.125   6.195 -0.0568 -0.1629 -0.8853
   18MOL    C39 9593   3.231   0.065   6.103 -0.1146 -0.1032  0.2615
   18MOL    C40 9594   3.241   0.109   5.974  0.7422 -0.7094 -0.4185
   18MOL    N41 9595   3.175   0.029   5.878  0.7441 -0.0929 -0.2605
   18MOL    C42 9596   3.322   0.222   5.930 -0.5458  0.0566 -0.5110
   18MOL    C43 9597   3.405   0.283   6.030 -0.0548 -0.0296 -0.0012
   18MOL    O44 9598   3.569   0.482   6.182  0.4918  0.3412  0.3323
   18MOL    C45 9599   3.630   0.334   6.508 -0.2228  0.5478 -0.3601
   18MOL    C46 9600   3.695   0.359   6.629  0.2356 -0.3660 -0.7917
   18MOL    O47 9601   3.804   0.439   6.874  0.2211  0.0707 -0.4804
   18MOL    H48 9602   3.911   0.602   6.513  1.2573 -1.3130  2.6851
   18MOL    H49 9603   3.778   0.561   6.310 -0.8251 -1.0045  0.2523
   18MOL    H50 9604   3.520   0.214   6.342 -1.0606  0.1815 -0.0185
   18MOL    H51 9605   3.302   0.081   6.293  0.7105  1.5417  0.0088
   18MOL    H52 9606   3.180   8.124   6.143 -3.4584  1.8614  0.4539
   18MOL    H53 9607   3.173   8.075   5.892 -1.0194  0.1348  1.4147
   18MOL    H54 9608   3.318   0.268   5.832 -0.4723  3.6823  1.1118
   18MOL    H55 9609   3.458   0.370   5.991 -1.1009  0.2977 -0.7187
   18MOL    H56 9610   3.558   0.253   6.506  0.1140  0.2550 -0.9571
   18MOL    H57 9611   3.663   0.308   6.719  1.5828 -1.8123 -1.0940
   18MOL    C58 9612   3.087   0.071   5.782 -0.9848  0.6277 -0.5300
   18MOL    C59 9613   3.050   8.109   5.686 -0.4271  0.4208 -0.6461
   18MOL    C60 9614   3.140   7.997   5.655  0.1161  0.0899 -0.3717
   18MOL    C61 9615   3.099   7.905   5.555  0.0506  0.6802  0.5248
   18MOL    C62 9616   2.980   7.928   5.478 -0.4137  0.3045 -0.6243
   18MOL    C63 9617   2.938   7.838   5.362  0.1942  0.8201 -0.6656
   18MOL    N64 9618   2.878   7.898   5.256  0.0032  0.3687 -0.7012
   18MOL    C65 9619   2.822   7.840   5.140  0.2109  0.3830 -0.2442
   18MOL    C66 9620   2.842   7.705   5.110 -0.0530 -0.0840 -0.5964
   18MOL    C67 9621   2.776   7.641   5.000 -0.3271  0.6051  0.0401
   18MOL    C68 9622   2.684   7.714   4.922 -0.4725 -0.4994 -0.0568
   18MOL    N69 9623   2.622   7.654   4.809 -0.3832  1.0172  0.1051
   18MOL    C70 9624   2.670   7.849   4.949  0.3298  0.3018 -0.4488
   18MOL    C71 9625   2.739   7.913   5.058  0.6329 -0.2801 -0.6054
   18MOL    O72 9626   2.946   7.716   5.374 -0.0959  0.3069 -0.1640
   18MOL    C73 9627   2.894   8.034   5.517 -0.1364 -0.5756 -0.0195
   18MOL    C74 9628   2.927   8.117   5.624  0.2893  0.7938 -0.8416
   18MOL    O75 9629   3.054   0.190   5.773  0.1886  0.4417  0.4106
   18MOL    H76 9630   3.237   7.990   5.702 -0.1331 -2.2768 -0.1785
   18MOL    H77 9631   3.158   7.816   5.540  0.2824  0.6169  1.7494
   18MOL    H78 9632   2.856   7.997   5.264 -1.1025  0.0129  0.7592
   18MOL    H79 9633   2.916   7.640   5.156  1.3059  0.1625 -2.3535
   18MOL    H80 9634   2.793   7.537   4.980  1.3694  0.4546  2.0621
   18MOL    H81 9635   2.526   7.681   4.791 -0.0663  1.4179 -1.0765
   18MOL    H82 9636   2.599   7.902   4.888  0.0873 -0.0471 -0.4680
   18MOL    H83 9637   2.720   8.018   5.073 -1.2407 -0.7801  0.6076
   18MOL    H84 9638   2.804   8.055   5.461  0.7789 -0.5173 -1.4867
   18MOL    H85 9639   2.858   0.052   5.645  0.1060 -0.2684  2.9357
   18MOL    C86 9640   2.664   7.549   4.738  0.5163  0.4557  0.4479
   18MOL    C87 9641   2.561   7.488   4.654  0.0267  0.2726  0.7867
   18MOL    C88 9642   2.576   7.360   4.594  0.5278  1.0508  1.1338
   18MOL    C89 9643   2.480   7.305   4.502 -0.4274 -0.6175 -0.5952
   18MOL    C90 9644   2.363   7.371   4.482  0.2128 -0.0197 -0.1099
   18MOL    C91 9645   2.251   7.305   4.407 -0.1939  0.1706  0.5710
   18MOL    N92 9646   2.135   7.370   4.411  0.0552 -0.6386 -0.5649
   18MOL    C93 9647   2.007   7.329   4.371 -0.2608 -0.3110  0.3246
   18MOL    C94 9648   1.974   7.195   4.343 -0.3309 -0.2848  0.5153
   18MOL    C95 9649   1.846   7.156   4.325  0.2117  0.3821  0.2997
   18MOL    C96 9650   1.745   7.245   4.340  0.4068  0.8017  0.4197
   18MOL    N97 9651   1.618   7.193   4.315 -0.0929 -0.4980 -0.1553
   18MOL    C98 9652   1.768   7.378   4.354 -0.2524 -0.0594 -0.0313
   18MOL    C99 9653   1.900   7.422   4.367 -0.3812  0.2381 -0.4603
   18MOL   O100 9654   2.273   7.198   4.343 -0.8490  0.4629  0.1284
   18MOL   C101 9655   2.350   7.505   4.531  0.9929 -0.5328  0.6186
   18MOL   C102 9656   2.443   7.560   4.611  0.2471  0.0911 -0.3068
   18MOL   O103 9657   2.776   7.504   4.739 -0.0679 -0.0267  0.5457
   18MOL   H104 9658   2.661   7.299   4.619  0.8895  0.8682 -0.4835
   18MOL   H105 9659   2.489   7.206   4.460 -0.1010 -2.9084  4.5005
   18MOL   H106 9660   2.141   7.461   4.456 -1.1892 -1.2867  0.9682
   18MOL   H107 9661   2.047   7.115   4.333 -0.4386 -0.0982 -2.2163
   18MOL   H108 9662   1.836   7.051   4.304 -1.1314  0.3122  1.2359
   18MOL   H109 9663   1.625   7.128   4.238  0.2997 -0.1678 -0.4039
   18MOL   H110 9664   1.695   7.458   4.358 -1.2778 -1.0404  1.4481
   18MOL   H111 9665   1.918   7.527   4.389  0.2519 -0.2949  1.7025
   18MOL   H112 9666   2.265   7.566   4.508  1.4489 -0.1510 -0.0662
   18MOL   H113 9667   2.432   7.666   4.629  0.7693 -0.2661  2.3561
   18MOL   C114 9668   1.509   7.208   4.391  0.6566 -0.5686 -0.3075
   18MOL   C115 9669   1.395   7.123   4.356  0.5233 -0.1673  0.2593
   18MOL   C116 9670   1.302   7.099   4.452 -0.0759 -0.0683  0.8360
   18MOL   C117 9671   1.196   7.005   4.426 -0.5256 -0.1356 -0.4361
   18MOL   C118 9672   1.186   6.940   4.300 -0.3207 -0.0562  0.1925
   18MOL   C119 9673   1.087   6.824   4.283 -0.2567  0.7586  0.5360
   18MOL   N120 9674   1.084   6.734   4.381  0.3375 -0.2541 -0.1361
   18MOL   C121 9675   1.188   6.706   4.473 -1.0768 -1.2877  0.6754
   18MOL   C122 9676   1.323   6.686   4.436  0.3730 -0.5165  0.1281
   18MOL   C123 9677   1.430   6.678   4.529  0.4385  0.4542 -0.5980
   18MOL   C124 9678   1.396   6.694   4.670  0.5433  0.4104  0.2990
   18MOL   N125 9679   1.498   6.707   4.767 -0.4647  0.4986 -0.4525
   18MOL   C126 9680   1.260   6.699   4.706  0.8212 -0.1183  0.0998
   18MOL   C127 9681   1.157   6.698   4.610  0.2361 -0.6184 -0.0633
   18MOL   O128 9682   1.043   6.796   4.176 -0.2068 -0.0432 -0.1212
   18MOL   C129 9683   1.265   6.991   4.195  0.4766 -0.5145  0.5427
   18MOL   C130 9684   1.377   7.070   4.227 -0.5180  0.1574 -0.8018
   18MOL   O131 9685   1.496   7.289   4.480  0.5533 -0.4980  0.3425
   18MOL   H132 9686   1.307   7.132   4.554 -0.5532  1.3366  0.4296
   18MOL   H133 9687   1.141   6.975   4.514 -1.8851  0.1856 -1.1590
   18MOL   H134 9688   1.017   6.659   4.378 -1.7944  1.5739  0.0974
   18MOL   H135 9689   1.347   6.681   4.331  0.9214  0.1833  0.2147
   18MOL   H136 9690   1.532   6.668   4.496  1.3835  0.3550  2.2060
   18MOL   H137 9691   1.466   6.720   4.862  2.0033  3.5440  0.0773
   18MOL   H138 9692   1.230   6.716   4.809 -0.3711 -1.2806 -0.0539
   18MOL   H139 9693   1.061   6.728   4.650  1.3733  1.2112  1.3927
   18MOL   H140 9694   1.243   6.947   4.099 -0.4378  0.3478  0.3521
   18MOL   H141 9695   1.448   7.093   4.149  3.0478  1.1906  2.5814
   18MOL   C142 9696   1.633   6.708   4.755  0.5255  0.1935 -0.0939
   18MOL   C143 9697   1.711   6.725   4.884  0.3057 -0.2640 -0.1542
   18MOL   C144 9698   1.850   6.709   4.887  0.5745 -0.1817  0.0010
   18MOL   C145 9699   1.929   6.734   5.003 -0.3654 -0.1254 -0.0096
   18MOL   C146 9700   1.856   6.768   5.119 -0.4006 -0.1019 -0.9933
   18MOL   C147 9701   1.923   6.789   5.253  0.0182  0.2048  0.3921
   18MOL   N148 9702   2.030   6.720   5.271  0.2010  0.7785  0.0418
   18MOL   C149 9703   2.114   6.728   5.386 -1.1020 -0.0210 -0.4074
   18MOL   C150 9704   2.253   6.756   5.371 -0.6101 -0.1369  0.5950
   18MOL   C151 9705   2.339   6.753   5.484 -0.5665 -0.5965  0.4699
   18MOL   C152 9706   2.286   6.717   5.610 -0.7834 -0.2255 -0.1582
   18MOL   N153 9707   2.377   6.718   5.719  0.2748 -0.4649 -0.8074
   18MOL   C154 9708   2.154   6.687   5.624  0.1799  0.2102  0.8152
   18MOL   C155 9709   2.062   6.692   5.517  1.0569  0.6501 -0.3659
   18MOL   O156 9710   1.877   6.869   5.338  0.6421 -0.2122  0.2970
   18MOL   C157 9711   1.718   6.800   5.116 -0.8688 -0.4356  0.6032
   18MOL   C158 9712   1.642   6.779   5.000 -0.1253 -0.0236  0.0762
   18MOL   O159 9713   1.689   6.696   4.649 -0.1330 -0.1502 -0.0550
   18MOL   H160 9714   1.900   6.676   4.797 -3.6086 -2.4413 -1.6236
   18MOL   H161 9715   2.034   6.713   4.992 -0.2847 -0.2309  0.9417
   18MOL   H162 9716   2.060   6.664   5.193 -2.0556 -1.0751  0.4473
   18MOL   H163 9717   2.296   6.786   5.277 -0.3414  1.8647  1.3310
   18MOL   H164 9718   2.443   6.777   5.469 -0.7202 -1.0888 -1.4071
   18MOL   H165 9719   2.446   6.791   5.709  0.9494 -1.2887 -2.4449
   18MOL   H166 9720   2.114   6.661   5.721 -0.3014  1.6536  1.0103
   18MOL   H167 9721   1.955   6.676   5.523  0.7093  2.8372 -0.3390
   18MOL   H168 9722   1.676   6.857   5.198  0.0534  2.5384 -0.9235
   18MOL   H169 9723   1.541   6.817   4.990 -0.2184 -0.4666 -0.6883
   18MOL   C170 9724   2.375   6.639   5.829  0.6448  0.5287 -0.0798
   18MOL   C171 9725   2.476   6.671   5.928 -0.4573  0.5011 -0.3081
   18MOL   C172 9726   2.450   6.709   6.060  0.8164 -0.3083 -0.5144
   18MOL   C173 9727   2.557   6.715   6.152  0.0097 -0.0994  0.5987
   18MOL   C174 9728   2.690   6.722   6.100 -0.0979  0.6377 -0.2242
   18MOL   C175 9729   2.811   6.745   6.188  0.4795 -0.9358  0.1078
   18MOL   N176 9730   2.786   6.730   6.316 -0.0002  0.4527 -0.9687
   18MOL   C177 9731   2.874   6.704   6.421  0.1690 -0.5955  0.3453
   18MOL   C178 9732   2.828   6.740   6.549 -0.1481  0.4273 -0.6826
   18MOL   C179 9733   2.911   6.701   6.659  0.1568  0.0990 -0.8312
   18MOL   C180 9734   3.028   6.624   6.645  0.0032  0.0729 -0.0340
   18MOL   N181 9735   3.104   6.591   6.758  0.2065 -0.1356  0.0056
   18MOL   C182 9736   3.074   6.595   6.516  0.6899  0.1962  0.4061
   18MOL   C183 9737   2.997   6.636   6.406 -0.6327 -0.2029 -0.2016
   18MOL   O184 9738   2.920   6.778   6.132 -0.3208 -0.5518  0.7642
   18MOL   C185 9739   2.713   6.680   5.966 -0.4587 -0.8473  0.1794
   18MOL   C186 9740   2.607   6.651   5.883 -0.1085  0.1208 -0.0230
   18MOL   O187 9741   2.284   6.559   5.860 -0.1418  0.2437  0.4428
   18MOL   H188 9742   2.351   6.730   6.098 -0.6416 -1.0061 -3.7463
   18MOL   H189 9743   2.547   6.748   6.254  1.1728  0.5940  0.5002
   18MOL   H190 9744   2.689   6.729   6.346  0.5931  1.7622  1.1074
   18MOL   H191 9745   2.742   6.801   6.572  0.5341  0.1344  3.1399
   18MOL   H192 9746   2.873   6.733   6.755 -1.3679  0.3077 -1.4781
   18MOL   H193 9747   3.088   6.658   6.832 -0.4043  2.6362 -2.5771
   18MOL   H194 9748   3.172   6.552   6.500 -0.2067 -2.9251  2.8660
   18MOL   H195 9749   3.041   6.600   6.314  0.8343 -1.5319  0.9910
   18MOL   H196 9750   2.812   6.664   5.926  0.1824  0.0425  1.3756
   18MOL   H197 9751   2.633   6.616   5.784  0.6664 -0.4035  0.3655
   18MOL   C198 9752   3.163   6.476   6.800  0.7678 -0.4930 -0.3671
   18MOL   C199 9753   3.171   6.362   6.701  0.4007 -0.1628  0.5319
   18MOL   C200 9754   3.089   6.248   6.708  0.2373 -0.0951 -0.3305
   18MOL   C201 9755   3.110   6.143   6.613 -0.0490 -0.8853  0.0792
   18MOL   C202 9756   3.205   6.156   6.514 -0.7156  0.0364  0.0902
   18MOL   C203 9757   3.211   6.062   6.402 -0.1449 -0.2944 -0.4359
   18MOL   N204 9758   3.129   6.097   6.308  0.2019 -0.2417  0.5594
   18MOL   C205 9759   3.083   6.026   6.198 -0.5495  0.1108  0.3424
   18MOL   C206 9760   3.061   6.104   6.082 -0.6574  0.1883  0.1665
   18MOL   C207 9761   3.016   6.048   5.963  0.4078  0.2370 -0.4435
   18MOL   C208 9762   2.992   5.914   5.954  0.4082  0.0983 -0.2019
   18MOL   N209 9763   2.959   5.859   5.825 -0.1913  0.5730  0.5932
   18MOL   C210 9764   3.019   5.836   6.070 -0.3612 -0.1993  0.6201
   18MOL   C211 9765   3.056   5.887   6.194 -0.7164 -0.1811 -0.3888
   18MOL   O212 9766   3.271   5.955   6.407 -0.1375 -0.6655  0.1877
   18MOL   C213 9767   3.292   6.264   6.511  0.0741  0.2986 -0.0508
   18MOL   C214 9768   3.275   6.364   6.608  0.1700  0.1633  0.2595
   18MOL   O215 9769   3.192   6.461   6.922  0.3006  0.1953  0.3952
   18MOL   H216 9770   3.018   6.241   6.790  1.4686  1.0073  0.8403
   18MOL   H217 9771   3.043   6.058   6.610  1.5523 -2.2466  1.6545
   18MOL   H218 9772   3.105   6.195   6.314  1.3474 -0.0344  2.0771
   18MOL   H219 9773   3.089   6.209   6.080  1.3311 -0.2900  0.9409
   18MOL   H220 9774   2.994   6.109   5.876  1.3047  1.3283  0.0772
   18MOL   H221 9775   2.996   5.915   5.749 -0.4502 -2.5939 -1.9488
   18MOL   H222 9776   3.018   5.730   6.054  1.6370 -0.2263  0.5986
   18MOL   H223 9777   3.081   5.829   6.282 -1.2354  0.3543  0.1063
   18MOL   H224 9778   3.366   6.276   6.434  1.7145 -1.7711  1.1548
   18MOL   H225 9779   3.343   6.448   6.614 -1.5859  1.7350 -1.2551
   18MOL   C226 9780   2.884   5.750   5.795  0.0072  0.3439  0.0369
   18MOL   C227 9781   2.871   5.730   5.648 -0.2154  0.0365 -0.3989
   18MOL   C228 9782   2.973   5.777   5.563  0.2276 -0.1447  0.5066
   18MOL   C229 9783   2.938   5.792   5.423 -0.8136  0.3257  0.3263
   18MOL   C230 9784   2.819   5.736   5.373 -0.5459  0.1936 -0.6059
   18MOL   C231 9785   2.785   5.752   5.232  1.1564 -0.6059  0.4032
   18MOL   N232 9786   2.832   5.863   5.169  0.0713  0.1153 -0.0191
   18MOL   C233 9787   2.783   5.919   5.051  0.7246 -0.0743  0.2383
   18MOL   C234 9788   2.710   6.038   5.057  0.0724 -0.1812 -0.4424
   18MOL   C235 9789   2.660   6.104   4.947 -0.3206  0.0479 -0.1683
   18MOL   C236 9790   2.675   6.042   4.817 -0.1527 -0.2567 -0.1881
   18MOL   N237 9791   2.625   6.097   4.691 -0.3995 -0.3266  0.4229
   18MOL   C238 9792   2.737   5.909   4.811 -0.1163 -0.2324  0.8087
   18MOL   C239 9793   2.791   5.847   4.926 -0.5302 -0.0997 -0.4928
   18MOL   O240 9794   2.727   5.662   5.173 -0.1682 -0.3431  0.0367
   18MOL   C241 9795   2.735   5.665   5.458  0.3754 -0.2030 -0.1002
   18MOL   C242 9796   2.760   5.668   5.591 -0.1286  0.0014 -0.9958
   18MOL   O243 9797   2.835   5.666   5.871  0.1863  0.1402  0.1618
   18MOL   H244 9798   3.067   5.820   5.595  2.1777 -0.8557 -3.8664
   18MOL   H245 9799   2.996   5.851   5.354  0.3401  0.6977  1.5919
   18MOL   H246 9800   2.880   5.929   5.228 -1.8300  1.2605  0.2880
   18MOL   H247 9801   2.691   6.090   5.150 -0.1311  1.4553 -1.3934
   18MOL   H248 9802   2.620   6.204   4.952  1.8269  0.9735 -0.7246
   18MOL   H249 9803   2.667   6.055   4.609  2.1183  3.0769 -0.1453
   18MOL   H250 9804   2.741   5.852   4.720 -0.2860  0.0732  0.6096
   18MOL   H251 9805   2.828   5.746   4.920  1.8365  0.7684 -0.7854
   18MOL   H252 9806   2.641   5.626   5.420  0.1299  2.0886 -1.8914
   18MOL   H253 9807   2.682   5.618   5.646  1.3110 -1.5644 -0.3421
   18MOL   C254 9808   2.538   6.198   4.680 -0.3889 -0.5535  0.7666
   18MOL   C255 9809   2.508   6.243   4.538  0.2546  0.9885 -0.7422
   18MOL   C256 9810   2.437   6.363   4.521  0.1767  0.6869 -0.2168
   18MOL   C257 9811   2.415   6.423   4.395  0.3521 -0.1783 -0.6470
   18MOL   C258 9812   2.438   6.350   4.277  0.0181 -0.3612 -0.0919
   18MOL   C259 9813   2.394   6.404   4.148 -0.8788  0.7092  0.8823
   18MOL   N260 9814   2.366   6.534   4.149  0.9582 -0.3481  0.1729
   18MOL   C261 9815   2.301   6.616   4.051 -0.5618 -0.2661  0.4865
   18MOL   C262 9816   2.275   6.575   3.918 -0.5957 -0.0343 -0.6100
   18MOL   C263 9817   2.202   6.659   3.837 -0.0065 -0.1598  0.0071
   18MOL   C264 9818   2.169   6.791   3.877 -0.2158 -0.4743 -0.1853
   18MOL   N265 9819   2.108   6.873   3.783 -0.4737 -0.5404  0.2882
   18MOL   C266 9820   2.211   6.835   4.005  0.2795  0.3315 -0.1535
   18MOL   C267 9821   2.276   6.747   4.100  0.3595 -0.2304  0.3781
   18MOL   O268 9822   2.397   6.321   4.053 -0.0493 -0.2345 -1.0055
   18MOL   C269 9823   2.501   6.226   4.287  0.0703  0.1138 -0.2882
   18MOL   C270 9824   2.537   6.179   4.416 -0.5911  0.6891  0.4847
   18MOL   O271 9825   2.479   6.245   4.779  0.2668  0.4413 -0.1204
   18MOL   H272 9826   2.408   6.417   4.610 -0.3514  1.0469 -0.6039
   18MOL   H273 9827   2.363   6.517   4.404  3.4112  1.3530  1.8204
   18MOL   H274 9828   2.376   6.581   4.238 -0.0986  2.5984 -1.1725
   18MOL   H275 9829   2.296   6.475   3.883  1.0228 -0.9588  2.7769
   18MOL   H276 9830   2.195   6.621   3.736 -1.5751  1.5238 -0.5279
   18MOL   H277 9831   2.085   6.826   3.698  0.1694  2.6969 -1.7700
   18MOL   H278 9832   2.198   6.937   4.040  0.4274  0.9120 -1.7346
   18MOL   H279 9833   2.287   6.776   4.204 -0.2448  2.9604 -0.3980
   18MOL   H280 9834   2.530   6.165   4.203  0.3369 -0.8457  0.4836
   18MOL   H281 9835   2.580   6.079   4.413  2.7447  2.0610  0.2172
   18MOL   C282 9836   2.097   7.008   3.777  0.1997  0.4431  0.4998
   18MOL   C283 9837   2.033   7.061   3.649  0.3071 -1.1110 -1.1002
   18MOL   C284 9838   2.032   7.202   3.626 -0.0094  0.3729 -0.0389
   18MOL   C285 9839   1.952   7.262   3.525  0.2938 -0.0636  0.0694
   18MOL   C286 9840   1.870   7.177   3.451  0.2479  0.0429 -0.1469
   18MOL   C287 9841   1.779   7.240   3.345  0.2831 -0.4635  0.2663
   18MOL   N288 9842   1.650   7.193   3.331 -0.4963 -0.0831 -0.1541
   18MOL   C289 9843   1.568   7.117   3.411 -0.0010 -0.0215  0.3035
   18MOL   C290 9844   1.462   7.045   3.347 -0.3136 -0.0536 -0.2383
   18MOL   C291 9845   1.376   6.960   3.416  0.3434 -0.4826 -0.2617
   18MOL   C292 9846   1.404   6.941   3.554 -0.2294 -0.0908  0.5773
   18MOL   N293 9847   1.338   6.841   3.631  0.4044 -0.2949 -0.5511
   18MOL   C294 9848   1.508   7.009   3.622 -0.6164 -0.0316  0.1875
   18MOL   C295 9849   1.585   7.110   3.548  0.2842 -0.9383  0.6304
   18MOL   O296 9850   1.807   7.345   3.292 -0.7843 -0.0016  0.5207
   18MOL   C297 9851   1.874   7.035   3.462 -0.0201  0.8739  0.0731
   18MOL   C298 9852   1.954   6.978   3.567  0.3976  0.0945 -0.7557
   18MOL   O299 9853   2.131   7.092   3.863  0.1864  0.4479 -0.6915
   18MOL   H300 9854   2.098   7.259   3.689 -0.2669 -1.4184  1.9169
   18MOL   H301 9855   1.944   7.369   3.519 -1.2382 -0.2998 -2.9891
   18MOL   H302 9856   1.595   7.225   3.253 -2.6589  1.6426  2.0084
   18MOL   H303 9857   1.435   7.067   3.245  0.0729 -1.8442 -0.7548
   18MOL   H304 9858   1.301   6.907   3.360  3.5566 -2.4556 -2.9354
   18MOL   H305 9859   1.362   6.843   3.729  0.7452 -0.3090 -0.6370
   18MOL   H306 9860   1.525   6.987   3.726 -2.0046  0.7959  0.6000
   18MOL   H307 9861   1.664   7.168   3.593  0.4690 -0.8810  0.2313
   18MOL   H308 9862   1.810   6.969   3.406  0.3206  1.3299 -0.8590
   18MOL   H309 9863   1.964   6.872   3.584 -0.2392  0.4383  2.0746
   18MOL   C310 9864   1.237   6.761   3.601  0.5193 -0.4417  0.2361
   18MOL   C311 9865   1.195   6.666   3.711 -0.3229  0.7723  0.2073
   18MOL   C312 9866   1.143   6.547   3.668 -0.0230 -0.0371 -0.2162
   18MOL   C313 9867   1.101   6.443   3.757 -0.0926  0.2970  0.7706
   18MOL   C314 9868   1.117   6.456   3.897  0.0768  0.1366 -0.3318
   18MOL   C315 9869   1.088   6.339   3.991 -1.0122 -0.9319  0.6578
   18MOL   N316 9870   1.088   6.368   4.119 -0.0468 -0.3496  0.2067
   18MOL   C317 9871   1.126   6.276   4.222  0.5679  0.0424  0.6004
   18MOL   C318 9872   1.104   6.133   4.228  0.0025  0.3407  0.4239
   18MOL   C319 9873   1.157   6.059   4.334  0.2883 -0.7979 -0.2840
   18MOL   C320 9874   1.239   6.128   4.428 -0.1544 -0.4394  1.0073
   18MOL   N321 9875   1.318   6.061   4.520 -0.1288  0.0619  0.2298
   18MOL   C322 9876   1.249   6.264   4.431 -1.1232  1.0081 -0.6659
   18MOL   C323 9877   1.191   6.339   4.324 -0.4019  0.1216 -0.1177
   18MOL   O324 9878   1.052   6.229   3.949  0.1416  0.0600  0.1167
   18MOL   C325 9879   1.172   6.582   3.948 -0.5668 -0.3201 -0.2157
   18MOL   C326 9880   1.209   6.685   3.856  0.1381 -0.4145 -0.0114
   18MOL   O327 9881   1.178   6.755   3.496  0.2487  0.2940  0.1010
   18MOL   H328 9882   1.125   6.533   3.562  0.8544 -2.4237 -0.0733
   18MOL   H329 9883   1.071   6.348   3.715  3.6420 -1.5204  1.9459
   18MOL   H330 9884   1.083   6.466   4.144  0.5594  0.0083 -1.0604
   18MOL   H331 9885   1.067   6.083   4.140  1.2511 -0.1352  0.1636
   18MOL   H332 9886   1.151   5.952   4.343  2.2787 -1.0513 -1.6164
   18MOL   H333 9887   1.348   6.121   4.595  0.0440  0.4263 -0.1270
   18MOL   H334 9888   1.295   6.317   4.512 -1.3462 -1.2722  1.0040
   18MOL   H335 9889   1.201   6.446   4.313 -1.0117 -0.0142 -2.3832
   18MOL   H336 9890   1.175   6.613   4.052 -0.5883 -1.0659  0.0077
   18MOL   H337 9891   1.241   6.778   3.902  1.2762 -0.2336 -1.1375
   18MOL   C338 9892   1.379   5.939   4.512  0.1611 -0.0191 -0.1222
   18MOL   C339 9893   1.471   5.909   4.631  0.5100 -0.2387  0.1711
   18MOL   C340 9894   1.512   5.778   4.662  0.6583  0.5073  1.0687
   18MOL   C341 9895   1.589   5.751   4.773 -0.3416  0.2365 -1.0945
   18MOL   C342 9896   1.637   5.852   4.855  0.1885 -0.1887  0.2580
   18MOL   C343 9897   1.730   5.821   4.969  0.4448 -0.2078  0.1160
   18MOL   N344 9898   1.678   5.854   5.090 -0.4027 -0.5853 -0.6598
   18MOL   C345 9899   1.737   5.857   5.220 -0.0206 -0.2056  0.0921
   18MOL   C346 9900   1.853   5.779   5.257 -0.1218 -0.9599 -0.1216
   18MOL   C347 9901   1.900   5.787   5.389 -0.1068 -0.2385 -0.4369
   18MOL   C348 9902   1.844   5.876   5.482  0.7096  0.5606  0.4575
   18MOL   N349 9903   1.895   5.895   5.617 -0.0430 -0.1496  0.3272
   18MOL   C350 9904   1.723   5.939   5.453 -0.0848 -0.2332  0.4547
   18MOL   C351 9905   1.668   5.926   5.326  0.1433 -0.4683  0.1179
   18MOL   O352 9906   1.842   5.776   4.952 -0.2730  0.5015  0.2013
   18MOL   C353 9907   1.612   5.984   4.811 -0.1565 -0.8080 -0.3464
   18MOL   C354 9908   1.522   6.014   4.708  0.4194  1.1813  0.2047
   18MOL   O355 9909   1.350   5.853   4.430  0.3570 -0.8818  0.0503
   18MOL   H356 9910   1.462   5.695   4.614 -0.5652  3.4949 -2.9735
   18MOL   H357 9911   1.632   5.653   4.786  1.7879  1.5684  2.3653
   18MOL   H358 9912   1.578   5.867   5.093 -0.2151  0.6630  0.4242
   18MOL   H359 9913   1.902   5.721   5.180 -0.2876 -0.0588 -0.9095
   18MOL   H360 9914   1.983   5.727   5.424  1.0032  1.8624  0.6242
   18MOL   H361 9915   1.829   5.931   5.684  0.0185  1.6248 -0.5358
   18MOL   H362 9916   1.678   5.995   5.534  1.0586  1.3467  0.0238
   18MOL   H363 9917   1.578   5.984   5.310 -0.2199 -0.8192  0.8649
   18MOL   H364 9918   1.638   6.065   4.878  0.4098 -1.4229  0.1728
   18MOL   H365 9919   1.498   6.118   4.692 -1.2814  0.6473 -0.7880
   18MOL   C366 9920   2.027   5.916   5.646  0.5744  0.0659  0.4293
   18MOL   C367 9921   2.059   5.966   5.782  0.3246 -0.0175 -0.3286
   18MOL   C368 9922   1.978   5.938   5.896  0.1137  0.7511 -0.4748
   18MOL   C369 9923   1.992   6.004   6.020 -0.1267  1.0395  0.6221
   18MOL   C370 9924   2.104   6.094   6.035 -0.1458 -0.3426  0.5786
   18MOL   C371 9925   2.109   6.173   6.165  0.5923  0.4433 -0.2088
   18MOL   N372 9926   2.233   6.223   6.194  0.0193 -0.6176  0.2368
   18MOL   C373 9927   2.272   6.310   6.300  0.5976 -0.2635 -0.1513
   18MOL   C374 9928   2.378   6.394   6.274 -0.3945 -0.1143  0.4227
   18MOL   C375 9929   2.419   6.480   6.374  0.8491 -0.6122  0.0674
   18MOL   C376 9930   2.348   6.479   6.501  0.0106  0.5322  0.5227
   18MOL   N377 9931   2.368   6.576   6.605  0.1814  0.5722  0.1467
   18MOL   C378 9932   2.237   6.396   6.525  0.1566 -0.0155 -0.6026
   18MOL   C379 9933   2.204   6.309   6.421 -0.3514  0.0392  0.0401
   18MOL   O380 9934   2.008   6.176   6.237  0.0257  0.0545  0.1862
   18MOL   C381 9935   2.193   6.122   5.924 -0.3689 -0.3965  0.4150
   18MOL   C382 9936   2.173   6.057   5.801 -0.5298 -0.3299  0.3990
   18MOL   O383 9937   2.121   5.902   5.563  0.2259  0.1620 -0.6678
   18MOL   H384 9938   1.893   5.872   5.881  1.2447 -0.6495 -0.8506
   18MOL   H385 9939   1.916   6.000   6.096 -0.3934 -0.5306  0.2892
   18MOL   H386 9940   2.299   6.178   6.132 -1.4767 -1.3064 -0.8954
   18MOL   H387 9941   2.441   6.385   6.188 -0.3678  1.5090  0.2622
   18MOL   H388 9942   2.505   6.543   6.361  1.5892 -1.3614  1.2699
   18MOL   H389 9943   2.316   6.559   6.690 -0.5027  2.8748  0.2438
   18MOL   H390 9944   2.175   6.388   6.614  1.2707  0.9656  0.2701
   18MOL   H391 9945   2.115   6.251   6.444 -1.0980  0.5677 -1.4149
   18MOL   H392 9946   2.280   6.187   5.922 -1.2256  0.7577 -0.2447
   18MOL   H393 9947   2.235   6.090   5.719 -0.4786 -0.1755  0.4995
   18MOL   C394 9948   2.417   6.700   6.597 -0.8983  0.8177  0.5476
   18MOL   C395 9949   2.383   6.786   6.709 -0.2226 -0.5037  0.3071
   18MOL   C396 9950   2.472   6.886   6.754 -0.3279  0.0572  0.1252
   18MOL   C397 9951   2.430   6.966   6.860  0.1902  0.0354  0.6363
   18MOL   C398 9952   2.306   6.954   6.921  0.7526 -0.8140 -0.1713
   18MOL   C399 9953   2.265   7.044   7.034 -0.9260 -0.1457  0.7106
   18MOL   N400 9954   2.362   7.127   7.089 -0.5973 -0.4481 -0.0173
   18MOL   C401 9955   2.350   7.228   7.194  0.1706  0.1324  1.1147
   18MOL   C402 9956   2.462   7.312   7.215  0.4537 -0.7922 -0.2289
   18MOL   C403 9957   2.459   7.422   7.306 -0.4870 -0.8803 -0.0165
   18MOL   C404 9958   2.353   7.443   7.388  0.2008  0.0861 -0.8889
   18MOL   N405 9959   2.368   7.545   7.482  0.0441  0.0886 -0.1222
   18MOL   C406 9960   2.244   7.356   7.379  0.5142  0.0707 -0.1460
   18MOL   C407 9961   2.233   7.267   7.273  0.0467  0.2484 -0.5098
   18MOL   O408 9962   2.154   7.040   7.086  0.5237  0.7850 -0.2897
   18MOL   C409 9963   2.214   6.863   6.877 -0.3551  1.0778  0.2520
   18MOL   C410 9964   2.249   6.781   6.762 -1.0120 -0.3775 -0.8451
   18MOL   O411 9965   2.497   6.738   6.510  0.2305 -0.5711  0.2077
   18MOL   H412 9966   2.573   6.883   6.715 -0.0408 -1.0248  0.9211
   18MOL   H413 9967   2.495   7.046   6.892  1.1525 -0.8268  0.8682
   18MOL   H414 9968   2.453   7.112   7.047 -0.7012 -1.9079  0.2474
   18MOL   H415 9969   2.549   7.306   7.151  0.4541 -3.3562 -0.0637
   18MOL   H416 9970   2.543   7.489   7.303 -1.1139  0.0354  2.1927
   18MOL   H417 9971   2.464   7.560   7.510  0.7505 -2.6607 -1.0062
   18MOL   H418 9972   2.154   7.379   7.434  0.2177 -3.7040  1.1141
   18MOL   H419 9973   2.147   7.209   7.243  1.3362 -1.1087 -1.6924
   18MOL   H420 9974   2.116   6.853   6.921 -0.4953  0.0615 -0.2942
   18MOL   H421 9975   2.181   6.704   6.728 -0.1734 -0.9252 -1.2902
   18MOL   C422 9976   2.279   7.619   7.550 -0.1015  0.1498 -0.1927
   18MOL   C423 9977   2.334   7.742   7.617 -0.3953 -0.2127  0.0609
   18MOL   C424 9978   2.271   7.811   7.726  0.2609 -0.2387  0.6390
   18MOL   C425 9979   2.321   7.924   7.790 -0.1222  0.0726 -0.0672
   18MOL   C426 9980   2.428   7.990   7.728  0.5085 -0.3581  0.2583
   18MOL   C427 9981   2.479   8.120   7.780  0.0150  0.7128 -0.3598
   18MOL   N428 9982   2.513   0.065   7.684 -0.2997 -0.2148  0.4513
   18MOL   C429 9983   2.486   0.058   7.543  0.4615 -0.7956  0.7712
   18MOL   C430 9984   2.594   0.093   7.454  0.1012 -0.2837  0.7632
   18MOL   C431 9985   2.580   0.084   7.315 -0.3335  0.4596  0.8937
   18MOL   C432 9986   2.454   0.048   7.259  0.2706  0.2010 -0.3047
   18MOL   N433 9987   2.431   0.021   7.126 -0.5129  0.9442  0.1550
   18MOL   C434 9988   2.339   0.036   7.348 -0.2252 -0.2216 -0.1568
   18MOL   C435 9989   2.357   0.038   7.482 -0.4485  0.6357  0.3953
   18MOL   O436 9990   2.493   8.144   7.899  0.5141 -0.0233  0.3884
   18MOL   C437 9991   2.500   7.928   7.620 -0.3714 -0.3794  0.6007
   18MOL   C438 9992   2.453   7.807   7.564  0.0262  0.4448 -0.3240
   18MOL   O439 9993   2.157   7.591   7.560 -0.3723  0.6723 -0.2452
   18MOL   H440 9994   2.182   7.761   7.759 -1.0113  0.8656 -1.0604
   18MOL   H441 9995   2.273   7.968   7.875  2.5817  1.0845  1.0009
   18MOL   H442 9996   2.550   0.154   7.712 -3.8228  1.1090  1.2327
   18MOL   H443 9997   2.683   0.130   7.504  0.0545  1.0600 -0.1060
   18MOL   H444 9998   2.661   0.100   7.247 -1.6384 -0.2559 -0.8610
   18MOL   H445 9999   2.336   0.009   7.095 -0.7737 -0.0787  1.3387
   18MOL   H44610000   2.237   0.017   7.318  0.0696 -0.7443 -0.8496
   18MOL   H44710001   2.276   0.030   7.553 -1.4472 -0.1751 -0.8174
   18MOL   H44810002   2.599   7.961   7.593 -0.6629  0.3740  0.4435
   18MOL   H44910003   2.511   7.756   7.489 -0.8498 -0.9756 -0.0522
   18MOL   C45010004   2.518   8.118   7.032  0.4178 -0.5472  0.3994
   18MOL   C45110005   2.458   8.061   6.914 -0.1313  0.5188  0.3118
   18MOL   C45210006   2.345   7.975   6.934  0.0400 -0.9123  0.5829
   18MOL   C45310007   2.284   7.917   6.823 -0.4126  0.1395 -0.7067
   18MOL   C45410008   2.339   7.935   6.696 -0.5349 -0.1407  0.2119
   18MOL   C45510009   2.292   7.854   6.576  0.3033 -0.2021  0.0657
   18MOL   N45610010   2.160   7.857   6.539  0.7430 -0.3191  0.5329
   18MOL   C45710011   2.053   7.945   6.576 -0.3080 -0.3887 -0.0295
   18MOL   C45810012   1.920   7.900   6.585 -1.3116 -0.4532  1.1036
   18MOL   C45910013   1.818   7.991   6.617  0.3210  0.6585  0.4735
   18MOL   C46010014   1.847   8.126   6.657  0.3433  0.2038  0.4982
   18MOL   N46110015   1.755   0.080   6.701  0.7075  0.4149  0.4939
   18MOL   C46210016   1.979   0.022   6.659 -0.3045 -0.1311 -0.4096
   18MOL   C46310017   2.083   8.077   6.618 -0.0893  0.1702 -0.1875
   18MOL   O46410018   2.375   7.784   6.517 -0.0235 -0.6509  0.0496
   18MOL   C46510019   2.435   8.030   6.673 -0.2882 -0.8339 -0.4285
   18MOL   C46610020   2.498   8.090   6.784  0.6147  0.1500  0.2619
   18MOL   O46710021   2.638   8.125   7.051  0.2661 -0.9009 -0.3305
   18MOL   H46810022   2.300   7.946   7.028  0.2266 -1.6745  0.4326
   18MOL   H46910023   2.192   7.865   6.845  0.5165 -1.0897  0.2924
   18MOL   H47010024   2.132   7.782   6.478 -1.1243  1.4974 -0.9176
   18MOL   H47110025   1.897   7.797   6.560  2.5216 -1.4806  1.4118
   18MOL   H47210026   1.715   7.959   6.618  1.2139 -2.4852 -0.4878
   18MOL   H47310027   1.791   0.159   6.751  0.4521  0.2758  0.9006
   18MOL   H47410028   2.006   0.123   6.685  0.1419 -0.1436 -0.8118
   18MOL   H47510029   2.183   8.117   6.616  0.7012 -1.7344 -0.8869
   18MOL   H47610030   2.483   8.057   6.580 -0.7617 -0.2126 -0.5016
   18MOL   H47710031   2.573   0.021   6.772  0.7992  0.0447  0.7403
   18MOL   C47810032   1.619   0.083   6.703 -0.7074  0.8601  0.1689
   18MOL   C47910033   1.563   0.179   6.797  0.3243  0.1708  0.6545
   18MOL   C48010034   1.471   0.140   6.893 -0.3699  0.1662 -0.7665
   18MOL   C48110035   1.420   0.232   6.985 -0.2584  0.4274 -0.7607
   18MOL   C48210036   1.458   0.368   6.979 -0.0462 -0.2688  0.5138
   18MOL   C48310037   1.408   0.460   7.086 -0.4618  0.0892 -0.3124
   18MOL   N48410038   1.405   0.413   7.213  0.1705  0.1401 -0.6661
   18MOL   C48510039   1.434   0.475   7.332 -0.3326  0.6220 -0.0932
   18MOL   C48610040   1.499   0.601   7.346  1.1407 -0.6241 -0.5258
   18MOL   C48710041   1.547   0.642   7.474  1.0008  0.3558  0.4224
   18MOL   C48810042   1.523   0.569   7.587 -0.7138 -1.4418  0.1097
   18MOL   N48910043   1.573   0.614   7.707  0.2514  0.3027 -1.0903
   18MOL   C49010044   1.441   0.454   7.575  0.4073  0.2985 -0.4711
   18MOL   C49110045   1.403   0.402   7.451 -1.1297  0.2359 -0.0767
   18MOL   O49210046   1.380   0.578   7.064  0.0903  0.0122 -0.3271
   18MOL   C49310047   1.541   0.412   6.877  0.3503  0.2180 -0.7800
   18MOL   C49410048   1.594   0.317   6.789  0.0746 -0.8190  0.5087
   18MOL   O49510049   1.547   8.142   6.651 -0.2915 -0.1319  0.3797
   18MOL   H49610050   1.428   0.042   6.906 -4.0154  1.9887  1.7959
   18MOL   H49710051   1.360   0.201   7.069 -0.1183  0.5434 -0.6154
   18MOL   H49810052   1.403   0.312   7.223  2.1107  0.2060  0.7872
   18MOL   H49910053   1.512   0.662   7.257  1.0152 -0.3924 -0.3840
   18MOL   H50010054   1.585   0.743   7.481  0.6511  0.6850 -1.9366
   18MOL   H50110055   1.666   0.655   7.702  1.9031 -3.0778  0.3135
   18MOL   H50210056   1.419   0.409   7.671  1.1257 -2.0378 -1.3671
   18MOL   H50310057   1.357   0.305   7.451 -1.1344  0.2248  1.0086
   18MOL   H50410058   1.574   0.514   6.871 -1.4065  0.8195 -0.4442
   18MOL   H50510059   1.659   0.353   6.711 -0.1748 -1.0174  0.2088
   18MOL   C50610060   1.536   0.614   7.839 -0.0681 -0.3925  0.2130
   18MOL   C50710061   1.629   0.686   7.930  0.1588 -0.4545 -0.3975
   18MOL   C50810062   1.592   0.710   8.063 -0.0868  0.3826  0.6519
   18MOL   C50910063   1.676   0.770   0.009 -0.6876 -0.2448  0.0982
   18MOL   C51010064   1.812   0.806   8.130  0.1964  0.1225 -0.1420
   18MOL   C51110065   1.903   0.858   0.087  0.3586  0.6552 -0.8926
   18MOL   N51210066   1.863   0.857   0.211 -0.2658 -0.0927  0.1709
   18MOL   C51310067   1.925   0.916   0.328 -0.0791 -0.0116 -0.0497
   18MOL   C51410068   1.886   0.864   0.453 -0.1242  0.1788 -0.2751
   18MOL   C51510069   1.910   0.945   0.566 -0.5850  0.0397 -0.4429
   18MOL   C51610070   1.997   1.061   0.561  0.1432  0.2021  0.1385
   18MOL   N51710071   2.044   1.129   0.674  0.5961  0.5571 -0.0609
   18MOL   C51810072   2.046   1.100   0.438 -0.8141 -0.3168  0.2711
   18MOL   C51910073   2.007   1.035   0.321  0.6230 -0.0988 -0.4293
   18MOL   O52010074   2.010   0.907   0.049 -0.2708  0.1984 -0.4496
   18MOL   C52110075   1.852   0.787   7.998  0.1194 -0.4149  1.3017
   18MOL   C52210076   1.762   0.733   7.896 -0.1647  0.0275 -1.2059
   18MOL   O52310077   1.433   0.567   7.883  0.1818  0.1600 -0.6771
   18MOL   H52410078   1.501   0.666   8.102  0.5565  0.6063  2.4361
   18MOL   H52510079   1.634   0.796   0.104 -0.3239  1.1934 -0.1175
   18MOL   H52610080   1.779   0.803   0.225 -0.9655  0.9166 -0.1213
   18MOL   H52710081   1.818   0.780   0.456 -0.6977  0.6027 -1.1477
   18MOL   H52810082   1.869   0.921   0.662 -0.3743  0.9255 -0.1256
   18MOL   H52910083   2.077   1.223   0.655  1.2855  0.2729 -0.2757
   18MOL   H53010084   2.109   1.187   0.429  0.0951 -0.8077  1.7003
   18MOL   H53110085   2.052   1.078   0.233 -1.6638  0.8084 -1.1808
   18MOL   H53210086   1.948   0.806   7.953 -0.8044 -1.1732 -1.1096
   18MOL   H53310087   1.799   0.720   7.796 -1.9463 -1.3346 -1.7122
   18MOL   C53410088   2.043   1.092   0.804  0.2436  0.7920  0.8462
   18MOL   C53510089   2.074   1.195   0.906 -0.6572 -0.4042  0.4163
   18MOL   C53610090   2.050   1.335   0.881  0.0271 -0.3755 -0.4859
   18MOL   C53710091   2.065   1.432   0.985 -0.3671 -0.6331 -0.0579
   18MOL   C53810092   2.111   1.388   1.110  0.1582 -0.1443  0.1749
   18MOL   C53910093   2.133   1.495   1.211 -0.3090 -0.0404 -1.0000
   18MOL   N54010094   2.125   1.456   1.337 -1.2025  0.2724  0.3720
   18MOL   C54110095   2.156   1.528   1.451 -0.6745 -0.5103 -0.3612
   18MOL   C54210096   2.098   1.467   1.563  0.3623  0.2207  0.1257
   18MOL   C54310097   2.126   1.505   1.695 -0.1928  0.6944  0.6271
   18MOL   C54410098   2.218   1.613   1.719  0.4431 -0.1057 -0.4170
   18MOL   N54510099   2.248   1.657   1.842 -0.2439  0.7554 -0.2276
   18MOL   C54610100   2.279   1.680   1.608  0.4585  0.2971  0.6559
   18MOL   C54710101   2.244   1.641   1.476  0.0468 -0.2928 -0.6521
   18MOL   O54810102   2.154   1.611   1.177  0.0440 -0.4487  0.2637
   18MOL   C54910103   2.147   1.254   1.130 -0.1487 -0.4046 -0.8076
   18MOL   C55010104   2.123   1.156   1.032  0.0978  0.1164  0.7441
   18MOL   O55110105   2.035   0.974   0.839 -0.0290  0.2816 -0.1156
   18MOL   H55210106   1.998   1.359   0.789 -1.1390  0.2981  0.3337
   18MOL   H55310107   2.020   1.530   0.977 -1.5235 -1.0533  0.9996
   18MOL   H55410108   2.101   1.358   1.347  2.2081 -0.6172  0.4730
   18MOL   H55510109   2.026   1.387   1.549  0.5829  0.1962 -0.9529
   18MOL   H55610110   2.081   1.456   1.780  0.8216 -0.3177  0.5897
   18MOL   H55710111   2.327   1.713   1.872  0.5266 -0.4989  0.1004
   18MOL   H55810112   2.351   1.758   1.629 -0.3122  0.6703  1.9000
   18MOL   H55910113   2.293   1.695   1.397  0.2447  0.1257 -0.2441
   18MOL   H56010114   2.192   1.226   1.224  0.7856  1.1497 -0.7870
   18MOL   H56110115   2.147   1.052   1.049 -0.4814  0.0974  1.4631
   18MOL   H56210116   2.209   1.599   1.915 -0.0518  0.2597 -0.5235
   19MOL     C110117   5.185   2.261   3.411  0.1610  0.1355  0.8349
   19MOL     C210118   5.161   2.203   3.275 -0.0725  0.4218 -0.5878
   19MOL     C310119   5.211   2.260   3.156  0.0015  0.0708 -0.1503
   19MOL     C410120   5.170   2.206   3.033  0.3420  0.3144 -0.2408
   19MOL     C510121   5.070   2.111   3.022  0.6128 -0.3323 -0.3068
   19MOL     C610122   5.020   2.066   2.889  0.3090  0.2410 -0.2152
   19MOL     N710123   4.934   1.963   2.889  0.1562 -0.2479  0.1149
   19MOL     C810124   4.853   1.908   2.788 -0.0024  0.5787 -0.6082
   19MOL     C910125   4.785   1.786   2.804  0.2890 -0.6443 -0.5486
   19MOL    C1010126   4.691   1.741   2.710 -0.2560 -0.0886  0.2784
   19MOL    C1110127   4.672   1.810   2.587  0.7707  0.0968  0.4625
   19MOL    N1210128   4.591   1.767   2.485 -0.1601 -0.1601 -0.0710
   19MOL    C1310129   4.740   1.932   2.575 -0.4585  0.0627  0.2755
   19MOL    C1410130   4.825   1.981   2.673 -0.5593 -0.3336 -0.2106
   19MOL    O1510131   5.065   2.117   2.790  0.1227  0.2191  0.1044
   19MOL    C1610132   5.030   2.050   3.144  0.1380 -1.2026 -1.1775
   19MOL    C1710133   5.075   2.085   3.269 -1.1901 -0.0922  0.0320
   19MOL    O1810134   5.238   2.373   3.431  0.0698 -0.2908  0.0207
   19MOL    H1910135   5.278   2.345   3.155 -1.3676  1.1651 -0.3799
   19MOL    H2010136   5.213   2.256   2.947 -0.4232  1.1074 -0.1685
   19MOL    H2110137   4.940   1.914   2.977  1.5899  1.1324  0.8094
   19MOL    H2210138   4.799   1.727   2.894 -0.8149 -2.3764 -1.5023
   19MOL    H2310139   4.637   1.649   2.724 -2.1864  0.6452 -2.0313
   19MOL    H2410140   4.591   1.828   2.404 -0.9181  0.9997  0.7739
   19MOL    H2510141   4.717   1.994   2.490  0.4057 -0.5490 -0.4133
   19MOL    H2610142   4.869   2.079   2.664  0.8479 -0.8106  1.2923
   19MOL    H2710143   4.968   1.962   3.137 -0.2174 -0.9947 -0.6971
   19MOL    H2810144   5.029   2.040   3.356 -0.9986 -1.9508 -0.8214
   19MOL    H2910145   5.153   2.205   3.499  0.7616 -1.1671  0.2416
   19MOL    C3010146   4.497   1.665   2.478  0.4064 -0.1293 -0.1450
   19MOL    C3110147   4.424   1.654   2.344  0.3837 -0.1066 -0.4668
   19MOL    C3210148   4.367   1.763   2.276  0.3063  0.1344  0.1207
   19MOL    C3310149   4.311   1.743   2.145  0.1426  0.0812  0.6453
   19MOL    C3410150   4.318   1.621   2.073 -0.0134  0.1716 -0.3644
   19MOL    C3510151   4.268   1.601   1.932 -0.1706  0.1388 -0.5489
   19MOL    N3610152   4.320   1.494   1.867 -0.1757 -0.3014  0.5863
   19MOL    C3710153   4.288   1.442   1.734 -0.0403 -0.4331 -0.4692
   19MOL    C3810154   4.386   1.362   1.677 -0.0346 -0.0767  0.3829
   19MOL    C3910155   4.356   1.292   1.561  0.6767  0.1890  0.3890
   19MOL    C4010156   4.233   1.309   1.495  0.1421  0.1058 -0.3500
   19MOL    N4110157   4.209   1.230   1.374 -0.4232  0.2646  0.0588
   19MOL    C4210158   4.134   1.395   1.551 -0.2682  0.2852  0.1703
   19MOL    C4310159   4.165   1.459   1.671  0.7021  0.3523 -0.1249
   19MOL    O4410160   4.196   1.684   1.882 -0.3241 -0.4166 -0.1091
   19MOL    C4510161   4.372   1.514   2.150  0.1182  0.0719 -0.7065
   19MOL    C4610162   4.425   1.530   2.281  0.6790  0.3823  0.2670
   19MOL    O4710163   4.475   1.584   2.563  0.1356  0.4542 -0.1008
   19MOL    H4810164   4.360   1.860   2.322 -2.3914  0.0591 -0.0959
   19MOL    H4910165   4.276   1.830   2.092  1.5045  0.0485 -0.3409
   19MOL    H5010166   4.403   1.462   1.914 -0.8618 -0.6003  1.5993
   19MOL    H5110167   4.483   1.341   1.720 -0.9763 -0.5821  2.2986
   19MOL    H5210168   4.426   1.225   1.513 -0.5302 -1.3964  0.7993
   19MOL    H5310169   4.208   1.130   1.387 -0.7674  0.3026  0.3577
   19MOL    H5410170   4.039   1.406   1.501  0.2209  0.1973 -0.8054
   19MOL    H5510171   4.089   1.532   1.698  0.1626 -1.1495  2.5695
   19MOL    H5610172   4.373   1.416   2.106 -1.5455  0.7221 -2.2609
   19MOL    H5710173   4.486   1.451   2.324 -1.0762 -0.9832  0.3046
   19MOL    C5810174   4.177   1.288   1.255  0.1061 -0.2004  0.4210
   19MOL    C5910175   4.164   1.188   1.149  0.0878  0.7779  0.0079
   19MOL    C6010176   4.267   1.095   1.121  0.2291 -0.4190  0.1077
   19MOL    C6110177   4.243   0.995   1.028  0.1572 -0.6879  0.8584
   19MOL    C6210178   4.136   0.998   0.939 -0.2900 -0.6211 -0.2976
   19MOL    C6310179   4.129   0.901   0.826  0.2178 -0.4550  0.1323
   19MOL    N6410180   4.068   0.949   0.715 -0.1115  0.3201 -0.0305
   19MOL    C6510181   4.056   0.896   0.585  0.1874 -0.3905  0.4554
   19MOL    C6610182   4.122   0.782   0.545  0.0160 -0.4507 -0.5954
   19MOL    C6710183   4.108   0.741   0.411  0.0116 -0.2167  0.1823
   19MOL    C6810184   4.030   0.808   0.313  0.4810 -0.6012 -0.0785
   19MOL    N6910185   4.010   0.754   0.186  0.1810 -0.2671 -0.0409
   19MOL    C7010186   3.960   0.917   0.362  0.5393 -0.9545  0.4784
   19MOL    C7110187   3.969   0.962   0.493  0.1009  0.3129 -0.1048
   19MOL    O7210188   4.185   0.794   0.840  0.9339 -0.0951  0.3351
   19MOL    C7310189   4.039   1.095   0.956  0.4788  0.1648 -0.0415
   19MOL    C7410190   4.054   1.197   1.057  0.1772  1.2901  0.0001
   19MOL    O7510191   4.149   1.405   1.243  0.1910  0.2596  0.0988
   19MOL    H7610192   4.354   1.086   1.184 -1.1443  0.5349  2.2153
   19MOL    H7710193   4.318   0.918   1.020 -0.6598 -1.2798 -1.3154
   19MOL    H7810194   4.033   1.042   0.737  0.5694  0.0935  2.1577
   19MOL    H7910195   4.169   0.721   0.621 -0.4457 -0.4837 -0.3331
   19MOL    H8010196   4.158   0.647   0.391 -0.8168 -0.3618 -1.3024
   19MOL    H8110197   3.928   0.777   0.132  0.6950 -1.9069 -1.5478
   19MOL    H8210198   3.901   0.972   0.290  0.3197  0.9795  2.0955
   19MOL    H8310199   3.907   1.044   0.527  0.9530 -0.4268  3.3931
   19MOL    H8410200   3.949   1.098   0.896  1.1826 -3.5668 -1.3973
   19MOL    H8510201   3.970   1.263   1.076  0.5315  1.6779  0.2296
   19MOL    C8610202   4.098   0.675   0.116  0.6529 -0.2037 -0.4136
   19MOL    C8710203   4.055   0.642   8.121  0.8846  0.0553 -0.0268
   19MOL    C8810204   3.924   0.601   8.084 -0.2052 -0.0706 -0.4126
   19MOL    C8910205   3.888   0.574   7.953  0.4739 -0.6070 -0.2005
   19MOL    C9010206   3.983   0.597   7.848 -0.6138  0.1435 -0.3955
   19MOL    C9110207   3.953   0.580   7.703  0.4855  0.5685  0.4016
   19MOL    N9210208   3.912   0.458   7.665 -0.5811  0.5243 -0.0504
   19MOL    C9310209   3.855   0.420   7.540  0.0736  0.6773  0.3540
   19MOL    C9410210   3.905   0.461   7.409  0.6907 -0.1741 -0.6248
   19MOL    C9510211   3.860   0.394   7.293 -0.1475  0.0077 -0.6129
   19MOL    C9610212   3.753   0.303   7.306  0.3637 -0.6649  0.8186
   19MOL    N9710213   3.708   0.237   7.184 -0.2056 -0.7638 -0.3879
   19MOL    C9810214   3.693   0.281   7.427  0.3826 -0.9160  0.5551
   19MOL    C9910215   3.748   0.335   7.546 -0.5332  0.3613 -0.1991
   19MOL   O10010216   3.957   0.671   7.624  0.6154  0.2042  0.3637
   19MOL   C10110217   4.111   0.646   7.887 -0.4380  0.2677 -0.0057
   19MOL   C10210218   4.148   0.663   8.020  0.6716 -0.1885  0.9263
   19MOL   O10310219   4.212   0.657   0.153 -0.2002 -1.0073 -0.3355
   19MOL   H10410220   3.849   0.589   0.016 -0.6380  0.2615 -0.7797
   19MOL   H10510221   3.786   0.547   7.930 -0.0468 -0.5171  1.8928
   19MOL   H10610222   3.915   0.391   7.741  0.3210  1.2341  0.5593
   19MOL   H10710223   3.987   0.529   7.394 -0.7454  1.4772 -1.2727
   19MOL   H10810224   3.912   0.428   7.206  0.6306 -0.1117 -0.1988
   19MOL   H10910225   3.732   0.282   7.097  0.3507  0.5227  0.4067
   19MOL   H11010226   3.608   0.215   7.436  0.9529 -2.1350 -2.5062
   19MOL   H11110227   3.710   0.309   7.644  0.2257  1.4297  0.3821
   19MOL   H11210228   4.182   0.664   7.808  1.4787  0.6768  1.7710
   19MOL   H11310229   4.250   0.697   8.037  0.8555  0.6931 -1.6406
   19MOL   C11410230   3.629   0.129   7.180  0.4581 -0.3471  0.0257
   19MOL   C11510231   3.552   0.100   7.052 -0.8856 -0.6778  0.0051
   19MOL   C11610232   3.606   0.115   6.924 -0.0452 -1.1530  0.0381
   19MOL   C11710233   3.542   0.065   6.807 -0.1289 -0.0819 -0.3076
   19MOL   C11810234   3.417   0.001   6.817 -1.3264 -0.3612  0.7589
   19MOL   C11910235   3.356   8.093   6.692 -0.4588  0.1545 -0.3319
   19MOL   N12010236   3.273   7.989   6.719  0.5214 -0.5744  0.0507
   19MOL   C12110237   3.202   7.899   6.631  0.3833  0.4190  0.6170
   19MOL   C12210238   3.146   7.935   6.507 -0.7866 -0.5720 -0.0708
   19MOL   C12310239   3.058   7.853   6.441 -0.1978  0.3311 -0.2037
   19MOL   C12410240   3.033   7.723   6.486  0.6869  0.1149  0.9608
   19MOL   N12510241   2.933   7.652   6.410 -0.0162  0.1930 -0.2031
   19MOL   C12610242   3.090   7.679   6.606  0.0297 -0.0075 -0.1583
   19MOL   C12710243   3.172   7.766   6.676 -0.2005 -0.1079  0.5341
   19MOL   O12810244   3.395   8.116   6.576 -0.3052 -0.0018 -0.1926
   19MOL   C12910245   3.354   8.138   6.948  0.6776  0.3964  0.5145
   19MOL   C13010246   3.425   0.039   7.064  0.3799 -0.3401 -0.1402
   19MOL   O13110247   3.614   0.044   7.272  0.3463  0.2518  0.0286
   19MOL   H13210248   3.706   0.152   6.908  0.1312 -0.3582  2.7030
   19MOL   H13310249   3.591   0.075   6.711  1.7028 -0.6275  0.5361
   19MOL   H13410250   3.252   7.974   6.817  2.0910  0.2514  0.5271
   19MOL   H13510251   3.154   8.037   6.473 -1.4191 -0.2064  0.8714
   19MOL   H13610252   3.000   7.887   6.356  1.8446 -0.7322 -2.0532
   19MOL   H13710253   2.902   7.694   6.324  0.0350  0.7512  0.0430
   19MOL   H13810254   3.073   7.581   6.649  1.7378 -0.5448 -0.6548
   19MOL   H13910255   3.202   7.729   6.772  1.3888 -0.4116 -0.0668
   19MOL   H14010256   3.253   8.101   6.956  0.1897  1.8054  0.9794
   19MOL   H14110257   3.387   0.015   7.162  0.1281  1.3666  0.1884
   19MOL   C14210258   2.844   7.563   6.458  0.5855 -0.0507 -0.0953
   19MOL   C14310259   2.734   7.523   6.361 -0.8273 -0.4100 -0.4853
   19MOL   C14410260   2.735   7.544   6.223 -0.2832 -1.3824  0.0636
   19MOL   C14510261   2.627   7.512   6.141  0.1293  0.3225 -0.2943
   19MOL   C14610262   2.517   7.437   6.190 -0.3384  0.0975 -0.3604
   19MOL   C14710263   2.412   7.383   6.092 -0.2343  0.2358 -0.6211
   19MOL   N14810264   2.385   7.253   6.097 -0.1349  0.6757  0.5373
   19MOL   C14910265   2.277   7.180   6.030  0.9516 -0.2432 -0.3227
   19MOL   C15010266   2.279   7.039   6.017  0.4953  0.7009  0.9439
   19MOL   C15110267   2.171   6.963   5.968  0.0968  0.0014 -0.5098
   19MOL   C15210268   2.056   7.038   5.927 -0.0724 -0.1614  0.7860
   19MOL   N15310269   1.931   6.980   5.885 -0.4318 -0.4734 -0.3521
   19MOL   C15410270   2.062   7.178   5.913  0.1086 -0.0335  0.6560
   19MOL   C15510271   2.165   7.249   5.979 -0.1803 -0.0823  0.2908
   19MOL   O15610272   2.373   7.453   6.002 -0.3429 -0.1266 -0.0402
   19MOL   C15710273   2.516   7.414   6.330 -0.7104  0.3466 -0.0442
   19MOL   C15810274   2.619   7.463   6.415  0.3686  0.3393 -0.6237
   19MOL   O15910275   2.848   7.500   6.566 -0.3309 -0.0144  0.1400
   19MOL   H16010276   2.820   7.599   6.184 -0.8228  0.4475  1.4296
   19MOL   H16110277   2.624   7.532   6.035 -1.8886 -0.6030 -0.4230
   19MOL   H16210278   2.442   7.200   6.162 -0.4823 -2.0173 -1.2743
   19MOL   H16310279   2.366   6.985   6.050 -0.3297 -2.5241 -1.8528
   19MOL   H16410280   2.179   6.855   5.972 -0.8509 -0.0262  0.9529
   19MOL   H16510281   1.857   7.044   5.861  0.0431  0.5820  0.9507
   19MOL   H16610282   1.982   7.240   5.877  0.7608  0.0797 -0.6468
   19MOL   H16710283   2.153   7.356   5.977  0.5257  0.0136  0.8150
   19MOL   H16810284   2.437   7.357   6.377 -0.8613  0.5733 -0.0239
   19MOL   H16910285   2.608   7.453   6.522  3.7146 -0.0647 -0.2642
   19MOL   C17010286   1.901   6.849   5.896  0.1681  0.5945 -0.4912
   19MOL   C17110287   1.761   6.822   5.949  0.3423  0.8669 -0.3234
   19MOL   C17210288   1.653   6.904   5.909  0.2725 -0.2737  0.9038
   19MOL   C17310289   1.531   6.882   5.973 -0.3129 -0.7511  0.4964
   19MOL   C17410290   1.506   6.776   6.064  0.0036 -0.1519 -0.6078
   19MOL   C17510291   1.378   6.757   6.150 -0.3484  0.2229 -0.0409
   19MOL   N17610292   1.362   6.857   6.232  0.0392 -0.2952 -0.2338
   19MOL   C17710293   1.255   6.879   6.324 -0.0910 -0.2873 -0.4101
   19MOL   C17810294   1.276   6.972   6.428  0.5188 -0.3838 -0.4426
   19MOL   C17910295   1.171   7.006   6.521  0.4565  0.3624 -0.5554
   19MOL   C18010296   1.052   6.931   6.512 -0.4814  0.0842 -0.2822
   19MOL   N18110297   0.944   6.967   6.600 -0.1596 -0.1386 -0.5658
   19MOL   C18210298   1.039   6.834   6.414  0.2400  0.3355 -0.1607
   19MOL   C18310299   1.138   6.802   6.322 -0.5422  0.5391  0.2937
   19MOL   O18410300   1.308   6.655   6.144 -0.3847 -0.0089 -0.8260
   19MOL   C18510301   1.614   6.694   6.095 -0.1490  0.3932  0.2030
   19MOL   C18610302   1.737   6.712   6.036  0.0706 -0.2700 -0.1355
   19MOL   O18710303   1.980   6.753   5.887 -0.1211 -0.0230  0.2814
   19MOL   H18810304   1.675   6.989   5.846  1.3628 -1.7080 -0.6964
   19MOL   H18910305   1.467   6.969   5.964  1.4428  0.6560  1.4049
   19MOL   H19010306   1.439   6.922   6.228 -0.7351  0.5744 -1.0183
   19MOL   H19110307   1.366   7.032   6.423  0.4130 -0.1188  0.7478
   19MOL   H19210308   1.185   7.086   6.591  0.5858  0.3639 -0.5824
   19MOL   H19310309   0.970   7.034   6.672 -0.8667 -1.0109  0.5128
   19MOL   H19410310   0.947   6.778   6.408  0.9732 -1.0064  0.8236
   19MOL   H19510311   1.118   6.722   6.253  0.2429 -0.5641  1.3083
   19MOL   H19610312   1.610   6.605   6.156  0.6758 -0.4106 -0.8766
   19MOL   H19710313   1.817   6.642   6.056  0.0799 -0.3618 -0.4865
   19MOL   C19810314   0.813   6.963   6.573  0.4410  0.7513 -0.2821
   19MOL   C19910315   0.728   7.037   6.678 -0.6924  0.6038  0.2257
   19MOL   C20010316   0.589   7.061   6.657 -1.1647 -0.1604 -1.1845
   19MOL   C20110317   0.511   7.130   6.751  0.5430 -0.0820 -1.1545
   19MOL   C20210318   0.570   7.175   6.872 -0.4298 -0.7200  0.1422
   19MOL   C20310319   0.499   7.266   6.969 -0.0527 -0.6895  0.4778
   19MOL   N20410320   0.540   7.263   7.101  0.0881 -0.6737 -0.0446
   19MOL   C20510321   0.493   7.332   7.218  0.9939  0.2282 -0.3343
   19MOL   C20610322   0.585   7.336   7.319  0.2477  0.8087 -0.2193
   19MOL   C20710323   0.559   7.415   7.431 -0.1246 -0.2595  0.2148
   19MOL   C20810324   0.443   7.492   7.437  0.4975 -0.3397 -0.0783
   19MOL   N20910325   0.429   7.588   7.540 -0.8292 -0.5525 -0.4146
   19MOL   C21010326   0.349   7.491   7.332 -0.4593 -0.0083 -0.1915
   19MOL   C21110327   0.375   7.411   7.222  0.8848 -0.3549 -0.1836
   19MOL   O21210328   0.404   7.334   6.936  0.1602  0.1028 -0.2424
   19MOL   C21310329   0.708   7.157   6.895  0.1882  0.4952  0.0624
   19MOL   C21410330   0.784   7.091   6.801 -0.3748 -0.2334  0.2417
   19MOL   O21510331   0.754   6.914   6.478 -0.4703  0.0706  0.1814
   19MOL   H21610332   0.543   7.022   6.567  0.9633 -1.6118 -1.6705
   19MOL   H21710333   0.409   7.157   6.728 -0.5015 -1.2503  1.8201
   19MOL   H21810334   0.621   7.204   7.116 -0.2081 -1.2207 -0.5971
   19MOL   H21910335   0.674   7.276   7.310  1.0508  1.7061  1.4452
   19MOL   H22010336   0.638   7.413   7.505 -0.9408  0.9837  1.1214
   19MOL   H22110337   0.339   7.600   7.585 -2.4133 -2.2788 -2.9870
   19MOL   H22210338   0.259   7.550   7.341 -1.8134 -2.1912  0.9783
   19MOL   H22310339   0.318   7.428   7.131  0.8589  0.2712 -0.0536
   19MOL   H22410340   0.749   7.205   6.982  0.4192  1.1909 -0.4190
   19MOL   H22510341   0.888   7.078   6.829 -0.4471  2.0405  1.6912
   19MOL   C22610342   0.524   7.677   7.582  0.1779  0.8615  0.5562
   19MOL   C22710343   0.488   7.770   7.702 -0.4062  0.0941  0.0705
   19MOL   C22810344   0.571   7.884   7.725  0.6260 -0.1936 -0.3710
   19MOL   C22910345   0.555   7.954   7.842 -0.4303 -0.0670 -0.3491
   19MOL   C23010346   0.451   7.925   7.935  0.0387  0.0526 -0.3406
   19MOL   C23110347   0.435   8.001   8.064  0.1193 -0.3866 -0.5747
   19MOL   N23210348   0.526   8.097   8.085 -0.2623  0.0217 -0.0248
   19MOL   C23310349   0.546   0.045   0.044  0.3773  0.4362 -0.2394
   19MOL   C23410350   0.650   0.133   0.028 -0.2186  0.4767 -0.3594
   19MOL   C23510351   0.682   0.229   0.127 -0.2631  0.0851 -0.0910
   19MOL   C23610352   0.600   0.245   0.239 -0.2827 -0.0509 -0.2715
   19MOL   N23710353   0.619   0.353   0.334 -0.3966 -0.1880  0.4565
   19MOL   C23810354   0.498   0.144   0.264 -0.4843  0.0429 -0.0405
   19MOL   C23910355   0.467   0.050   0.166 -0.2404  0.4562  0.4524
   19MOL   O24010356   0.336   7.972   8.138 -0.3910  0.0837  0.7219
   19MOL   C24110357   0.368   7.813   7.908 -0.5620  0.4152 -0.9837
   19MOL   C24210358   0.386   7.734   7.794  0.6196  0.9945 -0.1207
   19MOL   O24310359   0.632   7.690   7.521  0.0316  0.1849  0.2697
   19MOL   H24410360   0.648   7.915   7.656  0.0103  1.1316 -0.4721
   19MOL   H24510361   0.627   8.034   7.857 -0.1421  0.4284 -4.0049
   19MOL   H24610362   0.582   8.117   8.004  0.7007 -1.6888  0.2068
   19MOL   H24710363   0.706   0.130   8.081  1.1427  0.0172  0.4676
   19MOL   H24810364   0.757   0.304   0.105 -1.5590  1.0536 -1.2846
   19MOL   H24910365   0.592   0.327   0.428  0.4308 -0.0123  0.7452
   19MOL   H25010366   0.443   0.153   0.356  1.6527 -1.9235  1.4868
   19MOL   H25110367   0.382   8.130   0.183 -0.1624 -0.1975 -1.5372
   19MOL   H25210368   0.294   7.778   7.978 -0.3252  1.4661 -0.2018
   19MOL   H25310369   0.331   7.642   7.779  2.9232 -0.0166 -2.7166
   19MOL   C25410370   0.685   0.477   0.322 -0.0001 -0.2572 -0.0161
   19MOL   C25510371   0.724   0.532   0.456 -0.2607 -0.0633  0.5117
   19MOL   C25610372   0.661   0.506   0.576 -0.4114 -0.1615  0.8297
   19MOL   C25710373   0.716   0.548   0.697 -0.8550  0.5235  0.4807
   19MOL   C25810374   0.828   0.628   0.700 -0.2443  0.6434  0.4766
   19MOL   C25910375   0.885   0.655   0.835 -0.0496  0.6086  0.6967
   19MOL   N26010376   1.012   0.692   0.839 -0.1102 -0.7133 -0.4501
   19MOL   C26110377   1.097   0.734   0.952 -0.2650 -0.0544  0.3676
   19MOL   C26210378   1.081   0.696   1.087 -0.3452  0.3916  0.2328
   19MOL   C26310379   1.176   0.741   1.189  0.9138 -1.0592 -0.4152
   19MOL   C26410380   1.287   0.823   1.152  0.3361  0.6077 -0.1253
   19MOL   N26510381   1.379   0.876   1.251  0.2082 -0.3582  0.1502
   19MOL   C26610382   1.309   0.849   1.019 -0.3462 -0.4493 -0.0905
   19MOL   C26710383   1.216   0.811   0.923  0.3671  0.2579 -0.1391
   19MOL   O26810384   0.822   0.641   0.934  0.4535 -0.0543  0.0825
   19MOL   C26910385   0.884   0.668   0.580  0.0719 -0.6934  0.7483
   19MOL   C27010386   0.830   0.620   0.460 -0.1932  0.4031 -0.2733
   19MOL   O27110387   0.746   0.525   0.224  0.0567 -0.2324  0.2047
   19MOL   H27210388   0.567   0.453   0.577 -0.6138  0.1663 -0.3476
   19MOL   H27310389   0.663   0.519   0.787 -0.5795 -0.6984  0.2557
   19MOL   H27410390   1.064   0.700   0.752  0.0363 -1.6038 -0.4467
   19MOL   H27510391   0.998   0.631   1.111 -0.4455  1.3405  2.5615
   19MOL   H27610392   1.162   0.700   1.288  0.4313 -1.8604 -0.8125
   19MOL   H27710393   1.479   0.883   1.239  0.1438  2.0736  0.8180
   19MOL   H27810394   1.400   0.899   0.991 -1.7796  1.0007 -2.3562
   19MOL   H27910395   1.237   0.833   0.820 -0.7840  0.2028 -0.3963
   19MOL   H28010396   0.965   0.739   0.589 -0.5760  0.0123  1.0443
   19MOL   H28110397   0.881   0.649   0.369  0.4048  0.0905 -0.0361
   19MOL   C28210398   1.344   0.927   1.368 -0.4259  0.6240 -0.2184
   19MOL   C28310399   1.454   0.975   1.458 -0.1754  1.6587 -0.4403
   19MOL   C28410400   1.429   1.047   1.575 -0.1248 -0.1217  0.1018
   19MOL   C28510401   1.528   1.098   1.663  0.9947 -0.4842 -0.1111
   19MOL   C28610402   1.665   1.082   1.631 -0.3082 -0.1737 -0.1860
   19MOL   C28710403   1.772   1.147   1.718  0.1053 -0.6568  0.5540
   19MOL   N28810404   1.721   1.213   1.828  0.0211 -0.2989  0.0771
   19MOL   C28910405   1.791   1.279   1.923  1.2171 -0.3215  0.8486
   19MOL   C29010406   1.717   1.340   2.027  0.5681  0.8013 -0.3353
   19MOL   C29110407   1.789   1.406   2.126  0.0867 -0.5404  0.0396
   19MOL   C29210408   1.929   1.414   2.125 -0.3946  0.3057  0.7932
   19MOL   N29310409   1.991   1.470   2.238 -0.4973  0.1704  0.0760
   19MOL   C29410410   1.999   1.351   2.028 -0.3423  0.0939  0.2173
   19MOL   C29510411   1.932   1.284   1.923 -0.5716  0.0352 -0.3120
   19MOL   O29610412   1.888   1.128   1.687  0.3954 -0.5591 -0.1251
   19MOL   C29710413   1.693   1.005   1.512 -0.2604 -0.5324  0.1767
   19MOL   C29810414   1.591   0.952   1.431  0.1003  0.6003  0.2427
   19MOL   O29910415   1.227   0.941   1.414 -0.5504  0.4766  0.0579
   19MOL   H30010416   1.327   1.071   1.600 -0.9325 -1.9972 -1.2665
   19MOL   H30110417   1.502   1.150   1.754  0.3923  0.1699 -0.6621
   19MOL   H30210418   1.621   1.203   1.841 -0.1125 -0.0974 -0.7496
   19MOL   H30310419   1.610   1.345   2.037  0.3344  1.2102 -2.7427
   19MOL   H30410420   1.731   1.447   2.208  0.2021  1.4385 -0.8438
   19MOL   H30510421   1.935   1.479   2.322  1.3503 -0.6526  1.4545
   19MOL   H30610422   2.105   1.336   2.042 -0.3816  0.3345  0.7746
   19MOL   H30710423   1.999   1.236   1.853 -0.3546 -0.1830  0.0424
   19MOL   H30810424   1.798   0.982   1.498 -0.2513  0.9466 -2.3710
   19MOL   H30910425   1.625   0.891   1.348  0.3382  0.2987  0.5636
   19MOL   C31010426   2.119   1.509   2.257 -0.5182 -0.3233 -0.1211
   19MOL   C31110427   2.154   1.555   2.397  0.3237 -0.0647  0.0056
   19MOL   C31210428   2.056   1.588   2.493  0.0795  0.0876  0.3345
   19MOL   C31310429   2.096   1.624   2.621  0.3729  0.4538 -0.0424
   19MOL   C31410430   2.234   1.622   2.664  0.2913  0.0023  0.6054
   19MOL   C31510431   2.259   1.649   2.809  0.7430 -0.1340 -0.1058
   19MOL   N31610432   2.192   1.750   2.864 -0.0874 -0.4345  0.1181
   19MOL   C31710433   2.173   1.785   3.001 -0.0926 -0.4416 -0.0616
   19MOL   C31810434   2.109   1.909   3.025  0.1753 -0.1316 -0.2109
   19MOL   C31910435   2.076   1.945   3.155 -0.6553  0.2710  0.1035
   19MOL   C32010436   2.096   1.856   3.259  0.5487  0.0945 -0.3190
   19MOL   N32110437   2.046   1.895   3.381  0.2154 -0.4708 -0.5394
   19MOL   C32210438   2.163   1.737   3.244 -1.2141 -0.4779 -0.2674
   19MOL   C32310439   2.205   1.699   3.116 -0.1732 -0.1595 -0.1959
   19MOL   O32410440   2.334   1.574   2.876 -0.0250  0.1569 -0.3515
   19MOL   C32510441   2.333   1.576   2.569  0.5990 -0.2013 -0.5186
   19MOL   C32610442   2.288   1.552   2.440  0.4561  0.0774  0.5524
   19MOL   O32710443   2.202   1.529   2.165 -0.2340  0.0197  0.0667
   19MOL   H32810444   1.952   1.601   2.465 -0.0239 -0.9816  0.1948
   19MOL   H32910445   2.016   1.658   2.685  0.4465  0.3437  0.1099
   19MOL   H33010446   2.158   1.815   2.795  1.5617 -0.3589 -0.6398
   19MOL   H33110447   2.093   1.987   2.952 -0.6866 -0.3871 -0.2993
   19MOL   H33210448   2.030   2.043   3.166 -4.0414 -1.3389  0.9520
   19MOL   H33310449   2.025   1.993   3.393  0.7295 -0.1590 -2.0861
   19MOL   H33410450   2.180   1.663   3.321  0.2876  0.7185  0.5881
   19MOL   H33510451   2.249   1.601   3.108 -0.0761  0.0119 -1.8897
   19MOL   H33610452   2.437   1.563   2.595  0.0171 -0.0621  2.0320
   19MOL   H33710453   2.367   1.513   2.377  0.0898 -3.5528  2.2042
   19MOL   C33810454   2.013   1.827   3.490 -0.3980 -0.0768  0.4807
   19MOL   C33910455   2.016   1.919   3.607 -0.3154  0.0675  0.4599
   19MOL   C34010456   1.973   1.867   3.731 -0.2207  0.8609  0.7291
   19MOL   C34110457   1.973   1.936   3.853 -0.0898  0.8921  0.2941
   19MOL   C34210458   2.007   2.075   3.844  0.2823 -0.0544  1.3602
   19MOL   C34310459   2.011   2.153   3.973 -0.3343 -0.5511 -0.6909
   19MOL   N34410460   1.941   2.266   3.963 -0.1993  0.5254 -0.3725
   19MOL   C34510461   1.950   2.382   4.045 -0.1819  0.5782  0.9669
   19MOL   C34610462   1.970   2.502   3.973  0.3791  0.3856  0.8022
   19MOL   C34710463   2.003   2.615   4.049  0.0399 -0.1406  0.0587
   19MOL   C34810464   1.997   2.616   4.186  0.1078 -0.3845  0.6183
   19MOL   N34910465   2.025   2.746   4.244  0.1290  0.2063 -0.3971
   19MOL   C35010466   1.963   2.494   4.260  0.0939 -0.0773  0.4187
   19MOL   C35110467   1.942   2.377   4.183  1.2172  0.0462 -0.3924
   19MOL   O35210468   2.059   2.109   4.072  0.3810  0.1956  0.4365
   19MOL   C35310469   2.053   2.133   3.723 -0.9065 -0.5895  0.4446
   19MOL   C35410470   2.063   2.056   3.602 -0.2804  0.2632  0.2536
   19MOL   O35510471   1.995   1.709   3.505 -0.1903  0.0032  0.4584
   19MOL   H35610472   1.945   1.763   3.739 -0.2545  0.9673  2.0467
   19MOL   H35710473   1.941   1.886   3.943  0.9406 -0.3323  0.0028
   19MOL   H35810474   1.913   2.279   3.867  3.4493  0.2408 -1.5732
   19MOL   H35910475   1.976   2.517   3.866  0.8137  0.9653  0.9051
   19MOL   H36010476   2.023   2.706   3.996 -3.1061  0.1079 -0.7896
   19MOL   H36110477   1.999   2.825   4.186 -0.4351 -1.3544 -2.3008
   19MOL   H36210478   1.951   2.504   4.367  2.9286  0.7275  0.6866
   19MOL   H36310479   1.918   2.285   4.235 -2.5375  0.9829 -0.3224
   19MOL   H36410480   2.098   2.231   3.729 -0.8355 -0.3387 -3.2724
   19MOL   H36510481   2.091   2.109   3.512 -0.3239  1.1674  0.7585
   19MOL   C36610482   2.044   2.777   4.373  0.4863 -0.3260  0.2943
   19MOL   C36710483   1.995   2.913   4.411 -0.2641 -0.0460  0.1159
   19MOL   C36810484   1.857   2.939   4.413 -0.3787 -0.2972  0.9267
   19MOL   C36910485   1.800   3.059   4.456 -0.6991 -0.2724  0.5822
   19MOL   C37010486   1.888   3.164   4.487  0.8179 -0.2252 -0.2873
   19MOL   C37110487   1.831   3.291   4.532  0.5424  0.4677  0.6504
   19MOL   N37210488   1.745   3.353   4.454 -0.4543 -0.2288  0.3467
   19MOL   C37310489   1.688   3.303   4.332  0.5033 -0.1474  0.0718
   19MOL   C37410490   1.774   3.260   4.227  0.4432 -0.3606 -0.7616
   19MOL   C37510491   1.708   3.209   4.114 -0.4874 -0.5508 -0.1561
   19MOL   C37610492   1.565   3.195   4.108  0.4090  0.3999  1.4158
   19MOL   N37710493   1.500   3.127   3.994 -0.2174 -0.4365 -0.1725
   19MOL   C37810494   1.486   3.242   4.213 -0.1902  0.4542  0.3545
   19MOL   C37910495   1.547   3.293   4.326  0.2138 -0.0069 -0.5187
   19MOL   O38010496   1.840   3.327   4.650 -0.1456 -0.1571 -0.4799
   19MOL   C38110497   2.029   3.141   4.478 -0.4068  0.0903 -0.1871
   19MOL   C38210498   2.084   3.016   4.436 -0.2687 -0.2737  0.1347
   19MOL   O38310499   2.091   2.709   4.465  0.1988  0.0793  0.1453
   19MOL   H38410500   1.781   2.865   4.391 -0.3829 -0.1052  0.2836
   19MOL   H38510501   1.693   3.073   4.451 -0.3886  1.7203 -1.2092
   19MOL   H38610502   1.698   3.427   4.504  0.2990  0.0025  0.7098
   19MOL   H38710503   1.881   3.263   4.227  0.4189  2.8371 -2.0004
   19MOL   H38810504   1.763   3.166   4.033 -0.9349 -0.1575 -0.6740
   19MOL   H38910505   1.536   3.156   3.904  0.7051  1.2311  0.7173
   19MOL   H39010506   1.379   3.225   4.210 -0.1579  0.4793 -1.2994
   19MOL   H39110507   1.487   3.329   4.409  0.7995  0.1408 -0.1530
   19MOL   H39210508   2.099   3.219   4.502  1.2639 -0.8535 -1.8405
   19MOL   H39310509   2.192   3.008   4.438 -0.1407 -0.3027 -3.3660
   19MOL   C39410510   1.389   3.053   3.998 -0.2610 -0.4220  0.2326
   19MOL   C39510511   1.317   3.024   3.873 -0.4449 -0.1614 -0.5189
   19MOL   C39610512   1.377   3.003   3.751  0.0775 -0.2264  0.1360
   19MOL   C39710513   1.304   2.973   3.627  0.3382 -0.1164  0.1120
   19MOL   C39810514   1.160   2.970   3.639 -0.0016 -0.7380  0.2442
   19MOL   C39910515   1.075   2.964   3.515  0.6232  0.6872 -0.2593
   19MOL   N40010516   0.941   3.003   3.531  0.4119 -0.2397  0.2320
   19MOL   C40110517   0.847   3.024   3.435 -0.2547  0.1564 -0.1094
   19MOL   C40210518   0.882   3.034   3.300 -0.3447  0.1547  0.2943
   19MOL   C40310519   0.799   3.095   3.204  0.2808 -0.3123  0.2832
   19MOL   C40410520   0.668   3.142   3.240 -0.2583  0.4120 -0.0655
   19MOL   N40510521   0.593   3.214   3.145 -0.1543 -0.2330 -0.4935
   19MOL   C40610522   0.627   3.117   3.373 -0.0311 -0.1068  0.8712
   19MOL   C40710523   0.715   3.059   3.466 -0.2640  0.7419 -0.0138
   19MOL   O40810524   1.122   2.918   3.410  0.2844 -0.1732  0.5366
   19MOL   C40910525   1.095   2.980   3.766  0.6592  0.0318  0.2904
   19MOL   C41010526   1.179   3.014   3.875  0.2194  0.1380  0.3513
   19MOL   O41110527   1.335   3.007   4.100  1.0674  0.0696  0.4721
   19MOL   H41210528   1.484   3.000   3.754  0.2229  1.9082 -1.4733
   19MOL   H41310529   1.354   2.968   3.532  0.3432  0.4878  0.0773
   19MOL   H41410530   0.923   3.025   3.627 -0.3236 -2.1564  0.5471
   19MOL   H41510531   0.984   3.022   3.264  0.0736  0.8243  1.2389
   19MOL   H41610532   0.834   3.108   3.103  0.1652  0.1894  0.3060
   19MOL   H41710533   0.542   3.293   3.180 -1.9121 -1.1476 -0.9404
   19MOL   H41810534   0.525   3.148   3.393  0.1321  2.0620 -1.3734
   19MOL   H41910535   0.681   3.043   3.567 -0.0563  0.4545  0.0099
   19MOL   H42010536   0.988   2.973   3.778  0.3829 -0.1111 -1.9482
   19MOL   H42110537   1.127   3.017   3.970 -1.2028 -1.2612 -0.3596
   19MOL   C42210538   0.595   3.205   3.010 -0.4735 -0.8019 -0.0930
   19MOL   C42310539   0.550   3.329   2.931 -0.9453  0.0869 -0.4100
   19MOL   C42410540   0.519   3.322   2.795 -0.2355  0.4739 -0.4645
   19MOL   C42510541   0.489   3.440   2.726 -0.3434  0.1431 -0.1931
   19MOL   C42610542   0.499   3.570   2.790 -0.0935  0.4260  0.2393
   19MOL   C42710543   0.473   3.699   2.718  0.1859  0.7636  0.4160
   19MOL   N42810544   0.528   3.703   2.594 -0.4063  0.2975  0.4501
   19MOL   C42910545   0.516   3.796   2.486  0.3973  0.8140  0.0532
   19MOL   C43010546   0.518   3.752   2.351  0.4044 -0.1655  0.2201
   19MOL   C43110547   0.512   3.854   2.249 -0.2942 -0.9800  0.2227
   19MOL   C43210548   0.492   3.990   2.277 -0.5164  1.0299  0.2322
   19MOL   N43310549   0.501   4.087   2.180  0.0171 -0.4627 -0.0452
   19MOL   C43410550   0.471   4.024   2.411  0.4908 -0.4211 -0.3329
   19MOL   C43510551   0.489   3.934   2.512  0.0039 -0.4681  0.2629
   19MOL   O43610552   0.434   3.797   2.783  0.4471  0.0076 -0.2641
   19MOL   C43710553   0.534   3.575   2.925  0.7506  0.3005 -0.1370
   19MOL   C43810554   0.549   3.454   2.998  0.3344  0.1848 -0.2929
   19MOL   O43910555   0.634   3.101   2.948 -0.5263  0.1024 -0.7758
   19MOL   H44010556   0.497   3.231   2.741 -0.5025 -0.7838  1.7042
   19MOL   H44110557   0.479   3.432   2.618 -1.0152 -0.5350 -0.0843
   19MOL   H44210558   0.578   3.620   2.565  2.4773  1.8613  0.7492
   19MOL   H44310559   0.527   3.649   2.323  1.7984  0.2066 -0.7505
   19MOL   H44410560   0.516   3.825   2.145 -0.3627  0.2893 -0.1441
   19MOL   H44510561   0.443   4.169   2.194  0.8274  0.3182 -1.1709
   19MOL   H44610562   0.467   4.124   2.452 -4.0886  0.4629 -2.7257
   19MOL   H44710563   0.489   3.976   2.611  2.2864 -0.0935  0.1262
   19MOL   H44810564   0.557   3.671   2.970 -0.1878  0.2533  0.4573
   19MOL   H44910565   0.578   3.451   3.102  0.6000  0.1448 -0.3688
   19MOL   C45010566   0.591   4.108   2.077  0.0060 -0.3127 -0.4518
   19MOL   C45110567   0.604   4.249   2.021  0.2564  0.4792 -0.5141
   19MOL   C45210568   0.723   4.315   1.990 -0.4837  0.1917  0.1737
   19MOL   C45310569   0.724   4.448   1.944  0.7201 -0.2009  0.5733
   19MOL   C45410570   0.601   4.513   1.909  0.3315 -0.3215 -0.0777
   19MOL   C45510571   0.606   4.653   1.861 -0.6423 -0.6989 -0.2759
   19MOL   N45610572   0.695   4.684   1.768 -0.1941 -0.4078 -0.6340
   19MOL   C45710573   0.768   4.609   1.673  0.0932  0.3384  0.5951
   19MOL   C45810574   0.895   4.660   1.625 -1.0953 -0.5732  0.5857
   19MOL   C45910575   0.962   4.596   1.523 -0.0215  0.0328 -0.6325
   19MOL   C46010576   0.901   4.488   1.454 -0.1554 -0.1408 -0.7701
   19MOL   N46110577   0.962   4.429   1.338 -0.0035 -0.7891  0.5557
   19MOL   C46210578   0.780   4.439   1.501 -1.0700 -0.3670  0.3882
   19MOL   C46310579   0.713   4.492   1.611 -0.7700 -0.2941  0.0757
   19MOL   O46410580   0.516   4.723   1.898  0.2413 -0.7384  1.1243
   19MOL   C46510581   0.481   4.457   1.955  0.0277 -0.3645  0.3095
   19MOL   C46610582   0.482   4.323   1.999  0.8440  1.1465 -0.4146
   19MOL   O46710583   0.678   4.026   2.043  0.6719  0.6527  0.9941
   19MOL   H46810584   0.818   4.265   2.008  0.3589  1.6941  0.0189
   19MOL   H46910585   0.814   4.496   1.909  0.1249 -1.7682 -3.3492
   19MOL   H47010586   0.703   4.784   1.754  0.5048 -0.2326  0.8751
   19MOL   H47110587   0.927   4.754   1.668  0.7913 -1.3862  1.0086
   19MOL   H47210588   1.057   4.631   1.487  0.7524 -0.6197  0.7501
   19MOL   H47310589   0.914   4.344   1.314  1.0721 -1.5226  0.9911
   19MOL   H47410590   0.733   4.356   1.451  2.4501 -0.9686 -2.1578
   19MOL   H47510591   0.614   4.459   1.637 -0.6746 -0.7601 -0.1383
   19MOL   H47610592   0.388   4.510   1.947  0.7070  1.0956  1.7372
   19MOL   H47710593   0.393   4.269   2.027  1.9921 -0.4320  0.3018
   19MOL   C47810594   0.996   4.503   1.228 -0.3504  0.7940  0.1391
   19MOL   C47910595   0.962   4.442   1.097  0.8331 -0.1896 -0.5011
   19MOL   C48010596   0.841   4.376   1.083 -0.5114 -0.1960 -0.5775
   19MOL   C48110597   0.798   4.321   0.960  0.7336 -0.4834  0.2468
   19MOL   C48210598   0.876   4.338   0.848  0.0515 -0.3385 -0.4188
   19MOL   C48310599   0.830   4.288   0.712 -0.0626 -0.3373  0.2715
   19MOL   N48410600   0.709   4.235   0.700  0.1017 -0.0326  0.0712
   19MOL   C48510601   0.629   4.194   0.593 -0.1400 -0.2270  0.2550
   19MOL   C48610602   0.517   4.112   0.611  0.2898 -0.0953 -0.2143
   19MOL   C48710603   0.433   4.064   0.502 -0.0468  0.5956 -0.5586
   19MOL   C48810604   0.462   4.104   0.368  0.9832  0.2949 -0.4885
   19MOL   N48910605   0.388   4.056   0.255 -0.6360  0.1146 -0.2730
   19MOL   C49010606   0.575   4.195   0.346 -0.4970 -0.4166 -0.1332
   19MOL   C49110607   0.653   4.240   0.456 -0.3095 -0.8887  0.9368
   19MOL   O49210608   0.905   4.275   0.618 -0.0025  0.3750 -0.7694
   19MOL   C49310609   0.991   4.416   0.854 -0.5308 -0.0219  0.3574
   19MOL   C49410610   1.037   4.463   0.982 -0.0948  0.7352  0.5618
   19MOL   O49510611   1.057   4.611   1.230  0.2018  0.3020  0.4612
   19MOL   H49610612   0.773   4.364   1.166 -0.9166 -0.8505 -0.9937
   19MOL   H49710613   0.705   4.267   0.961  0.3505  0.1446 -0.5077
   19MOL   H49810614   0.670   4.221   0.793  0.6848  0.6746  0.4209
   19MOL   H49910615   0.493   4.071   0.708 -2.2365 -0.7935 -1.1035
   19MOL   H50010616   0.354   3.995   0.524  0.0721 -0.1238 -2.3122
   19MOL   H50110617   0.371   4.137   0.195  0.2935 -0.0869 -0.8123
   19MOL   H50210618   0.574   4.250   0.253 -1.1798  1.5091  0.9945
   19MOL   H50310619   0.726   4.314   0.428 -0.3522 -0.4842  1.8579
   19MOL   H50410620   1.052   4.428   0.765  2.0979  3.3313  2.5083
   19MOL   H50510621   1.138   4.500   0.991  0.1484  0.8085 -2.1076
   19MOL   C50610622   0.349   3.929   0.216 -0.7803  0.5238  0.5183
   19MOL   C50710623   0.390   3.806   0.292  0.3580  0.2399 -0.5958
   19MOL   C50810624   0.527   3.789   0.323  0.1004 -0.2533 -0.2800
   19MOL   C50910625   0.571   3.676   0.393  0.2052 -0.3015 -0.3280
   19MOL   C51010626   0.480   3.580   0.433 -0.1804 -0.4956 -0.2950
   19MOL   C51110627   0.534   3.464   0.513  0.5675 -0.1816 -0.3799
   19MOL   N51210628   0.462   3.358   0.518  0.3099  0.7948  0.2417
   19MOL   C51310629   0.471   3.253   0.609  0.6132 -0.1510 -0.5405
   19MOL   C51410630   0.429   3.123   0.568 -0.3660 -0.5704  0.0874
   19MOL   C51510631   0.434   3.012   0.653 -0.0971 -0.3126 -0.1767
   19MOL   C51610632   0.483   3.024   0.785  0.2554 -0.6447 -0.1122
   19MOL   N51710633   0.488   2.917   0.871 -0.5533  0.2663 -0.3856
   19MOL   C51810634   0.498   3.154   0.831  0.1221  0.0770  0.7295
   19MOL   C51910635   0.496   3.263   0.744 -0.0765  0.5089 -0.1374
   19MOL   O52010636   0.645   3.474   0.570 -0.2050  0.2878 -0.6000
   19MOL   C52110637   0.342   3.600   0.400 -0.1049  0.0478  0.0555
   19MOL   C52210638   0.296   3.705   0.326  0.5114 -0.7594 -0.3496
   19MOL   O52310639   0.265   3.924   0.130  0.0566 -0.3734  0.2414
   19MOL   H52410640   0.603   3.863   0.303 -0.9702  1.6819  2.4933
   19MOL   H52510641   0.674   3.658   0.418 -0.2280 -1.4243  0.6443
   19MOL   H52610642   0.394   3.349   0.444  0.6911  0.7949 -0.1121
   19MOL   H52710643   0.421   3.107   0.461 -0.2099 -1.0462  0.1466
   19MOL   H52810644   0.416   2.914   0.611 -0.0183 -0.2998 -0.2410
   19MOL   H52910645   0.497   2.949   0.966 -1.6340 -0.5338 -0.0013
   19MOL   H53010646   0.536   3.169   0.931  2.5192 -1.8393  0.1480
   19MOL   H53110647   0.534   3.355   0.784  0.1021  0.6092 -0.5320
   19MOL   H53210648   0.273   3.531   0.446 -0.6795 -0.5388 -1.6468
   19MOL   H53310649   0.190   3.718   0.309  0.0792 -1.8365  1.4588
   19MOL   C53410650   0.495   2.782   0.862 -0.1737  0.3963  0.2791
   19MOL   C53510651   0.505   2.699   0.990  0.1517  0.4865 -0.3453
   19MOL   C53610652   0.550   2.565   0.979  0.3431 -0.1107 -0.0266
   19MOL   C53710653   0.557   2.489   1.098 -0.7686  0.1585 -0.1521
   19MOL   C53810654   0.534   2.552   1.222  0.8516  0.2243 -0.3289
   19MOL   C53910655   0.572   2.486   1.353 -1.0665 -0.4604  0.5851
   19MOL   N54010656   0.568   2.352   1.360  0.1164 -0.0993 -0.1268
   19MOL   C54110657   0.641   2.267   1.454  0.5265  0.3908  0.5226
   19MOL   C54210658   0.623   2.124   1.444  0.3208 -0.2440 -0.6211
   19MOL   C54310659   0.690   2.033   1.539  0.2478  0.5024 -0.4693
   19MOL   C54410660   0.781   2.088   1.628 -0.0750 -0.3555  0.1334
   19MOL   N54510661   0.861   2.003   1.706  0.0027 -0.0481 -0.0713
   19MOL   C54610662   0.811   2.226   1.628 -0.2408 -0.7990 -0.4179
   19MOL   C54710663   0.737   2.312   1.545  0.2124  0.0466  0.2168
   19MOL   O54810664   0.612   2.567   1.439  0.6355  0.4803 -0.4618
   19MOL   C54910665   0.482   2.683   1.229  0.2236  0.9365 -0.3930
   19MOL   C55010666   0.457   2.751   1.111 -0.0576 -0.0851  0.4601
   19MOL   O55110667   0.501   2.731   0.755  0.0368 -0.2805 -0.1208
   19MOL   H55210668   0.595   2.529   0.888  1.9268  2.0193 -0.1114
   19MOL   H55310669   0.577   2.383   1.099 -1.3442  0.0509  0.2137
   19MOL   H55410670   0.524   2.304   1.282 -1.1465  1.0698 -0.1556
   19MOL   H55510671   0.550   2.083   1.376 -2.7514  2.0272  1.1858
   19MOL   H55610672   0.669   1.927   1.538 -3.1351  1.0721  0.9973
   19MOL   H55710673   0.885   2.038   1.798  2.2450  0.1183 -0.6887
   19MOL   H55810674   0.893   2.270   1.685  0.1922 -1.4445 -0.5406
   19MOL   H55910675   0.759   2.417   1.537 -0.0663  0.2320  1.7219
   19MOL   H56010676   0.451   2.731   1.321  1.0007 -0.1283  0.4283
   19MOL   H56110677   0.405   2.846   1.114  2.0282  1.1404 -0.6988
   19MOL   H56210678   0.826   1.908   1.713 -1.9299  0.6837  0.4606
   20MOL     C110679   7.439   1.703   2.040  0.1650 -0.0694  0.6112
   20MOL     C210680   7.541   1.641   1.952 -0.9975  0.5099  0.0881
   20MOL     C310681   7.539   1.502   1.922  0.4519 -0.2458 -0.0611
   20MOL     C410682   7.640   1.454   1.837  0.2779  0.0966  0.0342
   20MOL     C510683   7.744   1.540   1.784 -0.2707  0.1383 -0.2288
   20MOL     C610684   7.843   1.494   1.685 -0.2206  0.5351 -0.3573
   20MOL     N710685   7.886   1.372   1.721 -0.4954  0.2034 -0.3991
   20MOL     C810686   7.940   1.274   1.628  0.1832 -0.3910  0.5738
   20MOL     C910687   8.040   1.305   1.530 -0.7199 -0.3682 -0.0563
   20MOL    C1010688   8.068   1.212   1.424 -0.0351  0.4892  0.7250
   20MOL    C1110689   8.008   1.085   1.428  0.2366 -0.4701  0.8214
   20MOL    N1210690   8.022   1.004   1.307 -0.2216 -0.0873  0.5018
   20MOL    C1310691   7.910   1.052   1.528  0.8171 -0.6951 -0.0950
   20MOL    C1410692   7.874   1.149   1.623  0.8370 -0.5629 -0.4640
   20MOL    O1510693   7.862   1.553   1.579  0.4279 -0.5999 -0.2003
   20MOL    C1610694   7.727   1.675   1.802 -0.3486  0.1031 -0.1963
   20MOL    C1710695   7.631   1.728   1.891  0.1225  0.7678  0.0637
   20MOL    O1810696   7.346   1.635   2.093 -0.1215 -0.0088  0.5605
   20MOL    H1910697   7.474   1.432   1.973 -1.1007 -0.8021 -2.7486
   20MOL    H2010698   7.634   1.349   1.813  1.2148 -0.0681  0.5153
   20MOL    H2110699   7.849   1.350   1.813 -0.7641 -1.5161 -0.9024
   20MOL    H2210700   8.082   1.404   1.522 -3.9167  0.8852 -1.8338
   20MOL    H2310701   8.139   1.237   1.347 -1.0589  2.3258  0.3518
   20MOL    H2410702   7.943   0.950   1.275  0.0752 -0.3337  0.1743
   20MOL    H2510703   7.863   0.956   1.539 -1.3252  0.2355 -0.9260
   20MOL    H2610704   7.802   1.120   1.699  0.6461 -0.6235 -0.6689
   20MOL    H2710705   7.780   1.753   1.751  0.1791  0.6677  1.1828
   20MOL    H2810706   7.643   1.835   1.895 -0.6945  0.8383  0.5672
   20MOL    H2910707   7.434   1.812   2.041 -1.0671 -0.0120 -2.8573
   20MOL    C3010708   8.117   0.969   1.225  0.2946  0.9449 -0.0904
   20MOL    C3110709   0.107   1.027   1.236  0.5552  0.0946  0.2617
   20MOL    C3210710   0.182   1.016   1.358  0.0619 -0.2770  0.1865
   20MOL    C3310711   0.310   1.073   1.361  0.4102  0.0508 -0.2472
   20MOL    C3410712   0.361   1.150   1.257 -0.5703  0.3967  0.2627
   20MOL    C3510713   0.491   1.213   1.261  0.2351 -0.0872  0.2611
   20MOL    N3610714   0.510   1.304   1.357  0.0786 -0.6999  0.2275
   20MOL    C3710715   0.636   1.363   1.380 -0.3118  0.2012 -1.0328
   20MOL    C3810716   0.735   1.401   1.285 -0.2116 -0.1732 -0.0251
   20MOL    C3910717   0.856   1.466   1.320  0.3299  0.2879 -0.1487
   20MOL    C4010718   0.883   1.485   1.457 -0.4419  0.0663  0.3475
   20MOL    N4110719   1.008   1.552   1.490 -0.2770 -0.0358 -0.0858
   20MOL    C4210720   0.784   1.456   1.550 -0.5934  0.2551  0.2678
   20MOL    C4310721   0.664   1.399   1.513  0.0910  1.0080 -0.4568
   20MOL    O4410722   0.569   1.188   1.169  0.2011 -0.0160 -0.2640
   20MOL    C4510723   0.280   1.164   1.142 -0.3721  0.4366 -0.7383
   20MOL    C4610724   0.152   1.107   1.129 -0.3766 -0.4810  0.1885
   20MOL    O4710725   8.097   0.888   1.133  0.0922 -0.4638 -0.1543
   20MOL    H4810726   0.125   0.979   1.441 -1.6836 -1.1205 -1.3569
   20MOL    H4910727   0.370   1.054   1.450 -0.6365 -1.9795  0.0409
   20MOL    H5010728   0.436   1.294   1.424  1.2119  0.2197  1.6406
   20MOL    H5110729   0.717   1.382   1.180 -2.4797  0.8650  0.1504
   20MOL    H5210730   0.925   1.484   1.239 -1.7896  0.6079 -1.9150
   20MOL    H5310731   1.075   1.571   1.416  0.1864 -0.3368  0.2519
   20MOL    H5410732   0.801   1.475   1.654 -0.0119 -1.7879  0.5743
   20MOL    H5510733   0.594   1.374   1.591 -0.8948  1.7443 -1.0886
   20MOL    H5610734   0.316   1.215   1.054  1.7930  0.8824  0.3645
   20MOL    H5710735   0.093   1.121   1.040 -1.6727  0.6801  1.1940
   20MOL    C5810736   1.037   1.607   1.609  0.2442 -0.1092 -0.3024
   20MOL    C5910737   1.158   1.692   1.621 -0.1395  0.6878 -0.1602
   20MOL    C6010738   1.237   1.723   1.509 -0.0906  0.3407 -0.3168
   20MOL    C6110739   1.353   1.803   1.521 -0.1681  0.0123 -0.5520
   20MOL    C6210740   1.381   1.866   1.643  0.2338 -0.3937 -0.3481
   20MOL    C6310741   1.504   1.957   1.654 -0.1756 -0.4077 -0.0526
   20MOL    N6410742   1.551   1.984   1.774  0.0095  0.0171 -0.8264
   20MOL    C6510743   1.666   2.049   1.814 -0.2377 -0.1330 -0.1673
   20MOL    C6610744   1.768   2.087   1.726 -0.3271 -0.4983  0.0856
   20MOL    C6710745   1.875   2.162   1.782 -0.3694 -0.3347 -0.9807
   20MOL    C6810746   1.889   2.183   1.921  0.2430 -0.7232  0.6857
   20MOL    N6910747   2.012   2.241   1.973 -0.2568 -0.2410 -0.3022
   20MOL    C7010748   1.784   2.147   2.005  0.0823  0.1153 -0.6929
   20MOL    C7110749   1.673   2.080   1.950 -1.1186 -0.2545 -0.2069
   20MOL    O7210750   1.549   2.011   1.551  0.4449  1.4693 -0.1538
   20MOL    C7310751   1.301   1.844   1.755 -0.4550  0.0491 -0.1817
   20MOL    C7410752   1.189   1.757   1.741 -0.4347 -0.6179 -0.1108
   20MOL    O7510753   0.974   1.591   1.713 -0.0845  0.0534 -0.2387
   20MOL    H7610754   1.219   1.682   1.411  0.4298 -2.5217  0.7545
   20MOL    H7710755   1.412   1.826   1.433 -0.4603 -2.3848 -1.4144
   20MOL    H7810756   1.513   1.927   1.849  0.0107 -0.4397 -1.1736
   20MOL    H7910757   1.769   2.063   1.621 -1.8147 -0.7617  0.1173
   20MOL    H8010758   1.947   2.194   1.708  0.8063  0.1033  0.3407
   20MOL    H8110759   2.096   2.246   1.917  0.7366  1.4937  1.2669
   20MOL    H8210760   1.795   2.163   2.111  2.5162 -0.1893 -0.8641
   20MOL    H8310761   1.586   2.059   2.011 -0.7249  2.2112  1.2579
   20MOL    H8410762   1.319   1.886   1.853 -1.0234 -2.9268  1.2480
   20MOL    H8510763   1.117   1.753   1.822 -3.9443 -0.7762 -3.1214
   20MOL    C8610764   2.037   2.289   2.099 -0.3076 -0.4151  0.1254
   20MOL    C8710765   2.171   2.363   2.114 -0.2861 -0.1767  0.6653
   20MOL    C8810766   2.201   2.407   2.246  0.4983 -0.0301 -0.3433
   20MOL    C8910767   2.317   2.486   2.268 -0.0878  0.1810 -0.4161
   20MOL    C9010768   2.394   2.534   2.161 -0.2049  0.4284 -0.5175
   20MOL    C9110769   2.506   2.632   2.190  0.1757  0.0947  0.3981
   20MOL    N9210770   2.494   2.747   2.132 -0.3537  0.4003  0.3042
   20MOL    C9310771   2.584   2.853   2.152 -0.0186 -0.2351  0.6430
   20MOL    C9410772   2.587   2.963   2.061 -0.0857  0.3074  0.3017
   20MOL    C9510773   2.669   3.073   2.080 -0.4502  0.2235  0.1169
   20MOL    C9610774   2.752   3.086   2.188  0.3075 -0.9178 -0.5248
   20MOL    N9710775   2.843   3.195   2.214 -0.0770  0.3212  0.4988
   20MOL    C9810776   2.743   2.994   2.287  0.9508 -0.4287 -0.0837
   20MOL    C9910777   2.658   2.879   2.270  0.0017 -0.1978  0.3352
   20MOL   O10010778   2.593   2.598   2.262  0.4991  0.6526  0.1549
   20MOL   C10110779   2.365   2.491   2.032 -0.0781 -0.1786 -0.8265
   20MOL   C10210780   2.255   2.408   2.006 -0.2990 -0.4343 -0.1460
   20MOL   O10310781   1.966   2.272   2.196  0.1524 -0.1924  0.0761
   20MOL   H10410782   2.139   2.374   2.328  1.0416 -0.3796 -0.0744
   20MOL   H10510783   2.335   2.523   2.368  0.2203 -1.4240  0.1389
   20MOL   H10610784   2.419   2.771   2.069 -1.1456 -0.4803  0.8937
   20MOL   H10710785   2.530   2.949   1.970  3.0610  3.3514 -2.2883
   20MOL   H10810786   2.659   3.151   2.006  1.5716 -1.0586 -1.5520
   20MOL   H10910787   2.909   3.187   2.290 -0.5818 -1.3801  0.7841
   20MOL   H11010788   2.791   3.015   2.381  1.4709 -2.7193  0.1982
   20MOL   H11110789   2.677   2.808   2.350  0.7286 -1.7189 -1.1682
   20MOL   H11210790   2.425   2.535   1.953  1.7965  0.2003  0.7780
   20MOL   H11310791   2.222   2.382   1.906 -3.0048 -0.3137  0.6799
   20MOL   C11410792   2.873   3.310   2.148 -0.3035 -0.6473 -0.5258
   20MOL   C11510793   2.990   3.391   2.211  0.3594 -0.3087  0.1775
   20MOL   C11610794   3.047   3.506   2.143 -1.0933  0.3691  0.4203
   20MOL   C11710795   3.168   3.566   2.186  0.2092  0.2663  0.6825
   20MOL   C11810796   3.223   3.512   2.306 -0.1217 -0.2372  0.3491
   20MOL   C11910797   3.351   3.570   2.356 -0.1920 -0.2043 -0.2210
   20MOL   N12010798   3.420   3.500   2.448 -0.1142  0.1916  0.4310
   20MOL   C12110799   3.514   3.541   2.544 -0.1975  0.0197 -0.3941
   20MOL   C12210800   3.500   3.666   2.608  0.4378  0.1751 -0.5825
   20MOL   C12310801   3.574   3.692   2.729  0.1553  0.0464  0.7745
   20MOL   C12410802   3.680   3.607   2.768  0.6347 -0.4473 -0.3955
   20MOL   N12510803   3.742   3.617   2.894  0.3524 -0.3888 -0.3598
   20MOL   C12610804   3.698   3.493   2.689 -0.4814  0.0661  0.0117
   20MOL   C12710805   3.616   3.455   2.581  0.2372  0.2693  0.1205
   20MOL   O12810806   3.390   3.677   2.317  0.4954  0.3496  0.6743
   20MOL   C12910807   3.164   3.407   2.378  0.4837  0.7164  0.3227
   20MOL   C13010808   3.051   3.345   2.329 -0.4065  0.1875 -0.7622
   20MOL   O13110809   2.818   3.352   2.044 -0.3919 -0.4640  0.5856
   20MOL   H13210810   3.000   3.542   2.052 -1.2606 -0.9564 -0.0226
   20MOL   H13310811   3.206   3.647   2.127  0.5876 -0.4789 -0.1004
   20MOL   H13410812   3.373   3.414   2.469 -0.2596  0.1195 -0.2005
   20MOL   H13510813   3.418   3.732   2.585 -0.1988  0.4046  2.1183
   20MOL   H13610814   3.537   3.780   2.779 -1.6137 -0.0966 -0.2367
   20MOL   H13710815   3.767   3.529   2.938 -0.3415  0.0946  1.0342
   20MOL   H13810816   3.770   3.414   2.708 -0.7039  0.4227  2.4241
   20MOL   H13910817   3.633   3.354   2.548  1.1567 -0.0064  1.4209
   20MOL   H14010818   3.203   3.377   2.474  3.3942  2.3326 -0.3061
   20MOL   H14110819   3.023   3.261   2.392 -1.1908  0.8778 -0.1865
   20MOL   C14210820   3.743   3.725   2.975  0.1395  0.4619 -0.2081
   20MOL   C14310821   3.760   3.691   3.119 -0.5273  0.5913  0.3324
   20MOL   C14410822   3.792   3.793   3.208  0.2102  0.0139  0.1644
   20MOL   C14510823   3.812   3.769   3.343 -0.2426 -0.3311  0.2617
   20MOL   C14610824   3.792   3.637   3.389 -0.1270  0.1856  0.3709
   20MOL   C14710825   3.801   3.595   3.533  0.5522  0.1378 -0.9244
   20MOL   N14810826   3.709   3.502   3.563  0.2172 -0.5105  0.1638
   20MOL   C14910827   3.691   3.452   3.691 -1.4638  0.4676  0.7606
   20MOL   C15010828   3.563   3.427   3.729  0.0903 -0.8411 -1.0827
   20MOL   C15110829   3.542   3.369   3.856  0.1402  0.1570  0.1239
   20MOL   C15210830   3.653   3.334   3.942 -0.3980  0.0600  0.4999
   20MOL   N15310831   3.640   3.274   4.071 -0.1077 -0.7477  0.3694
   20MOL   C15410832   3.783   3.374   3.912  0.3037  0.0446  0.5528
   20MOL   C15510833   3.806   3.425   3.780 -0.4010  0.8512 -0.5361
   20MOL   O15610834   3.869   3.656   3.617 -0.5532  0.2026  0.5479
   20MOL   C15710835   3.764   3.533   3.299  0.0864  0.6555 -0.6147
   20MOL   C15810836   3.750   3.559   3.162  0.2131 -0.2356  0.0643
   20MOL   O15910837   3.753   3.841   2.938  0.4225  0.6892 -0.1031
   20MOL   H16010838   3.803   3.895   3.175 -1.5073 -0.5115 -2.2381
   20MOL   H16110839   3.838   3.850   3.409  0.4629  0.4255 -0.9370
   20MOL   H16210840   3.644   3.473   3.492 -1.3185  0.5271  1.1213
   20MOL   H16310841   3.480   3.458   3.667 -0.5317 -0.3159 -0.0025
   20MOL   H16410842   3.438   3.354   3.883 -0.0939  0.3675 -0.6278
   20MOL   H16510843   3.698   3.313   4.145 -1.3903  0.4720  0.7453
   20MOL   H16610844   3.853   3.361   3.993  0.5872 -0.7032  0.1964
   20MOL   H16710845   3.905   3.461   3.759 -0.6435  1.6949 -0.2598
   20MOL   H16810846   3.757   3.433   3.338  1.7711  1.3827  1.6484
   20MOL   H16910847   3.720   3.474   3.102 -0.0481  1.0132 -1.5968
   20MOL   C17010848   3.567   3.170   4.117 -0.4708  0.4984 -0.3887
   20MOL   C17110849   3.582   3.137   4.261  0.6019  0.2026 -0.3419
   20MOL   C17210850   3.692   3.183   4.330 -0.7450  0.4623  0.2381
   20MOL   C17310851   3.700   3.151   4.471 -0.4229 -0.4879  0.3080
   20MOL   C17410852   3.605   3.074   4.536 -0.0204  0.0648  0.3840
   20MOL   C17510853   3.633   3.039   4.677 -0.1978 -0.3387 -0.7275
   20MOL   N17610854   3.704   2.922   4.678  0.1232  0.5048  0.4382
   20MOL   C17710855   3.724   2.835   4.787 -0.6335 -0.0107 -0.0488
   20MOL   C17810856   3.752   2.701   4.752  0.3056 -0.0866  0.3778
   20MOL   C17910857   3.793   2.611   4.851  0.1285  0.6504 -0.3348
   20MOL   C18010858   3.790   2.655   4.991  1.1341  0.4508 -0.4664
   20MOL   N18110859   3.827   2.558   5.093 -0.1661  0.0075 -0.3013
   20MOL   C18210860   3.768   2.784   5.024 -0.0873 -0.3147  0.0878
   20MOL   C18310861   3.736   2.875   4.921  0.6444  0.6035 -0.4964
   20MOL   O18410862   3.611   3.111   4.776  0.2273  0.2531  0.3868
   20MOL   C18510863   3.493   3.035   4.461  0.1994  0.5987  0.8271
   20MOL   C18610864   3.473   3.072   4.326  0.0177 -0.4217 -0.1629
   20MOL   O18710865   3.495   3.094   4.045 -0.6946  0.3646  0.1622
   20MOL   H18810866   3.781   3.231   4.292 -0.4814 -0.6335 -0.5554
   20MOL   H18910867   3.784   3.198   4.521 -1.3438  0.1595  1.2585
   20MOL   H19010868   3.731   2.872   4.595 -2.5302 -1.7731  0.8574
   20MOL   H19110869   3.761   2.678   4.647 -0.0187 -1.1351  0.5774
   20MOL   H19210870   3.832   2.515   4.821 -0.0171  0.4511  0.1084
   20MOL   H19310871   3.908   2.502   5.069  0.6358  1.5811 -1.3447
   20MOL   H19410872   3.772   2.819   5.126  1.1004 -1.3354  0.4084
   20MOL   H19510873   3.741   2.978   4.954 -0.4712  1.0937 -1.8119
   20MOL   H19610874   3.424   2.968   4.510  1.0408 -1.9353 -1.3433
   20MOL   H19710875   3.380   3.035   4.284 -0.3221 -0.1465  0.3456
   20MOL   C19810876   3.746   2.505   5.187 -0.7187 -0.1160  0.4508
   20MOL   C19910877   3.781   2.368   5.236 -0.1736 -0.1781  0.9063
   20MOL   C20010878   3.812   2.274   5.138  0.0658  0.3763  0.0131
   20MOL   C20110879   3.853   2.138   5.173  0.0530 -0.3202 -0.0247
   20MOL   C20210880   3.848   2.106   5.311  0.0573  0.1508 -0.5701
   20MOL   C20310881   3.877   1.968   5.359 -0.9806 -0.6316  0.3760
   20MOL   N20410882   3.807   1.876   5.292 -0.0889  0.2903  0.1021
   20MOL   C20510883   3.829   1.737   5.301 -0.1887  0.3314  0.2112
   20MOL   C20610884   3.819   1.672   5.427 -0.4008  0.0180 -0.4041
   20MOL   C20710885   3.832   1.531   5.427 -0.6754  0.2568 -0.2505
   20MOL   C20810886   3.871   1.461   5.310  0.8256 -0.8832  0.9163
   20MOL   N20910887   3.907   1.326   5.303  0.3136 -0.1082 -0.1787
   20MOL   C21010888   3.878   1.528   5.184 -0.3947  0.0840  0.0228
   20MOL   C21110889   3.855   1.665   5.182  0.0377 -0.5533  0.2299
   20MOL   O21210890   3.944   1.943   5.458  0.6456  0.0676 -0.4056
   20MOL   C21310891   3.821   2.207   5.408 -0.6877 -0.0532 -0.3347
   20MOL   C21410892   3.778   2.339   5.371  0.4764 -0.2532 -0.4359
   20MOL   O21510893   3.654   2.567   5.237  0.6668  0.4551  0.5146
   20MOL   H21610894   3.820   2.299   5.033  0.2303  2.4439  0.5026
   20MOL   H21710895   3.882   2.063   5.102 -0.3105 -0.2811 -0.2170
   20MOL   H21810896   3.759   1.910   5.210  0.2312  0.0236 -0.1981
   20MOL   H21910897   3.780   1.732   5.508  1.0000  0.3202  0.0512
   20MOL   H22010898   3.806   1.471   5.513 -0.6823 -0.1316 -0.5273
   20MOL   H22110899   3.937   1.296   5.212  0.2394 -1.2650  0.1645
   20MOL   H22210900   3.896   1.475   5.091  1.0749 -0.2883  0.4914
   20MOL   H22310901   3.857   1.722   5.090  0.8387  2.5614  2.0872
   20MOL   H22410902   3.828   2.180   5.512  1.2678 -1.6142 -0.8487
   20MOL   H22510903   3.740   2.407   5.445  1.7174  2.2695 -2.0311
   20MOL   C22610904   3.910   1.229   5.398 -0.4636  0.1969  0.0227
   20MOL   C22710905   3.947   1.090   5.351 -0.4325  0.3327 -0.3772
   20MOL   C22810906   4.028   1.005   5.429  0.0543 -0.2534 -0.0308
   20MOL   C22910907   4.054   0.875   5.384 -0.4944  0.4768  0.2628
   20MOL   C23010908   4.017   0.831   5.256  0.3893 -0.1844 -0.5440
   20MOL   C23110909   4.060   0.696   5.203  0.1559  0.1345  0.3698
   20MOL   N23210910   4.052   0.671   5.071 -0.0154 -0.2296 -0.0138
   20MOL   C23310911   4.047   0.547   5.005 -0.5855  0.0568 -0.8275
   20MOL   C23410912   3.967   0.539   4.888 -0.1462 -0.1578  0.5253
   20MOL   C23510913   3.955   0.416   4.821  0.0478  0.2654  0.6946
   20MOL   C23610914   4.024   0.301   4.863 -0.3669 -0.0001 -0.0610
   20MOL   N23710915   4.005   0.169   4.809  0.5593 -0.5035 -0.1974
   20MOL   C23810916   4.113   0.318   4.972  0.2960 -0.8808  0.6743
   20MOL   C23910917   4.137   0.439   5.035 -0.3494  0.0492  0.4798
   20MOL   O24010918   4.088   0.596   5.276 -0.3165  0.4043 -0.1325
   20MOL   C24110919   3.937   0.918   5.178  0.8693 -0.7623 -0.1797
   20MOL   C24210920   3.896   1.042   5.228 -0.3885 -0.3972 -0.1062
   20MOL   O24310921   3.895   1.250   5.521 -0.2301  0.5622 -0.0679
   20MOL   H24410922   4.071   1.042   5.521  1.4396  1.0502 -1.1877
   20MOL   H24510923   4.118   0.810   5.443  2.1957  0.3883 -2.6347
   20MOL   H24610924   4.016   0.743   5.011 -0.3014  0.9316  1.5230
   20MOL   H24710925   3.902   0.622   4.865  0.5809  1.4030  3.7620
   20MOL   H24810926   3.898   0.404   4.730 -0.7373 -1.9635  1.4522
   20MOL   H24910927   4.095   0.123   4.806  0.0235 -1.5692 -0.2003
   20MOL   H25010928   4.156   0.225   5.004 -0.3949 -1.1159  0.9248
   20MOL   H25110929   4.199   0.445   5.124 -1.4044  0.4267  1.2075
   20MOL   H25210930   3.899   0.877   5.085  1.1176  1.7243 -1.4040
   20MOL   H25310931   3.828   1.098   5.166 -0.6215 -0.0435  0.4654
   20MOL   C25410932   3.897   0.128   4.735  0.1664 -0.7821 -0.4931
   20MOL   C25510933   3.918   0.010   4.647 -0.6622  0.7821 -0.0151
   20MOL   C25610934   3.839   8.128   4.535  0.1115 -0.1491  0.2222
   20MOL   C25710935   3.864   8.013   4.458  0.2004 -0.1368 -0.3652
   20MOL   C25810936   3.968   7.922   4.493  0.5830  0.3661  0.3352
   20MOL   C25910937   4.019   7.816   4.401  0.4582  0.8502  0.7910
   20MOL   N26010938   3.940   7.787   4.301 -0.1840 -0.3140 -0.3890
   20MOL   C26110939   3.969   7.697   4.198 -0.1752  0.6519  0.6396
   20MOL   C26210940   3.875   7.597   4.172  0.2207 -0.1125 -0.5423
   20MOL   C26310941   3.916   7.499   4.083  0.1215 -0.5165 -0.0499
   20MOL   C26410942   4.043   7.493   4.020 -0.2841  0.1722  0.2854
   20MOL   N26510943   4.079   7.388   3.933  0.1632 -0.5185 -0.1932
   20MOL   C26610944   4.134   7.603   4.043  0.0164  0.1505 -0.5185
   20MOL   C26710945   4.094   7.698   4.137  0.1334 -0.2810  0.9658
   20MOL   O26810946   4.121   7.747   4.429  0.2828 -0.2452 -0.4370
   20MOL   C26910947   4.035   7.942   4.615 -0.3139  0.0542 -0.1004
   20MOL   C27010948   4.009   8.051   4.689  0.0901 -0.1638  0.2027
   20MOL   O27110949   3.789   0.185   4.737  0.6884 -0.0992  0.3563
   20MOL   H27210950   3.764   0.056   4.509  1.0428  0.5110 -0.6234
   20MOL   H27310951   3.809   7.984   4.369 -0.1808 -2.5832  0.6194
   20MOL   H27410952   3.845   7.820   4.309 -0.0317  0.5251 -1.7705
   20MOL   H27510953   3.783   7.590   4.228  0.9637  0.0011  0.6953
   20MOL   H27610954   3.843   7.424   4.059  1.5685 -1.7784 -0.5951
   20MOL   H27710955   4.169   7.344   3.942  0.0728 -1.0520 -1.7662
   20MOL   H27810956   4.233   7.600   3.999  0.5845  1.6407  0.6261
   20MOL   H27910957   4.172   7.770   4.155  1.1283 -1.6824  2.3307
   20MOL   H28010958   4.097   7.862   4.654 -0.3719 -0.2233 -0.5666
   20MOL   H28110959   4.060   8.058   4.784  0.3738  2.9211 -0.0998
   20MOL   C28210960   3.989   7.312   3.869 -0.0381 -0.2557  0.4424
   20MOL   C28310961   3.869   7.381   3.810  0.2906  0.1778 -0.4791
   20MOL   C28410962   3.742   7.316   3.809  0.5673  0.2760  0.4440
   20MOL   C28510963   3.630   7.362   3.743  0.2162  0.4018 -0.0878
   20MOL   C28610964   3.640   7.488   3.678 -0.2651  0.0751  0.0016
   20MOL   C28710965   3.512   7.559   3.627  0.5472 -0.8282 -0.2934
   20MOL   N28810966   3.463   7.669   3.692  0.2572  0.3345 -0.2069
   20MOL   C28910967   3.529   7.753   3.778  0.8660  0.1700 -0.2238
   20MOL   C29010968   3.608   7.715   3.883 -0.2864  0.7239 -0.5349
   20MOL   C29110969   3.692   7.809   3.952 -0.0092  0.1235  0.0350
   20MOL   C29210970   3.676   7.948   3.920 -0.4423  0.1712 -0.5229
   20MOL   N29310971   3.738   8.058   3.981 -0.0709  0.8966 -0.2542
   20MOL   C29410972   3.583   7.981   3.826  0.7155 -0.3808 -0.1033
   20MOL   C29510973   3.513   7.888   3.752 -0.1469 -0.6341 -0.4079
   20MOL   O29610974   3.447   7.512   3.531  0.8545  0.3214  0.7108
   20MOL   C29710975   3.762   7.553   3.666  0.0936  0.2694 -1.2243
   20MOL   C29810976   3.879   7.497   3.726  0.4935 -0.3711 -0.0108
   20MOL   O29910977   4.003   7.192   3.870  0.2050 -0.1454 -0.0961
   20MOL   H30010978   3.724   7.226   3.866 -2.3898 -0.1376 -0.9872
   20MOL   H30110979   3.540   7.304   3.730  1.0218 -0.9421  0.2037
   20MOL   H30210980   3.371   7.696   3.659  0.7106  3.3971  0.8573
   20MOL   H30310981   3.610   7.611   3.912  0.8483  1.1265  0.8724
   20MOL   H30410982   3.765   7.777   4.026  0.7161  0.4189 -0.5513
   20MOL   H30510983   3.679   8.138   3.999  0.9315  2.0433 -1.9796
   20MOL   H30610984   3.584   8.086   3.800  1.3763 -0.3598  0.0177
   20MOL   H30710985   3.456   7.913   3.664  1.4962 -2.1879 -1.9569
   20MOL   H30810986   3.770   7.642   3.606  0.9771 -0.1275 -1.7045
   20MOL   H30910987   3.972   7.548   3.708  1.1263 -1.7572 -0.7965
   20MOL   C31010988   3.860   8.053   4.038 -0.4297  0.0545  0.5997
   20MOL   C31110989   3.889   0.010   4.143 -0.0649 -0.0697 -0.1578
   20MOL   C31210990   4.013   0.026   4.203 -0.4748  0.4919  0.1115
   20MOL   C31310991   4.040   0.119   4.303 -0.1592  0.5030  0.2728
   20MOL   C31410992   3.945   0.224   4.321  0.1940 -0.3069  0.0738
   20MOL   C31510993   3.978   0.335   4.420 -0.3406 -0.1256 -0.0450
   20MOL   N31610994   3.919   0.449   4.385  0.1393  0.0905  0.8571
   20MOL   C31710995   3.891   0.565   4.463 -0.5408 -0.0444 -0.1501
   20MOL   C31810996   3.756   0.599   4.475 -0.6853 -0.2424 -0.1507
   20MOL   C31910997   3.719   0.702   4.564 -0.7858 -0.3032 -0.3142
   20MOL   C32010998   3.819   0.782   4.630  0.4556  0.1202  0.1231
   20MOL   N32110999   3.773   0.883   4.714  0.1589  0.0825 -0.3725
   20MOL   C32211000   3.955   0.747   4.605  0.1387 -0.7653  0.9328
   20MOL   C32311001   3.991   0.638   4.524 -0.2718  0.2851  0.2181
   20MOL   O32411002   4.055   0.323   4.519  0.1823 -0.1894  0.4613
   20MOL   C32511003   3.814   0.206   4.272  0.5838 -0.0982  0.1234
   20MOL   C32611004   3.784   0.100   4.183  0.1309  0.0683  0.5392
   20MOL   O32711005   3.941   7.970   4.003  0.7892  0.1385 -0.3682
   20MOL   H32811006   4.091   8.102   4.179 -1.4813 -0.8889  0.7767
   20MOL   H32911007   4.129   0.116   4.363 -0.0171 -0.6686  0.0195
   20MOL   H33011008   3.859   0.440   4.305  0.4289 -1.9568  0.8574
   20MOL   H33111009   3.671   0.549   4.430  0.2488 -1.5192 -0.5156
   20MOL   H33211010   3.615   0.724   4.581 -0.7647  0.6327 -1.3368
   20MOL   H33311011   3.687   0.929   4.688  0.6881  1.5514  0.3926
   20MOL   H33411012   4.036   0.792   4.662  0.7936 -1.2750  0.4214
   20MOL   H33511013   4.093   0.620   4.493 -0.3074  1.0688 -0.3615
   20MOL   H33611014   3.731   0.272   4.289  0.3557 -0.2714 -0.3088
   20MOL   H33711015   3.682   0.089   4.150  0.3592  2.6545 -1.2399
   20MOL   C33811016   3.846   0.950   4.809  0.3578  0.5272  0.2107
   20MOL   C33911017   3.778   1.063   4.871  0.0618 -0.8084  0.1672
   20MOL   C34011018   3.671   1.045   4.962 -0.2944  0.6653  0.6894
   20MOL   C34111019   3.599   1.148   5.010 -0.6748  0.2235 -0.2920
   20MOL   C34211020   3.632   1.280   4.970  0.0128  0.3093 -0.2771
   20MOL   C34311021   3.545   1.390   5.014 -0.6727 -0.5689 -0.8744
   20MOL   N34411022   3.521   1.489   4.933  0.6718 -0.0220 -0.1202
   20MOL   C34511023   3.515   1.489   4.792  0.9698  0.3545  0.5274
   20MOL   C34611024   3.450   1.392   4.716 -0.1200 -0.6617 -0.4717
   20MOL   C34711025   3.434   1.405   4.578  0.5816 -0.3621  0.5009
   20MOL   C34811026   3.473   1.523   4.510  0.4797 -0.4456  0.8301
   20MOL   N34911027   3.433   1.532   4.375  0.4070 -0.1722 -0.1589
   20MOL   C35011028   3.546   1.619   4.587  0.8841  0.1292  0.2588
   20MOL   C35111029   3.569   1.600   4.724 -0.7632  0.0291  0.6978
   20MOL   O35211030   3.504   1.394   5.131 -0.0089  0.2394 -0.0450
   20MOL   C35311031   3.744   1.300   4.887  0.0250  0.4058 -0.4377
   20MOL   C35411032   3.820   1.191   4.837 -0.7537 -0.1701  0.0043
   20MOL   O35511033   3.956   0.902   4.852 -0.2341 -0.4438  0.1396
   20MOL   H35611034   3.641   0.944   4.986  0.1513 -0.7444 -4.1332
   20MOL   H35711035   3.521   1.156   5.084 -1.2815 -0.6561 -0.8452
   20MOL   H35811036   3.483   1.575   4.971  1.4066  0.7978 -1.1941
   20MOL   H35911037   3.401   1.321   4.780 -0.7841  1.9780  2.0610
   20MOL   H36011038   3.386   1.321   4.530 -2.1474  2.2943 -1.6169
   20MOL   H36111039   3.353   1.476   4.349 -1.3524  1.7659  0.9827
   20MOL   H36211040   3.583   1.715   4.552  1.0990 -0.3955 -0.9841
   20MOL   H36311041   3.629   1.666   4.785 -0.6034 -0.5603  1.1854
   20MOL   H36411042   3.773   1.400   4.855 -1.2999  0.2434 -2.1817
   20MOL   H36511043   3.901   1.213   4.769  0.0546  0.3821  1.1276
   20MOL   C36611044   3.471   1.621   4.285 -0.3237 -0.0319  0.3125
   20MOL   C36711045   3.400   1.604   4.157  0.4558  0.0131 -0.3104
   20MOL   C36811046   3.261   1.620   4.159  0.1545  0.1879  0.7468
   20MOL   C36911047   3.182   1.586   4.044  0.0805 -0.0313 -0.3567
   20MOL   C37011048   3.248   1.554   3.921  0.1247 -0.4133 -0.6256
   20MOL   C37111049   3.174   1.514   3.799  0.2249 -0.6302 -0.6461
   20MOL   N37211050   3.231   1.553   3.689 -0.3116 -0.2433 -0.0876
   20MOL   C37311051   3.198   1.548   3.552  0.1979  0.1296 -0.1822
   20MOL   C37411052   3.294   1.507   3.451  0.3045  0.1606 -0.1192
   20MOL   C37511053   3.262   1.511   3.318  0.4841 -0.3499  0.2032
   20MOL   C37611054   3.128   1.542   3.278 -0.0162 -0.1535 -0.1390
   20MOL   N37711055   3.093   1.534   3.143  0.5172 -0.2669 -0.3671
   20MOL   C37811056   3.031   1.575   3.373 -0.1766  0.0635  0.1597
   20MOL   C37911057   3.064   1.581   3.509 -0.0368 -0.0949  0.4042
   20MOL   O38011058   3.079   1.433   3.804 -0.4865  0.0670 -0.0992
   20MOL   C38111059   3.391   1.543   3.926 -0.6224 -0.5143  0.3971
   20MOL   C38211060   3.466   1.577   4.042  0.1831  0.5988 -0.4833
   20MOL   O38311061   3.568   1.690   4.293 -0.4304 -0.0567  0.1321
   20MOL   H38411062   3.218   1.655   4.252  1.0480  2.2477  0.3923
   20MOL   H38511063   3.076   1.606   4.053 -0.1440 -0.7160 -1.3962
   20MOL   H38611064   3.324   1.591   3.704 -0.8231  0.2098  2.1679
   20MOL   H38711065   3.396   1.484   3.478  0.3131  1.1326  0.7470
   20MOL   H38811066   3.329   1.471   3.245  0.7393  1.8769 -0.8289
   20MOL   H38911067   3.117   1.452   3.091 -1.0118 -0.0772 -1.3936
   20MOL   H39011068   2.927   1.590   3.350 -0.3012  0.1444  0.7660
   20MOL   H39111069   2.981   1.584   3.577 -0.7515 -0.7088 -0.4332
   20MOL   H39211070   3.446   1.508   3.840  0.1133 -1.1266  1.1086
   20MOL   H39311071   3.573   1.564   4.046  0.0586 -0.9006 -1.7029
   20MOL   C39411072   3.007   1.613   3.074  0.7795 -0.8624  0.2487
   20MOL   C39511073   2.971   1.564   2.933 -0.2352  0.7440  0.5599
   20MOL   C39611074   3.055   1.481   2.861 -0.4041  0.2085  0.3241
   20MOL   C39711075   3.006   1.425   2.738 -0.2342  1.0717  0.2406
   20MOL   C39811076   2.878   1.459   2.694 -0.3682 -0.6624 -0.5672
   20MOL   C39911077   2.819   1.401   2.569  0.7271 -0.4874  0.1692
   20MOL   N40011078   2.686   1.374   2.582  0.2278 -0.3532  0.5816
   20MOL   C40111079   2.597   1.329   2.476 -0.3433 -0.2827  0.7620
   20MOL   C40211080   2.486   1.240   2.507 -0.4603 -0.6307 -0.1623
   20MOL   C40311081   2.397   1.200   2.402  0.0583  0.1618  0.6033
   20MOL   C40411082   2.418   1.234   2.271  0.5248  0.3658  0.7227
   20MOL   N40511083   2.331   1.174   2.178  0.1288  0.4324  0.3644
   20MOL   C40611084   2.521   1.326   2.240  0.7192 -0.4406  0.0013
   20MOL   C40711085   2.614   1.368   2.347 -0.7214 -0.1158  0.3956
   20MOL   O40811086   2.887   1.371   2.470 -0.7880  0.1702 -0.5648
   20MOL   C40911087   2.794   1.545   2.772  0.5684  0.1999  0.0183
   20MOL   C41011088   2.849   1.609   2.886 -0.5187  0.0728  0.1704
   20MOL   O41111089   2.951   1.708   3.124  0.1321 -0.0899  0.0724
   20MOL   H41211090   3.147   1.448   2.908 -0.2468 -0.7163 -0.5934
   20MOL   H41311091   3.069   1.365   2.674 -2.5657  0.8999 -1.9739
   20MOL   H41411092   2.655   1.379   2.678 -0.2648  3.0917  0.3017
   20MOL   H41511093   2.461   1.209   2.607  0.5354 -3.2596 -0.6799
   20MOL   H41611094   2.307   1.143   2.424  0.7669 -0.7049  1.2940
   20MOL   H41711095   2.247   1.132   2.217 -0.1921  1.8820  1.2474
   20MOL   H41811096   2.545   1.364   2.142  1.8497 -1.7330 -0.2336
   20MOL   H41911097   2.700   1.430   2.327 -0.2451 -0.2488  2.0321
   20MOL   H42011098   2.694   1.576   2.745 -0.0545  0.5351  2.6198
   20MOL   H42111099   2.781   1.641   2.964  0.2703 -2.2919  1.8896
   20MOL   C42211100   2.352   1.163   2.048  0.0145 -0.0126  0.1712
   20MOL   C42311101   2.249   1.083   1.967  0.0529 -0.3558 -0.2340
   20MOL   C42411102   2.160   0.990   2.028  0.0728 -0.3066  0.3759
   20MOL   C42511103   2.087   0.896   1.952 -0.3027  0.4055 -0.6362
   20MOL   C42611104   2.090   0.898   1.812 -0.3712  0.2047 -0.0887
   20MOL   C42711105   2.001   0.810   1.730  0.3900  0.3257 -0.9658
   20MOL   N42811106   2.082   0.723   1.665  0.1574 -0.4347  0.1748
   20MOL   C42911107   2.061   0.647   1.548  0.0467  0.2634 -0.4047
   20MOL   C43011108   2.163   0.559   1.508  0.1482 -0.0765  0.5841
   20MOL   C43111109   2.155   0.495   1.382  0.2580  0.1066  0.4075
   20MOL   C43211110   2.044   0.520   1.300  0.4403 -0.1716  0.4352
   20MOL   N43311111   2.038   0.452   1.172  0.2167 -0.7341 -0.3405
   20MOL   C43411112   1.939   0.604   1.336 -0.1247  0.6781  0.1790
   20MOL   C43511113   1.949   0.666   1.462 -0.0606  0.1357  0.4238
   20MOL   O43611114   1.875   0.799   1.746  0.2547  0.4716  0.1916
   20MOL   C43711115   2.183   0.991   1.751 -0.2012  0.2660  0.0094
   20MOL   C43811116   2.257   1.082   1.826  0.3576 -0.4166 -0.1735
   20MOL   O43911117   2.450   1.211   1.988  0.0008  0.0134 -0.3850
   20MOL   H44011118   2.145   0.986   2.135 -0.6239  0.7893  0.3283
   20MOL   H44111119   2.022   0.828   2.005  1.9046 -0.0028  1.6686
   20MOL   H44211120   2.174   0.723   1.706 -0.0607  2.3002  0.7512
   20MOL   H44311121   2.247   0.550   1.575  0.2895 -0.1885  0.3902
   20MOL   H44411122   2.235   0.428   1.353 -0.1449  0.2077 -1.0176
   20MOL   H44511123   2.028   0.351   1.170  0.3694 -0.7373 -1.3885
   20MOL   H44611124   1.862   0.634   1.267  2.3961  1.3739 -2.3874
   20MOL   H44711125   1.870   0.732   1.495  1.3757  3.1151 -1.8694
   20MOL   H44811126   2.173   0.993   1.644  3.3463  2.6115 -0.3648
   20MOL   H44911127   2.326   1.146   1.773  0.1668 -1.3480 -1.5553
   20MOL   C45011128   2.073   0.504   1.054  0.3927  0.0716  0.3499
   20MOL   C45111129   2.080   0.394   0.952  0.0313  0.3088 -0.1609
   20MOL   C45211130   2.193   0.375   0.879 -0.5528  0.1126  0.3939
   20MOL   C45311131   2.205   0.273   0.782 -0.2838  0.2600  0.0101
   20MOL   C45411132   2.096   0.187   0.766 -0.0699  0.3852 -0.0841
   20MOL   C45511133   2.112   0.066   0.684 -0.7492 -0.3887  0.1250
   20MOL   N45611134   2.022   0.057   0.580  0.0569  0.0204  0.3122
   20MOL   C45711135   2.007   8.109   0.474  0.5298 -0.0155 -0.8527
   20MOL   C45811136   2.085   7.988   0.471 -0.7614  0.5161 -0.2801
   20MOL   C45911137   2.051   7.892   0.371 -0.7540 -0.2103 -0.0005
   20MOL   C46011138   1.982   7.932   0.256 -0.0017  0.3818 -0.9459
   20MOL   N46111139   1.975   7.848   0.139  0.4904  0.0282 -0.8391
   20MOL   C46211140   1.917   8.059   0.256 -1.2681  1.0505 -0.1553
   20MOL   C46311141   1.922   8.144   0.370 -0.4790  1.1784 -0.5237
   20MOL   O46411142   2.211   8.146   0.687  0.2517  0.2596 -0.5109
   20MOL   C46511143   1.979   0.210   0.841  0.0837  0.6311  0.2158
   20MOL   C46611144   1.971   0.311   0.935  0.2869  1.0266 -0.2558
   20MOL   O46711145   2.090   0.627   1.033 -0.0477  0.3984  0.3960
   20MOL   H46811146   2.272   0.443   0.909 -0.5510 -0.0796  0.8288
   20MOL   H46911147   2.295   0.268   0.724 -1.2717 -0.0788 -1.5205
   20MOL   H47011148   1.956   0.133   0.582  0.8521  0.8289 -2.2101
   20MOL   H47111149   2.149   7.962   0.554  0.9908  2.0403 -1.1249
   20MOL   H47211150   2.110   7.801   0.374 -0.1447  0.0005 -3.2058
   20MOL   H47311151   1.992   7.753   0.169 -1.0053 -1.4423 -4.3451
   20MOL   H47411152   1.851   8.082   0.173 -0.8211  1.2030 -0.4684
   20MOL   H47511153   1.865   0.090   0.372  0.8259  1.9825  0.7802
   20MOL   H47611154   1.900   0.138   0.826  0.8265  0.1455 -1.5815
   20MOL   H47711155   1.876   0.321   0.985 -0.6845 -0.1817 -1.8288
   20MOL   C47811156   1.991   7.880   0.008 -0.3696  0.3602 -0.2070
   20MOL   C47911157   2.039   7.758   8.083  0.0136 -0.0851 -0.3230
   20MOL   C48011158   1.946   7.657   8.060 -0.5522  0.4446  0.4147
   20MOL   C48111159   1.988   7.542   7.988  0.2517 -0.0951 -0.0394
   20MOL   C48211160   2.120   7.532   7.940  0.3607  0.0671  0.0786
   20MOL   C48311161   2.150   7.408   7.869  0.0009  0.5174 -0.0128
   20MOL   N48411162   2.079   7.392   7.757  0.1240 -0.4468 -0.4946
   20MOL   C48511163   2.059   7.273   7.693  0.5007  0.5744 -0.0399
   20MOL   C48611164   1.926   7.228   7.677 -0.2124  0.2722 -0.4366
   20MOL   C48711165   1.895   7.117   7.595 -0.1820 -0.6276 -0.4371
   20MOL   C48811166   2.001   7.038   7.555 -0.1326  0.3908 -0.0703
   20MOL   N48911167   1.972   6.924   7.477 -0.0409 -0.5004  0.2057
   20MOL   C49011168   2.135   7.067   7.598  0.0815  0.3301  0.2329
   20MOL   C49111169   2.163   7.196   7.647  0.0433  0.0983  0.1632
   20MOL   O49211170   2.241   7.330   7.901  0.0845 -0.1152  0.2893
   20MOL   C49311171   2.212   7.629   7.974  0.3523  0.6458  0.6485
   20MOL   C49411172   2.171   7.748   8.036  0.3249 -0.2999 -0.2350
   20MOL   O49511173   1.974   7.993   8.106 -0.5467 -0.4020 -0.1940
   20MOL   H49611174   1.845   7.672   8.094 -1.0820 -1.2101 -0.3733
   20MOL   H49711175   1.910   7.472   7.961 -0.5284  0.9266 -0.4814
   20MOL   H49811176   2.019   7.471   7.737  1.4313  1.0199  1.2259
   20MOL   H49911177   1.853   7.291   7.727 -0.4356  0.1016 -0.5487
   20MOL   H50011178   1.792   7.088   7.587 -0.1222 -0.7295 -0.8251
   20MOL   H50111179   2.024   6.840   7.497 -0.4124 -1.3925 -2.3865
   20MOL   H50211180   2.212   6.995   7.573 -0.1797  0.0295  0.2980
   20MOL   H50311181   2.264   7.229   7.667 -0.7097  1.0151  2.6636
   20MOL   H50411182   2.315   7.621   7.944 -0.2368 -0.1355 -1.1854
   20MOL   H50511183   2.243   7.823   8.065 -0.8021  0.6841  0.0626
   20MOL   C50611184   1.898   6.909   7.367  0.4747 -0.3945 -0.1863
   20MOL   C50711185   1.885   6.767   7.317 -0.1264  0.2264  0.5341
   20MOL   C50811186   1.926   6.738   7.190 -0.4406 -0.3621  0.3174
   20MOL   C50911187   1.915   6.603   7.138  0.0685 -0.4068 -0.0850
   20MOL   C51011188   1.865   6.497   7.222 -0.8453 -0.0066  0.4380
   20MOL   C51111189   1.862   6.354   7.173 -0.4308  0.2663  0.0807
   20MOL   N51211190   1.858   6.253   7.261  0.2873 -0.1996 -0.8266
   20MOL   C51311191   1.870   6.111   7.245  0.3129  0.7285 -0.4932
   20MOL   C51411192   1.922   6.028   7.346 -0.5486 -0.0014 -0.5729
   20MOL   C51511193   1.957   5.893   7.324  0.2519  0.4983  0.9070
   20MOL   C51611194   1.937   5.835   7.199 -0.5559  0.3058  0.1728
   20MOL   N51711195   1.971   5.701   7.164 -0.1642 -0.0322  0.0683
   20MOL   C51811196   1.884   5.916   7.099  0.2915 -0.0177 -0.3011
   20MOL   C51911197   1.854   6.052   7.117 -0.7756  0.1778 -0.1651
   20MOL   O52011198   1.856   6.337   7.048  0.0354  0.3718 -0.2372
   20MOL   C52111199   1.836   6.530   7.355 -0.2374  0.5910  0.0859
   20MOL   C52211200   1.840   6.659   7.406  0.1032 -1.2676  0.4379
   20MOL   O52311201   1.831   7.003   7.321  0.0778 -0.2184  0.4963
   20MOL   H52411202   1.943   6.820   7.122 -2.0666  0.0830  0.4351
   20MOL   H52511203   1.945   6.584   7.036 -0.5568 -0.7264 -0.2108
   20MOL   H52611204   1.850   6.292   7.354  0.8466  0.2552 -0.9629
   20MOL   H52711205   1.939   6.073   7.443  0.9653 -1.6967 -0.0033
   20MOL   H52811206   2.002   5.837   7.405  1.8214 -0.1522 -0.4030
   20MOL   H52911207   1.951   5.681   7.067  2.7152  0.7752 -0.7526
   20MOL   H53011208   1.864   5.863   7.007  1.0805 -0.7593 -0.0565
   20MOL   H53111209   1.818   6.114   7.036  0.6470  0.0474 -0.9164
   20MOL   H53211210   1.804   6.448   7.418 -1.1902  0.7052 -0.2492
   20MOL   H53311211   1.824   6.663   7.513 -1.3325  0.0485  0.1902
   20MOL   C53411212   2.060   5.618   7.219  0.0356 -0.8260 -0.6378
   20MOL   C53511213   2.110   5.503   7.135  0.0448  0.6964  0.2584
   20MOL   C53611214   2.082   5.497   6.997 -0.3656  0.0326  0.6189
   20MOL   C53711215   2.091   5.374   6.931  0.4327 -0.0837  0.2423
   20MOL   C53811216   2.150   5.263   6.986 -0.0350 -0.4370  0.0060
   20MOL   C53911217   2.150   5.132   6.910  0.6656 -0.5138 -0.3538
   20MOL   N54011218   2.219   5.036   6.969 -0.3392 -0.1029  0.0500
   20MOL   C54111219   2.224   4.899   6.927 -0.5468  0.5023 -0.1462
   20MOL   C54211220   2.244   4.803   7.027 -0.7504  0.4180 -0.1920
   20MOL   C54311221   2.212   4.666   6.996  0.6747 -0.1658 -0.5112
   20MOL   C54411222   2.175   4.627   6.866 -0.3836  0.3003  0.2580
   20MOL   N54511223   2.156   4.490   6.840 -0.2179 -0.0274  0.2123
   20MOL   C54611224   2.159   4.725   6.768  0.6130  0.4246  0.0854
   20MOL   C54711225   2.177   4.857   6.799 -0.3841 -0.7609 -0.7444
   20MOL   O54811226   2.087   5.128   6.804 -0.0972  0.2647  0.0184
   20MOL   C54911227   2.192   5.275   7.116  0.2698 -0.8405 -0.4213
   20MOL   C55011228   2.166   5.389   7.194 -0.1056 -0.4671 -0.2270
   20MOL   O55111229   2.090   5.636   7.339 -0.1365 -0.6378  0.2636
   20MOL   H55211230   2.043   5.586   6.950 -1.1873 -0.6718 -0.0489
   20MOL   H55311231   2.053   5.369   6.830  0.3525  0.7284  0.2260
   20MOL   H55411232   2.272   5.064   7.050  3.1001 -2.3101 -1.3258
   20MOL   H55511233   2.271   4.833   7.127  0.3392  0.3843 -0.4640
   20MOL   H55611234   2.215   4.606   7.085 -2.3311  0.1247 -0.1761
   20MOL   H55711235   2.133   4.467   6.744 -1.8430  2.2268  0.0116
   20MOL   H55811236   2.115   4.693   6.675 -2.7762 -0.7385  2.0238
   20MOL   H55911237   2.160   4.929   6.721  1.5649  0.3166 -0.2097
   20MOL   H56011238   2.236   5.192   7.169  2.4098  0.2689 -0.4081
   20MOL   H56111239   2.206   5.388   7.294 -0.0538 -1.5721 -0.2591
   20MOL   H56211240   2.189   4.411   6.894  0.8848  0.3181  0.0450
   21MOL     C111241   6.705   1.194   7.779  0.5793  0.0777 -0.1673
   21MOL     C211242   6.696   1.063   7.707  0.2671  0.5621 -0.0322
   21MOL     C311243   6.720   0.947   7.769 -0.5474  0.0729  0.0225
   21MOL     C411244   6.734   0.823   7.697  0.2540 -0.9413  0.0031
   21MOL     C511245   6.713   0.821   7.555 -0.0446 -0.3162 -0.3932
   21MOL     C611246   6.731   0.692   7.481 -0.4919  0.0002 -0.3028
   21MOL     N711247   6.770   0.709   7.355 -1.0893  0.0945 -0.0903
   21MOL     C811248   6.812   0.613   7.259 -0.6514 -0.0858  0.9071
   21MOL     C911249   6.859   0.663   7.135  0.0818 -0.2974 -0.0818
   21MOL    C1011250   6.893   0.576   7.028  0.5915 -0.0670 -0.4032
   21MOL    C1111251   6.863   0.438   7.040 -0.9052  0.2178  0.3522
   21MOL    N1211252   6.898   0.359   6.924  0.2314  0.3977  0.0420
   21MOL    C1311253   6.810   0.387   7.156  0.3686 -0.1233 -1.1846
   21MOL    C1411254   6.791   0.472   7.268 -0.2479 -0.1432 -0.0250
   21MOL    O1511255   6.726   0.583   7.537 -0.1793 -0.8643  0.3983
   21MOL    C1611256   6.675   0.943   7.498  1.0169 -0.6298 -0.1550
   21MOL    C1711257   6.673   1.063   7.564 -0.7737  0.3443 -0.5596
   21MOL    O1811258   6.675   1.305   7.727 -0.4068  0.6310 -0.1966
   21MOL    H1911259   6.739   0.950   7.875 -0.9493  1.1453  0.0678
   21MOL    H2011260   6.759   0.734   7.753 -0.0580  1.0837  3.4752
   21MOL    H2111261   6.790   0.805   7.333  1.9946 -0.5952 -0.4468
   21MOL    H2211262   6.862   0.770   7.123 -0.9486 -0.2129  0.3370
   21MOL    H2311263   6.928   0.610   6.932 -0.2084  0.6938 -0.4365
   21MOL    H2411264   6.938   0.407   6.844  0.9956 -1.2347 -0.5790
   21MOL    H2511265   6.788   0.281   7.161 -0.8666  0.1130 -1.4155
   21MOL    H2611266   6.743   0.428   7.354  2.2602  0.1500  1.6063
   21MOL    H2711267   6.645   0.946   7.394 -0.8596  1.1290  0.3971
   21MOL    H2811268   6.643   1.154   7.513 -1.9752  0.2579 -0.0092
   21MOL    H2911269   6.747   1.189   7.879 -2.5195  0.7613  1.2368
   21MOL    C3011270   6.904   0.225   6.906 -0.0540  0.1982  0.1315
   21MOL    C3111271   6.956   0.189   6.771  0.1515  0.2376  0.7914
   21MOL    C3211272   7.048   0.077   6.755  0.0425  0.2093 -0.3236
   21MOL    C3311273   7.108   0.052   6.625 -0.6343  0.3079  0.6944
   21MOL    C3411274   7.083   0.144   6.515  0.3276  0.5681 -0.1779
   21MOL    C3511275   7.154   0.123   6.384 -0.5237  0.2760 -0.1106
   21MOL    N3611276   7.216   8.144   6.367  0.5039  0.3883 -1.1591
   21MOL    C3711277   7.300   8.089   6.273 -1.2282 -0.0388 -0.0639
   21MOL    C3811278   7.345   7.952   6.293  0.3732 -0.2572 -0.1782
   21MOL    C3911279   7.449   7.903   6.219  0.4202 -0.0215  0.1182
   21MOL    C4011280   7.507   7.973   6.109  0.3971  0.1111 -0.0001
   21MOL    N4111281   7.613   7.925   6.023 -0.4004 -0.1927 -0.1595
   21MOL    C4211282   7.460   8.105   6.084 -0.2680  0.8039 -0.3742
   21MOL    C4311283   7.362   0.017   6.171  0.4482  0.7998  0.0460
   21MOL    O4411284   7.160   0.210   6.294  0.6945 -0.0473  0.4020
   21MOL    C4511285   6.982   0.243   6.533  0.4320 -0.0128  0.3457
   21MOL    C4611286   6.921   0.263   6.661  0.6709 -0.4621 -0.0444
   21MOL    O4711287   6.887   0.143   6.997 -0.1741  0.0437  0.1054
   21MOL    H4811288   7.069   0.016   6.842  0.6255  0.5177 -0.2451
   21MOL    H4911289   7.185   8.122   6.623 -1.7908 -0.8868  0.1612
   21MOL    H5011290   7.192   8.077   6.439  0.5346  0.1815 -1.3422
   21MOL    H5111291   7.308   7.888   6.372  0.5982  0.4074  0.4714
   21MOL    H5211292   7.478   7.802   6.240 -1.4513 -0.5874 -0.0097
   21MOL    H5311293   7.654   7.995   5.962 -0.3306 -0.5181 -0.4895
   21MOL    H5411294   7.498   0.018   6.003  1.9711  1.4120  1.0790
   21MOL    H5511295   7.332   0.115   6.137  0.5551  0.3350 -1.4371
   21MOL    H5611296   6.954   0.306   6.449 -0.6645 -1.5677 -0.4823
   21MOL    H5711297   6.836   0.330   6.663 -0.1841 -1.4683 -1.3207
   21MOL    C5811298   7.675   7.801   6.021  0.3280  0.5515  0.4327
   21MOL    C5911299   7.803   7.790   5.946 -0.4332  0.4068 -0.1376
   21MOL    C6011300   7.837   7.668   5.888 -0.5627 -0.5219 -0.0228
   21MOL    C6111301   7.966   7.644   5.836  0.2006 -0.6698 -0.2741
   21MOL    C6211302   8.055   7.751   5.815 -0.3683 -0.2189  0.2825
   21MOL    C6311303   0.047   7.736   5.752 -0.4830 -0.2970 -0.2967
   21MOL    N6411304   0.112   7.629   5.793 -0.4418 -0.0806  0.2276
   21MOL    C6511305   0.237   7.590   5.755 -0.1310 -0.4354 -0.0739
   21MOL    C6611306   0.276   7.605   5.617  0.6346  0.1846  0.1506
   21MOL    C6711307   0.406   7.575   5.581 -0.2965  0.4748  0.3018
   21MOL    C6811308   0.503   7.541   5.676  0.5223  0.1519 -0.3671
   21MOL    N6911309   0.643   7.530   5.642  0.5415  0.7705 -0.4068
   21MOL    C7011310   0.466   7.512   5.808 -0.7731 -0.4906 -0.3657
   21MOL    C7111311   0.332   7.539   5.849 -0.0493  0.7962  0.4169
   21MOL    O7211312   0.095   7.826   5.683  0.0050 -0.2123 -0.3853
   21MOL    C7311313   8.020   7.883   5.865 -0.2256  0.7261  0.0478
   21MOL    C7411314   7.904   7.892   5.946  0.4077 -0.8224 -0.7200
   21MOL    O7511315   7.627   7.703   6.064  0.2736 -0.0275  0.1669
   21MOL    H7611316   7.773   7.582   5.903 -0.5151 -0.1781  2.1845
   21MOL    H7711317   7.993   7.542   5.812 -2.2724 -1.3048 -0.5605
   21MOL    H7811318   0.074   7.576   5.870 -0.6655 -3.4912 -2.1453
   21MOL    H7911319   0.207   7.641   5.543  0.7370 -0.3191 -0.1955
   21MOL    H8011320   0.426   7.594   5.476  0.5093 -0.9030  0.1906
   21MOL    H8111321   0.701   7.464   5.693  1.2847  2.7216  1.3289
   21MOL    H8211322   0.537   7.484   5.885  0.3344  0.4162 -1.0327
   21MOL    H8311323   0.299   7.512   5.948 -1.0179  0.8552  0.1154
   21MOL    H8411324   8.092   7.963   5.858 -0.5095  1.0828  1.2126
   21MOL    H8511325   7.890   7.981   6.005 -0.2113 -1.3571 -0.0444
   21MOL    C8611326   0.708   7.612   5.560 -0.8784 -1.1309 -0.3598
   21MOL    C8711327   0.855   7.589   5.532  0.1007 -0.1125  0.3586
   21MOL    C8811328   0.915   7.462   5.546  0.2876 -0.0389 -0.1122
   21MOL    C8911329   1.056   7.444   5.532 -1.0816 -0.4657 -0.2555
   21MOL    C9011330   1.138   7.553   5.503 -0.7458  0.0652  0.3201
   21MOL    C9111331   1.287   7.539   5.479  0.5574 -0.0144 -0.3955
   21MOL    N9211332   1.359   7.646   5.521  0.6957 -0.5193 -0.2907
   21MOL    C9311333   1.495   7.667   5.529 -0.5997  0.6393  0.0600
   21MOL    C9411334   1.595   7.619   5.438 -0.2005 -0.0709  0.3941
   21MOL    C9511335   1.731   7.666   5.445  0.7750 -0.1990  0.0023
   21MOL    C9611336   1.764   7.774   5.530  0.6155 -0.5684 -0.1249
   21MOL    N9711337   1.883   7.845   5.524  0.4719  0.1848  0.2592
   21MOL    C9811338   1.669   7.801   5.629 -0.2396  0.4646  0.7941
   21MOL    C9911339   1.536   7.748   5.630 -0.5226 -0.0382 -0.4513
   21MOL   O10011340   1.339   7.436   5.437 -0.1622  0.9268  0.0933
   21MOL   C10111341   1.074   7.674   5.470  0.0737  0.3273  0.5915
   21MOL   C10211342   0.937   7.692   5.483  0.2183 -0.4361 -0.6259
   21MOL   O10311343   0.654   7.710   5.513 -0.2861  0.7947 -0.6131
   21MOL   H10411344   0.850   7.380   5.572  0.2374  0.0477  0.0360
   21MOL   H10511345   1.095   7.344   5.547  0.8878  0.6270  1.9988
   21MOL   H10611346   1.302   7.717   5.566  3.8860  2.7275 -1.1808
   21MOL   H10711347   1.574   7.546   5.361 -1.2219  1.4426 -0.7968
   21MOL   H10811348   1.806   7.627   5.377  1.4727  0.1438  0.5670
   21MOL   H10911349   1.908   7.892   5.609  0.0123 -0.6115  0.8412
   21MOL   H11011350   1.693   7.873   5.706 -0.8538  2.1670 -0.5697
   21MOL   H11111351   1.474   7.788   5.709 -0.0183 -1.6033  0.7778
   21MOL   H11211352   1.129   7.761   5.438  0.2468  0.4952  1.3402
   21MOL   H11311353   0.906   7.792   5.459 -2.0245 -0.1699  2.9248
   21MOL   C11411354   1.930   7.904   5.409 -0.2077  0.0188 -0.2811
   21MOL   C11511355   2.008   8.031   5.432 -0.0228  0.3370 -0.6744
   21MOL   C11611356   1.963   8.125   5.530 -0.1745  0.4791 -0.3323
   21MOL   C11711357   2.025   0.107   5.538 -0.0714 -0.4094 -0.5116
   21MOL   C11811358   2.114   0.149   5.434 -0.1088  0.2774 -0.0870
   21MOL   C11911359   2.181   0.284   5.431 -0.2576 -0.2174 -0.2532
   21MOL   N12011360   2.113   0.389   5.481  0.1079 -0.5205  0.3557
   21MOL   C12111361   2.151   0.526   5.507  0.0120  0.8177 -0.1318
   21MOL   C12211362   2.267   0.589   5.461  0.3897 -0.3057 -0.1267
   21MOL   C12311363   2.283   0.721   5.500  0.2245  0.6269  0.3986
   21MOL   C12411364   2.186   0.803   5.558 -0.0958 -0.1137 -0.3726
   21MOL   N12511365   2.223   0.935   5.589 -0.1949  0.0540  0.3280
   21MOL   C12611366   2.064   0.739   5.588  0.0459  0.5361  0.3111
   21MOL   C12711367   2.052   0.597   5.572  0.4644 -0.8254 -0.1459
   21MOL   O12811368   2.291   0.295   5.372  0.2185  0.0397 -0.1165
   21MOL   C12911369   2.151   0.055   5.337  0.5641 -0.3857 -0.2877
   21MOL   C13011370   2.106   8.069   5.343 -0.4183  0.5499 -0.0659
   21MOL   O13111371   1.917   7.862   5.291 -0.2595 -0.0132  0.1845
   21MOL   H13211372   1.889   8.101   5.604 -1.1046 -0.3095 -1.4838
   21MOL   H13311373   1.996   0.180   5.612 -0.6086  0.3215 -1.4289
   21MOL   H13411374   2.019   0.363   5.507 -0.3740  0.0794 -0.7243
   21MOL   H13511375   2.337   0.532   5.401  0.3041  0.3200 -0.8320
   21MOL   H13611376   2.368   0.778   5.466  0.4786  0.8734  1.4160
   21MOL   H13711377   2.294   0.980   5.533 -0.4485  0.4226  0.2989
   21MOL   H13811378   1.983   0.803   5.619  0.9658  0.6307  2.6649
   21MOL   H13911379   1.956   0.552   5.591 -0.9668  2.2390  0.2466
   21MOL   H14011380   2.214   0.081   5.254 -0.7623  0.8380 -0.9316
   21MOL   H14111381   2.145   7.999   5.271 -1.9922 -1.1669  0.7354
   21MOL   C14211382   2.178   1.010   5.690  0.6384  0.2698  0.8074
   21MOL   C14311383   2.240   1.144   5.701  0.8554  0.3287  0.3496
   21MOL   C14411384   2.365   1.175   5.643  0.2426  0.0382 -0.6079
   21MOL   C14511385   2.424   1.305   5.664  0.1821  0.4737 -0.2994
   21MOL   C14611386   2.346   1.401   5.731  0.3807 -0.6864 -0.0472
   21MOL   C14711387   2.387   1.546   5.757  0.4936 -0.2375 -0.2168
   21MOL   N14811388   2.398   1.611   5.646 -0.5131 -0.2149 -0.1270
   21MOL   C14911389   2.437   1.747   5.624  0.1109  0.2122 -0.1283
   21MOL   C15011390   2.504   1.826   5.722  0.7247  0.0129 -0.1136
   21MOL   C15111391   2.536   1.961   5.696 -0.0073  0.6228 -0.2688
   21MOL   C15211392   2.512   2.015   5.562  0.0359  0.0317 -0.5957
   21MOL   N15311393   2.537   2.155   5.525  0.1797  0.1578 -0.2790
   21MOL   C15411394   2.469   1.929   5.458  0.5225  0.2314  0.0357
   21MOL   C15511395   2.427   1.798   5.494 -0.8045 -0.1594  0.0367
   21MOL   O15611396   2.376   1.590   5.875 -0.5374  0.5364  0.2483
   21MOL   C15711397   2.218   1.369   5.784 -0.3569 -1.2314 -0.1441
   21MOL   C15811398   2.172   1.242   5.775  0.0594 -0.1164 -0.4456
   21MOL   O15911399   2.082   0.979   5.768 -0.0825  0.6935  0.1678
   21MOL   H16011400   2.420   1.099   5.590 -0.0251 -1.1571  0.8175
   21MOL   H16111401   2.521   1.328   5.624  0.1571 -1.7497 -1.6950
   21MOL   H16211402   2.367   1.551   5.570  0.9046 -0.5745 -0.4354
   21MOL   H16311403   2.510   1.794   5.824  0.8967 -0.9834 -0.4338
   21MOL   H16411404   2.566   2.023   5.780  0.7913 -1.9096  1.3807
   21MOL   H16511405   2.487   2.187   5.444 -0.2807 -1.2110 -0.5532
   21MOL   H16611406   2.455   1.961   5.356  2.6088 -0.3611 -0.4566
   21MOL   H16711407   2.381   1.741   5.414  1.0951 -1.5325 -0.0992
   21MOL   H16811408   2.166   1.447   5.838  1.5300 -0.7354  0.9765
   21MOL   H16911409   2.077   1.218   5.823 -0.3367  0.5631 -0.8793
   21MOL   C17011410   2.612   2.246   5.593  0.1062 -0.2097 -0.2971
   21MOL   C17111411   2.560   2.385   5.575  0.1437 -0.1722  0.0652
   21MOL   C17211412   2.425   2.425   5.601 -0.2591 -1.3614  0.4342
   21MOL   C17311413   2.382   2.557   5.585  0.0099 -0.1431  0.6179
   21MOL   C17411414   2.474   2.661   5.560 -0.1404  0.3410 -0.0862
   21MOL   C17511415   2.433   2.807   5.549 -0.9589 -1.0579 -0.4933
   21MOL   N17611416   2.340   2.842   5.638  0.9341 -0.3492  0.2611
   21MOL   C17711417   2.247   2.944   5.640  0.0177  0.6982  0.4229
   21MOL   C17811418   2.141   2.944   5.732  0.7831  0.1011  0.2319
   21MOL   C17911419   2.031   3.034   5.716  0.1054  0.3805  0.8983
   21MOL   C18011420   2.026   3.130   5.611  0.3500 -0.6702  0.3372
   21MOL   N18111421   1.906   3.202   5.590 -0.1343 -0.1732  0.4223
   21MOL   C18211422   2.138   3.145   5.526 -0.0943  0.0538 -0.2850
   21MOL   C18311423   2.250   3.055   5.549 -0.3210  1.1909 -0.3368
   21MOL   O18411424   2.481   2.877   5.460 -0.1015  0.5526 -0.4297
   21MOL   C18511425   2.609   2.617   5.533 -0.1944  0.1876 -0.1389
   21MOL   C18611426   2.647   2.484   5.537  0.0421  0.2606  0.4679
   21MOL   O18711427   2.715   2.226   5.657 -0.9501 -0.1638 -0.2410
   21MOL   H18811428   2.350   2.352   5.627 -1.4029 -0.5300 -0.4702
   21MOL   H18911429   2.275   2.569   5.598 -0.4820 -1.1501 -2.0044
   21MOL   H19011430   2.339   2.773   5.711  1.4950  1.0773  1.6595
   21MOL   H19111431   2.139   2.870   5.811  1.1649 -0.9353 -0.7213
   21MOL   H19211432   1.943   3.018   5.777  0.4278 -0.8742  1.0646
   21MOL   H19311433   1.823   3.157   5.626 -1.1782  2.8079  1.9744
   21MOL   H19411434   2.160   3.224   5.455  2.1095 -0.1784  0.1138
   21MOL   H19511435   2.339   3.066   5.489 -0.7127  2.3018 -0.7247
   21MOL   H19611436   2.675   2.694   5.496  0.3948 -0.2576 -0.0163
   21MOL   H19711437   2.748   2.455   5.514 -1.0408 -2.2528 -1.4475
   21MOL   C19811438   1.886   3.301   5.497 -0.4159 -0.0871  0.1404
   21MOL   C19911439   1.750   3.301   5.431  0.3097  0.3608 -0.2480
   21MOL   C20011440   1.653   3.206   5.463  0.1102  0.3066 -0.8969
   21MOL   C20111441   1.519   3.206   5.414  0.1362  0.8780 -0.0699
   21MOL   C20211442   1.489   3.294   5.307 -0.0022  0.5559  0.0364
   21MOL   C20311443   1.357   3.275   5.227 -0.1015 -0.4326  0.4711
   21MOL   N20411444   1.330   3.155   5.183  0.1534 -0.2943 -0.6073
   21MOL   C20511445   1.214   3.074   5.211  0.0561 -0.4269  0.4031
   21MOL   C20611446   1.238   2.938   5.213  0.0259  0.6497 -0.1796
   21MOL   C20711447   1.129   2.853   5.244 -0.4189  0.0546  0.2285
   21MOL   C20811448   1.003   2.899   5.281  0.2742 -0.3425  0.6577
   21MOL   N20911449   0.915   2.804   5.330 -0.6127 -0.3736  0.1715
   21MOL   C21011450   0.975   3.035   5.253  0.8722  0.4071 -0.7143
   21MOL   C21111451   1.083   3.123   5.217  0.7476 -0.3783 -0.3741
   21MOL   O21211452   1.290   3.374   5.206 -0.6192  0.5107  0.0057
   21MOL   C21311453   1.578   3.394   5.281  0.0302  0.0094  0.0131
   21MOL   C21411454   1.704   3.404   5.342 -0.1525  0.3313  0.4123
   21MOL   O21511455   1.972   3.389   5.469 -0.0481  0.0705  0.1327
   21MOL   H21611456   1.686   3.129   5.531  0.7844  1.3538 -0.0156
   21MOL   H21711457   1.445   3.132   5.443  0.6275 -0.3545 -1.8553
   21MOL   H21811458   1.414   3.100   5.192  1.6361  2.3315  2.8289
   21MOL   H21911459   1.338   2.899   5.202 -0.6327 -0.7947 -1.2803
   21MOL   H22011460   1.140   2.745   5.238  3.2487  0.5089 -3.8884
   21MOL   H22111461   0.949   2.708   5.323  2.3471  0.7503 -2.0933
   21MOL   H22211462   0.872   3.065   5.266  0.8850  0.0766  0.1768
   21MOL   H22311463   1.071   3.229   5.203  1.3613 -0.1320  0.8547
   21MOL   H22411464   1.545   3.465   5.207  0.7922 -0.3018 -0.6271
   21MOL   H22511465   1.772   3.486   5.325  1.0046 -0.6166  0.3685
   21MOL   C22611466   0.823   2.819   5.425  0.4552 -0.8276  0.4825
   21MOL   C22711467   0.754   2.697   5.472  0.6660  0.5507  0.7353
   21MOL   C22811468   0.737   2.670   5.608  0.1532 -0.4873  0.1349
   21MOL   C22911469   0.700   2.543   5.650  0.1773  0.2229  0.0882
   21MOL   C23011470   0.656   2.441   5.562 -0.7372  0.0260 -0.0186
   21MOL   C23111471   0.639   2.299   5.604  0.4369  0.3410  0.6479
   21MOL   N23211472   0.585   2.280   5.728 -0.1867 -0.8553  0.7954
   21MOL   C23311473   0.546   2.155   5.794 -0.0107  0.1856 -0.2457
   21MOL   C23411474   0.520   2.035   5.723 -0.6493  0.0761  0.1519
   21MOL   C23511475   0.491   1.914   5.783  0.4045  0.0685 -0.2249
   21MOL   C23611476   0.469   1.904   5.924 -0.0422  0.2112  0.3047
   21MOL   N23711477   0.417   1.788   5.992  0.0150 -0.2181  0.7145
   21MOL   C23811478   0.499   2.023   6.000  0.5522 -0.3945  0.0897
   21MOL   C23911479   0.536   2.141   5.935  0.5181 -0.4288 -0.2675
   21MOL   O24011480   0.656   2.217   5.519 -0.3748  0.2821  0.3579
   21MOL   C24111481   0.677   2.469   5.427 -0.1796  0.6327  0.6874
   21MOL   C24211482   0.719   2.594   5.376  0.5634 -0.6849 -0.7426
   21MOL   O24311483   0.801   2.926   5.482  0.2908 -0.0036  0.7747
   21MOL   H24411484   0.768   2.738   5.686  0.9552 -0.7908  0.0870
   21MOL   H24511485   0.699   2.523   5.757  0.7177  0.0232  0.0521
   21MOL   H24611486   0.577   2.366   5.780  0.5478 -1.7732  2.4608
   21MOL   H24711487   0.518   2.046   5.615  1.4320  1.3803  0.2145
   21MOL   H24811488   0.472   1.830   5.718  1.7086 -0.7690  0.4674
   21MOL   H24911489   0.403   1.812   6.089 -0.5415  2.6429 -0.0262
   21MOL   H25011490   0.494   2.029   6.108  0.1834 -1.8299  0.1536
   21MOL   H25111491   0.543   2.225   6.003  2.3405 -1.2565  0.6146
   21MOL   H25211492   0.660   2.392   5.353  1.5893 -0.7055  1.6307
   21MOL   H25311493   0.739   2.604   5.270  3.2850 -0.9224 -0.2923
   21MOL   C25411494   0.393   1.666   5.943  0.6847 -0.2239  0.8065
   21MOL   C25511495   0.308   1.574   6.026 -0.2171  0.1143 -0.0565
   21MOL   C25611496   0.314   1.438   5.991 -0.2511 -0.0351  0.0823
   21MOL   C25711497   0.251   1.350   6.082  0.5439 -0.2045 -0.1666
   21MOL   C25811498   0.156   1.395   6.170 -0.0729 -0.1754  0.5483
   21MOL   C25911499   0.078   1.290   6.248 -0.4269 -0.1702 -0.4383
   21MOL   N26011500   0.145   1.177   6.271  0.5630  0.4147 -0.0957
   21MOL   C26111501   0.102   1.068   6.355 -0.3414  0.3494  0.0616
   21MOL   C26211502   0.197   0.984   6.410 -0.3210  0.2159  0.0635
   21MOL   C26311503   0.165   0.876   6.494 -0.2651  0.1835  0.3254
   21MOL   C26411504   0.032   0.860   6.530 -0.0130 -0.0399 -0.5412
   21MOL   N26511505   0.010   0.752   6.616  0.4727 -0.1922 -0.1107
   21MOL   C26611506   8.077   0.934   6.469  0.2152  0.2482 -0.3981
   21MOL   C26711507   8.114   1.040   6.388 -0.0368 -0.4370  0.3179
   21MOL   O26811508   8.125   1.320   6.322 -0.1853 -0.1643  0.0272
   21MOL   C26911509   0.142   1.533   6.195  0.4294  0.2223 -0.6914
   21MOL   C27011510   0.220   1.623   6.124  0.4810  0.4637 -0.2442
   21MOL   O27111511   0.447   1.625   5.842  0.5840 -0.0281 -0.5170
   21MOL   H27211512   0.364   1.407   5.901  2.9312  0.4369  1.6324
   21MOL   H27311513   0.259   1.245   6.056 -1.9807 -0.4832  0.0284
   21MOL   H27411514   0.235   1.167   6.226 -0.0303 -4.6499 -0.5376
   21MOL   H27511515   0.300   0.995   6.380 -0.1527  1.9158  1.2443
   21MOL   H27611516   0.249   0.817   6.529  0.2211 -0.5681 -2.0352
   21MOL   H27711517   0.070   0.672   6.609 -0.4597 -0.7720 -1.8230
   21MOL   H27811518   7.973   0.931   6.496 -0.0645 -0.1051 -1.5047
   21MOL   H27911519   8.037   1.106   6.352  1.0304  0.4244 -0.4335
   21MOL   H28011520   0.081   1.575   6.273 -2.8807 -1.3318 -2.3544
   21MOL   H28111521   0.217   1.727   6.152  1.9422  0.3894  0.2331
   21MOL   C28211522   8.050   0.724   6.696  0.3287  0.3960  0.1853
   21MOL   C28311523   7.957   0.829   6.747  0.2181 -0.0767 -0.1627
   21MOL   C28411524   7.820   0.799   6.778 -0.0431  0.2497 -0.7257
   21MOL   C28511525   7.740   0.899   6.840  0.1605  0.7320 -0.0365
   21MOL   C28611526   7.783   1.032   6.852 -0.2274 -0.1497  0.2923
   21MOL   C28711527   7.693   1.140   6.907 -1.0589  0.6445  0.7048
   21MOL   N28811528   7.688   1.257   6.842  0.0465  0.4457 -0.5118
   21MOL   C28911529   7.719   1.282   6.702 -0.7600  0.3787  0.0937
   21MOL   C29011530   7.817   1.375   6.670  0.0712 -0.0307  0.3757
   21MOL   C29111531   7.846   1.407   6.534 -0.3874  0.1777 -0.1560
   21MOL   C29211532   7.790   1.325   6.432 -0.2239 -0.1521 -0.4712
   21MOL   N29311533   7.828   1.358   6.294  0.2650 -0.0667  0.5819
   21MOL   C29411534   7.691   1.223   6.468 -0.6232  0.7169  0.6805
   21MOL   C29511535   7.659   1.203   6.598 -0.5850 -0.3870 -0.7657
   21MOL   O29611536   7.625   1.117   7.007  0.0646  0.2907  0.0428
   21MOL   C29711537   7.919   1.062   6.820 -0.2631 -0.2288  0.0669
   21MOL   C29811538   8.008   0.961   6.772  0.1517 -0.3015  0.9249
   21MOL   O29911539   8.024   0.606   6.731 -0.0403  0.7160 -0.0381
   21MOL   H30011540   7.781   0.701   6.756  0.6475 -0.4742  1.1290
   21MOL   H30111541   7.634   0.880   6.846 -0.1643  1.4093 -2.9422
   21MOL   H30211542   7.643   1.330   6.895 -1.8215  0.2029 -1.7068
   21MOL   H30311543   7.873   1.433   6.742 -0.9595  0.4300  0.8172
   21MOL   H30411544   7.910   1.489   6.506  0.3783 -0.7958 -1.3161
   21MOL   H30511545   7.911   1.413   6.280  0.4883 -0.6141 -0.3463
   21MOL   H30611546   7.658   1.155   6.390  1.6802 -0.4849  0.7097
   21MOL   H30711547   7.584   1.130   6.625 -0.8432  0.7258  1.6774
   21MOL   H30811548   7.957   1.163   6.824  0.7204 -0.5434 -0.7879
   21MOL   H30911549   8.114   0.978   6.763  0.5056 -1.3366  2.7536
   21MOL   C31011550   7.764   1.333   6.179  0.2351  0.0875  1.1858
   21MOL   C31111551   7.833   1.385   6.054  0.8241 -0.1741 -0.0512
   21MOL   C31211552   7.939   1.481   6.067 -0.0108 -0.4771  0.1967
   21MOL   C31311553   7.996   1.533   5.948 -0.6160 -0.1426 -0.2545
   21MOL   C31411554   7.959   1.486   5.823 -0.5434  0.0449 -0.3696
   21MOL   C31511555   8.029   1.537   5.695  0.7378 -0.5006 -0.2762
   21MOL   N31611556   8.111   1.641   5.708 -0.4133 -0.3746  0.9134
   21MOL   C31711557   0.027   1.721   5.608 -0.1878  0.7041 -0.1512
   21MOL   C31811558   8.112   1.755   5.485 -0.3664  0.4472  0.2794
   21MOL   C31911559   0.024   1.850   5.398  0.1680  0.7443 -0.1102
   21MOL   C32011560   0.143   1.914   5.435  0.3798  0.5309  0.3970
   21MOL   N32111561   0.211   2.007   5.353  0.3886 -0.0108  0.2141
   21MOL   C32211562   0.193   1.882   5.562 -0.1987 -0.5176  0.3241
   21MOL   C32311563   0.144   1.782   5.646 -0.0039 -1.1819  0.7305
   21MOL   O32411564   8.014   1.471   5.590 -0.2919 -0.2299 -0.4183
   21MOL   C32511565   7.841   1.402   5.807  0.6524  0.2843 -0.0118
   21MOL   C32611566   7.788   1.348   5.925 -1.0123  0.0018  0.2500
   21MOL   O32711567   7.664   1.262   6.164  0.0297  0.2905 -0.4101
   21MOL   H32811568   7.974   1.511   6.164 -0.5584 -2.9084  1.1890
   21MOL   H32911569   8.080   1.600   5.964  1.3729 -2.5584 -0.1222
   21MOL   H33011570   0.004   1.655   5.800  0.3374  1.0411  0.3929
   21MOL   H33111571   8.017   1.709   5.461 -0.5412  0.1220  1.5828
   21MOL   H33211572   8.128   1.876   5.303  1.3372 -0.4562 -0.9735
   21MOL   H33311573   0.257   2.082   5.402 -0.9454  0.3028  1.0087
   21MOL   H33411574   0.273   1.946   5.596 -0.6464  0.1532  0.1216
   21MOL   H33511575   0.190   1.768   5.743  0.7484 -1.1157  0.3899
   21MOL   H33611576   7.795   1.380   5.712 -2.5475  1.0847  1.2799
   21MOL   H33711577   7.702   1.282   5.921 -0.9738  0.0089 -0.8066
   21MOL   C33811578   0.265   1.974   5.232 -0.1735  0.1379  0.0752
   21MOL   C33911579   0.374   2.060   5.185 -0.2575  0.3396  0.3917
   21MOL   C34011580   0.491   1.997   5.134  0.2330 -0.3127 -0.0726
   21MOL   C34111581   0.598   2.076   5.082 -0.0658  0.3944  0.0099
   21MOL   C34211582   0.590   2.219   5.088  0.3486  0.6414 -0.0342
   21MOL   C34311583   0.704   2.307   5.038 -0.6321  0.2345 -0.0487
   21MOL   N34411584   0.648   2.411   4.973  0.2829  0.4479  0.2021
   21MOL   C34511585   0.718   2.531   4.943 -0.1672  0.1624 -0.1159
   21MOL   C34611586   0.832   2.580   5.012  0.1825 -0.6735  0.0405
   21MOL   C34711587   0.854   2.724   5.002  0.1954 -0.3910 -0.1429
   21MOL   C34811588   0.774   2.807   4.922 -0.2680  0.3292 -0.1670
   21MOL   N34911589   0.810   2.944   4.915  0.2278  0.7667 -0.1066
   21MOL   C35011590   0.671   2.747   4.850 -0.1764 -0.1107 -0.1818
   21MOL   C35111591   0.642   2.613   4.859  0.7535  0.1000  0.4131
   21MOL   O35211592   0.824   2.277   5.043  0.6922 -0.0045  0.1224
   21MOL   C35311593   0.484   2.276   5.158  0.3634 -0.5899 -0.5169
   21MOL   C35411594   0.369   2.201   5.185  0.4837  0.2203  0.6718
   21MOL   O35511595   0.226   1.880   5.161  0.0738  0.4609  0.3832
   21MOL   H35611596   0.508   1.890   5.126  2.8863  0.1440 -1.0485
   21MOL   H35711597   0.678   2.026   5.029 -0.4874 -1.7528  1.3330
   21MOL   H35811598   0.549   2.411   4.953  0.3877 -2.6944 -0.6305
   21MOL   H35911599   0.883   2.512   5.078  0.1011  2.5395  3.5740
   21MOL   H36011600   0.926   2.761   5.073  0.8046  0.7642 -1.3555
   21MOL   H36111601   0.909   2.963   4.918  1.1356 -3.6925  1.6256
   21MOL   H36211602   0.592   2.804   4.802  0.2081  0.3227 -0.2968
   21MOL   H36311603   0.562   2.574   4.798  1.2055 -1.5087  0.8359
   21MOL   H36411604   0.479   2.381   5.182 -2.5368 -0.5221 -1.2749
   21MOL   H36511605   0.286   2.250   5.233  1.7352  0.3912  2.7056
   21MOL   C36611606   0.722   3.044   4.937 -0.0884 -0.3445  0.1856
   21MOL   C36711607   0.788   3.179   4.959 -0.0701  0.1939  0.0643
   21MOL   C36811608   0.704   3.287   4.989  0.6862  0.0606 -0.6725
   21MOL   C36911609   0.752   3.419   5.000  0.3038  0.2670  0.5649
   21MOL   C37011610   0.890   3.437   4.996  0.1996 -0.4545  0.0362
   21MOL   C37111611   0.952   3.578   5.011  0.0969  0.1436  0.5738
   21MOL   N37211612   1.084   3.582   5.039  0.3353  0.2360 -0.6948
   21MOL   C37311613   1.181   3.692   5.033  0.2347  0.3347  0.3895
   21MOL   C37411614   1.151   3.828   5.016  0.3532 -0.0227 -0.3334
   21MOL   C37511615   1.255   3.926   5.011  0.2289 -0.1859 -0.2169
   21MOL   C37611616   1.386   3.881   5.006 -0.0238 -0.3554  0.3748
   21MOL   N37711617   1.499   3.968   4.984 -0.2855  0.2938 -0.4222
   21MOL   C37811618   1.422   3.747   5.011 -0.6782  0.1634  0.4385
   21MOL   C37911619   1.317   3.653   5.023  0.0065 -0.0363  0.8080
   21MOL   O38011620   0.877   3.675   5.009 -0.3216 -0.2372 -0.7747
   21MOL   C38111621   0.981   3.331   4.968  0.6044  0.2324 -0.2500
   21MOL   C38211622   0.925   3.199   4.952  0.0460  0.3066 -0.1063
   21MOL   O38311623   0.600   3.028   4.941 -0.2182 -0.5774 -0.0090
   21MOL   H38411624   0.596   3.284   4.989  0.4979  4.1776 -0.2395
   21MOL   H38511625   0.690   3.506   5.009 -1.5999 -1.2863  2.8872
   21MOL   H38611626   1.128   3.491   5.044 -0.4317 -0.1052 -0.1702
   21MOL   H38711627   1.051   3.870   5.012  0.2230 -0.5011 -2.2406
   21MOL   H38811628   1.225   4.030   5.013  2.6142  0.5380 -0.2872
   21MOL   H38911629   1.586   3.916   4.981 -0.4068  0.0118  0.5905
   21MOL   H39011630   1.524   3.713   5.008  0.3037  3.1136 -2.7228
   21MOL   H39111631   1.343   3.549   5.028  0.5757 -0.2099 -3.5894
   21MOL   H39211632   1.088   3.336   4.970  0.5423  1.6378  0.2577
   21MOL   H39311633   0.996   3.118   4.940 -0.9197 -0.6704  0.6224
   21MOL   C39411634   1.504   4.101   4.980 -0.4944 -1.5657 -0.7147
   21MOL   C39511635   1.642   4.161   4.941  0.6534  0.0174 -0.1172
   21MOL   C39611636   1.769   4.116   4.987 -0.5923  0.2614  0.9227
   21MOL   C39711637   1.890   4.180   4.944 -0.5418  0.0846 -0.3471
   21MOL   C39811638   1.880   4.298   4.860 -0.5199  0.3455  0.0474
   21MOL   C39911639   2.010   4.352   4.799 -0.0420  0.1150 -0.3636
   21MOL   N40011640   1.997   4.421   4.686 -0.0529 -0.1752  0.7165
   21MOL   C40111641   2.104   4.457   4.593  0.6228  0.2118  0.2226
   21MOL   C40211642   2.078   4.454   4.461  0.2324 -0.1472  0.5507
   21MOL   C40311643   2.176   4.486   4.367  0.3715  0.3519 -0.0763
   21MOL   C40411644   2.309   4.502   4.406 -0.2642 -0.0523  0.6328
   21MOL   N40511645   2.423   4.522   4.317 -0.5023 -0.2057 -0.2491
   21MOL   C40611646   2.332   4.518   4.544 -0.2748  0.8025 -0.4507
   21MOL   C40711647   2.231   4.491   4.641 -0.3423 -0.0368  0.0645
   21MOL   O40811648   2.121   4.304   4.838  0.2268 -0.5289 -0.1339
   21MOL   C40911649   1.752   4.341   4.817 -0.6960 -0.1169  0.0518
   21MOL   C41011650   1.635   4.274   4.862 -0.6485  0.1169  0.3550
   21MOL   O41111651   1.404   4.179   4.984  0.2771 -0.2249  0.2764
   21MOL   H41211652   1.779   4.049   5.071  0.7981  0.4313  0.9149
   21MOL   H41311653   1.982   4.142   4.986  0.2727  0.5588 -1.6781
   21MOL   H41411654   1.905   4.421   4.645  0.6809  0.4644 -0.9779
   21MOL   H41511655   1.976   4.438   4.428  0.6214 -0.4034 -0.5432
   21MOL   H41611656   2.155   4.477   4.262 -0.6699  2.0402 -0.0458
   21MOL   H41711657   2.515   4.501   4.355 -0.8852  1.4241  1.6840
   21MOL   H41811658   2.432   4.535   4.581  0.1600 -1.7703 -0.3265
   21MOL   H41911659   2.263   4.494   4.744  0.2656 -0.6273 -0.1027
   21MOL   H42011660   1.749   4.432   4.758  1.8602 -0.3708 -0.5387
   21MOL   H42111661   1.535   4.306   4.835 -0.5111 -0.8294 -1.3715
   21MOL   C42211662   2.418   4.591   4.197 -0.4142 -0.5200 -0.2912
   21MOL   C42311663   2.301   4.684   4.170  0.4533 -0.4526 -0.0325
   21MOL   C42411664   2.259   4.782   4.265 -0.4109  0.2016 -0.7345
   21MOL   C42511665   2.131   4.839   4.261  0.2758 -0.1857 -0.0551
   21MOL   C42611666   2.047   4.808   4.157 -0.4755 -0.7051 -0.1556
   21MOL   C42711667   1.911   4.861   4.154 -0.8413  0.0546 -0.1051
   21MOL   N42811668   1.873   4.917   4.040 -0.8435 -0.1709  0.3334
   21MOL   C42911669   1.748   4.964   4.001 -0.2903 -0.2019  0.6303
   21MOL   C43011670   1.715   4.981   3.861  0.1223  0.4251  0.1729
   21MOL   C43111671   1.588   5.034   3.815  0.6181 -0.9026  0.4521
   21MOL   C43211672   1.494   5.072   3.910  0.3115 -0.2254 -0.5878
   21MOL   N43311673   1.374   5.129   3.872  0.1867 -0.2286  0.3401
   21MOL   C43411674   1.530   5.061   4.045 -0.3708 -0.2582  0.0619
   21MOL   C43511675   1.651   5.009   4.096  0.2095 -0.0610  0.5296
   21MOL   O43611676   1.843   4.852   4.252 -0.5569  0.1139 -0.4298
   21MOL   C43711677   2.094   4.727   4.057  0.3232 -0.4034  0.2577
   21MOL   C43811678   2.221   4.661   4.059  0.5319 -0.0021 -0.2938
   21MOL   O43911679   2.502   4.564   4.110 -0.5024  0.1610  0.4421
   21MOL   H44011680   2.316   4.804   4.354 -0.0765  0.5746 -1.0376
   21MOL   H44111681   2.099   4.900   4.344  1.3088  0.5256 -0.1748
   21MOL   H44211682   1.948   4.924   3.972  0.0186  1.3411  1.4031
   21MOL   H44311683   1.797   4.968   3.792  1.6282 -0.4821  2.0928
   21MOL   H44411684   1.572   5.050   3.710  0.0094 -0.7470  0.5644
   21MOL   H44511685   1.381   5.210   3.813  1.8398 -0.9009 -0.4060
   21MOL   H44611686   1.459   5.100   4.117 -1.7481 -2.5171 -0.0176
   21MOL   H44711687   1.684   5.016   4.199  0.8587  0.4614  0.2872
   21MOL   H44811688   2.032   4.702   3.972 -0.6914 -0.2544  0.9507
   21MOL   H44911689   2.244   4.588   3.983  1.6135 -1.8004  1.7437
   21MOL   C45011690   1.261   5.064   3.848  0.4166 -0.2115  0.4300
   21MOL   C45111691   1.243   4.925   3.902  0.1490 -0.6267  0.2579
   21MOL   C45211692   1.246   4.813   3.820 -0.2144  0.0574  0.2939
   21MOL   C45311693   1.222   4.680   3.872 -0.2938  0.2698  0.0108
   21MOL   C45411694   1.205   4.660   4.009  0.4497  0.0163  0.2422
   21MOL   C45511695   1.170   4.526   4.069 -0.1499  0.9399 -0.0350
   21MOL   N45611696   1.097   4.527   4.175 -0.3607  0.0063  0.1097
   21MOL   C45711697   1.043   4.424   4.248  0.3913 -0.6350 -0.3528
   21MOL   C45811698   1.102   4.300   4.272  0.1515 -0.0773  0.5615
   21MOL   C45911699   1.061   4.213   4.374  0.2844 -0.4273 -0.3461
   21MOL   C46011700   0.938   4.238   4.442 -0.5259  1.1109  0.1235
   21MOL   N46111701   0.883   4.154   4.537  0.6930 -0.1047  0.1644
   21MOL   C46211702   0.875   4.357   4.410  0.4244  0.5253 -0.1443
   21MOL   C46311703   0.926   4.444   4.317  0.0849  0.4420  0.7239
   21MOL   O46411704   1.221   4.420   4.018  0.2019  0.1382  0.0855
   21MOL   C46511705   1.228   4.769   4.095  0.2705  0.0603  0.3256
   21MOL   C46611706   1.247   4.903   4.042  0.0524  0.7099  0.7128
   21MOL   O46711707   1.169   5.112   3.785 -0.5402  0.1667  0.2649
   21MOL   H46811708   1.258   4.828   3.714  0.1582  0.4481  0.3887
   21MOL   H46911709   1.224   4.591   3.812  1.9416 -0.9748  1.8370
   21MOL   H47011710   1.065   4.615   4.213  1.2002  0.0896  1.2724
   21MOL   H47111711   1.193   4.264   4.226  0.4798  0.9666  0.3739
   21MOL   H47211712   1.127   4.128   4.388 -1.7240 -1.8352  0.9112
   21MOL   H47311713   0.900   4.183   4.632 -0.7490 -1.9105  0.9886
   21MOL   H47411714   0.779   4.371   4.458 -0.7476 -1.8253 -1.7264
   21MOL   H47511715   0.879   4.541   4.310  1.2995  1.0790  1.3437
   21MOL   H47611716   1.244   4.753   4.201 -0.0626  0.8425  0.4981
   21MOL   H47711717   1.259   4.984   4.112  0.9885  1.1028  0.1086
   21MOL   C47811718   0.833   4.029   4.516  0.6972  0.1490  0.4300
   21MOL   C47911719   0.785   4.004   4.383  0.7281  0.3283 -0.2185
   21MOL   C48011720   0.812   3.875   4.329  0.0607  0.3657  0.1592
   21MOL   C48111721   0.743   3.825   4.211  0.2888 -0.4281  0.2734
   21MOL   C48211722   0.656   3.911   4.139  0.3123  0.2160 -0.6133
   21MOL   C48311723   0.586   3.866   4.013 -0.0545 -0.8830 -0.1767
   21MOL   N48411724   0.665   3.822   3.915 -0.2294 -0.1252  0.1383
   21MOL   C48511725   0.640   3.806   3.780 -0.1056  0.4065  0.2315
   21MOL   C48611726   0.731   3.730   3.698  0.7247 -0.2349 -1.0527
   21MOL   C48711727   0.728   3.744   3.559  0.1525  0.0163 -0.8434
   21MOL   C48811728   0.637   3.828   3.494  0.3183 -0.0065  0.0295
   21MOL   N48911729   0.642   3.846   3.355  0.3754 -0.0858 -0.5588
   21MOL   C49011730   0.539   3.892   3.576  0.5907 -0.3080 -0.1431
   21MOL   C49111731   0.536   3.881   3.719 -0.1643  0.3704  0.5106
   21MOL   O49211732   0.469   3.897   3.999 -0.2441 -0.6569 -0.5555
   21MOL   C49311733   0.635   4.039   4.192  0.4489 -0.1146 -0.1240
   21MOL   C49411734   0.689   4.084   4.311 -0.4917  0.4717 -0.8954
   21MOL   O49511735   0.824   3.943   4.605 -0.0020 -0.0834  0.4555
   21MOL   H49611736   0.884   3.813   4.380  0.2715  0.0741 -0.4921
   21MOL   H49711737   0.759   3.721   4.187 -4.7487 -0.9817 -1.3112
   21MOL   H49811738   0.759   3.791   3.935 -0.1371 -0.2923 -0.5243
   21MOL   H49911739   0.806   3.672   3.751 -1.0199 -1.0847  0.5442
   21MOL   H50011740   0.793   3.682   3.499 -1.4748 -3.4910  0.8603
   21MOL   H50111741   0.716   3.796   3.308  0.4371 -0.0591 -0.4890
   21MOL   H50211742   0.452   3.947   3.544  0.7306  0.7628  1.2978
   21MOL   H50311743   0.451   3.928   3.766 -0.4759  1.1330 -0.7997
   21MOL   H50411744   0.565   4.104   4.143  0.8865 -0.2992 -1.0026
   21MOL   H50511745   0.660   4.180   4.352 -2.1748  0.4102 -1.9002
   21MOL   C50611746   0.583   3.941   3.279  0.2655  0.7692 -0.3344
   21MOL   C50711747   0.623   3.946   3.133  0.8387 -0.1373 -0.1127
   21MOL   C50811748   0.747   3.895   3.087  0.5851 -0.2640 -0.0123
   21MOL   C50911749   0.799   3.931   2.960  0.3401  0.7450 -0.3857
   21MOL   C51011750   0.723   4.006   2.866  0.1625  0.3053  0.3043
   21MOL   C51111751   0.772   4.054   2.738 -0.3481  0.6657 -0.3383
   21MOL   N51211752   0.736   4.173   2.689 -0.2098 -0.1256 -0.8129
   21MOL   C51311753   0.792   4.229   2.575  0.2988  0.6170 -0.0355
   21MOL   C51411754   0.791   4.169   2.450  0.3046 -0.0597 -0.5762
   21MOL   C51511755   0.847   4.242   2.341 -0.1594  0.6136  0.0262
   21MOL   C51611756   0.899   4.370   2.356 -0.3980 -0.2052 -0.5135
   21MOL   N51711757   0.960   4.430   2.248 -1.4409  0.1341 -0.6167
   21MOL   C51811758   0.893   4.428   2.486 -1.2601  0.4397 -0.4299
   21MOL   C51911759   0.846   4.356   2.596  0.2675 -0.9843 -0.4080
   21MOL   O52011760   0.848   3.979   2.673  0.1093 -0.6345 -0.2025
   21MOL   C52111761   0.586   4.039   2.907 -0.6034 -0.6675  0.2375
   21MOL   C52211762   0.544   4.014   3.043 -0.5621 -0.5814 -0.3891
   21MOL   O52311763   0.497   4.020   3.325  0.1641 -0.4052 -0.2329
   21MOL   H52411764   0.816   3.842   3.151  0.1187 -1.7162 -0.6881
   21MOL   H52511765   0.900   3.904   2.934  1.2215  1.4033  2.1673
   21MOL   H52611766   0.688   4.228   2.759  0.2139 -0.3309 -0.3593
   21MOL   H52711767   0.733   4.079   2.442 -1.1832  0.8579 -0.2961
   21MOL   H52811768   0.840   4.202   2.241  0.9688  3.4403 -1.2299
   21MOL   H52911769   0.973   4.363   2.173  0.2463  1.2756 -1.3769
   21MOL   H53011770   0.941   4.521   2.511 -2.1977  0.7302  0.3095
   21MOL   H53111771   0.840   4.402   2.693 -0.4961  0.3840 -1.0813
   21MOL   H53211772   0.523   4.094   2.839 -0.2667 -1.2936 -0.5915
   21MOL   H53311773   0.442   4.040   3.069 -0.3051 -0.7567  0.8300
   21MOL   C53411774   0.993   4.553   2.224  0.5116  0.1697  0.4009
   21MOL   C53511775   1.075   4.589   2.098 -0.1863  0.5859 -0.2450
   21MOL   C53611776   1.056   4.715   2.033 -0.9306  0.0788 -0.5075
   21MOL   C53711777   1.138   4.750   1.925 -0.6403  0.3760  0.4326
   21MOL   C53811778   1.227   4.661   1.857  0.2797 -0.0471  0.1708
   21MOL   C53911779   1.278   4.679   1.719  0.0864 -0.4273 -0.5874
   21MOL   N54011780   1.283   4.814   1.679  0.0360  0.1056  0.0100
   21MOL   C54111781   1.333   4.854   1.548  0.0265 -0.3186  0.4791
   21MOL   C54211782   1.440   4.788   1.485 -0.0821 -0.0185  0.4932
   21MOL   C54311783   1.480   4.817   1.353  0.6394  0.2206  0.2781
   21MOL   C54411784   1.411   4.919   1.284 -0.4153 -0.2950 -0.8614
   21MOL   N54511785   1.459   4.956   1.155 -0.3129 -0.2357 -0.1382
   21MOL   C54611786   1.298   4.983   1.345  0.1784  0.4584  0.2520
   21MOL   C54711787   1.254   4.948   1.473  0.0353  0.0367  0.4342
   21MOL   O54811788   1.314   4.581   1.660  0.1644 -0.0264  0.2722
   21MOL   C54911789   1.234   4.531   1.921  0.0481 -0.0350  0.4482
   21MOL   C55011790   1.175   4.502   2.048  0.4070  0.2514  0.0577
   21MOL   O55111791   0.969   4.641   2.308  0.2981 -0.1262  0.9438
   21MOL   H55211792   0.995   4.784   2.089  2.7478  0.5283  3.2139
   21MOL   H55311793   1.127   4.853   1.896 -1.8196 -0.2528 -1.4591
   21MOL   H55411794   1.232   4.879   1.736  0.8927  1.1434 -0.3868
   21MOL   H55511795   1.493   4.711   1.538 -0.1519  1.2197  2.3924
   21MOL   H55611796   1.565   4.760   1.320  1.5077  0.7139  1.5899
   21MOL   H55711797   1.514   4.888   1.104 -1.4616  0.4832 -2.3727
   21MOL   H55811798   1.245   5.062   1.294  0.9180 -0.0699 -1.3920
   21MOL   H55911799   1.158   4.985   1.506  0.5990  1.5030  0.4775
   21MOL   H56011800   1.300   4.461   1.873  0.3740  0.3518  0.3288
   21MOL   H56111801   1.205   4.409   2.094  4.0896  2.0190  1.3673
   21MOL   H56211802   1.393   4.991   1.088  0.0091  0.0253 -0.3186
   22MOL     C111803   5.659   1.398   0.893 -0.6108 -0.1526 -0.2279
   22MOL     C211804   5.640   1.267   0.824 -0.0074  0.6270  0.3821
   22MOL     C311805   5.514   1.225   0.793  0.2364  0.9311  0.0521
   22MOL     C411806   5.487   1.106   0.722  0.3808 -0.4257  0.2682
   22MOL     C511807   5.601   1.028   0.685 -0.2408  0.2414 -0.3252
   22MOL     C611808   5.570   0.908   0.609 -0.2406  0.4990 -0.0684
   22MOL     N711809   5.527   0.911   0.483 -0.0751 -0.5524 -0.7112
   22MOL     C811810   5.507   0.800   0.395  0.1379  0.5077 -0.1911
   22MOL     C911811   5.458   0.676   0.444  0.3342  0.4102  0.7791
   22MOL    C1011812   5.427   0.576   0.350 -0.2082  0.4890  0.3734
   22MOL    C1111813   5.466   0.581   0.221 -0.0668 -0.1374  0.8909
   22MOL    N1211814   5.438   0.480   0.135 -0.4890  0.7556  0.3020
   22MOL    C1311815   5.526   0.696   0.170 -0.2617  0.6849 -0.4605
   22MOL    C1411816   5.543   0.806   0.256 -0.3711 -0.0432 -0.2908
   22MOL    O1511817   5.589   0.800   0.665  0.0031  0.1327 -0.3185
   22MOL    C1611818   5.727   1.066   0.727  0.1013 -0.4744  0.0812
   22MOL    C1711819   5.750   1.185   0.786  0.3875 -0.3863  0.3033
   22MOL    O1811820   5.766   1.450   0.888 -0.2891 -0.7454  0.6126
   22MOL    H1911821   5.428   1.287   0.816  0.6201  1.6830 -0.4949
   22MOL    H2011822   5.385   1.078   0.698  0.1113  1.0216 -0.3204
   22MOL    H2111823   5.532   0.997   0.430 -2.7459 -0.8218 -1.4477
   22MOL    H2211824   5.411   0.675   0.541 -1.7652 -0.1444 -0.1980
   22MOL    H2311825   5.368   0.487   0.370  1.7876 -0.7828  0.7509
   22MOL    H2411826   5.350   0.433   0.155 -0.6027 -0.6216 -3.0243
   22MOL    H2511827   5.538   0.694   0.063 -0.6044 -0.5250 -0.4821
   22MOL    H2611828   5.579   0.900   0.215 -1.0070  0.2466 -0.1848
   22MOL    H2711829   5.809   0.999   0.706  1.1571  0.5637  0.8652
   22MOL    H2811830   5.853   1.211   0.806  0.8352  0.9054 -3.3377
   22MOL    H2911831   5.578   1.441   0.952  0.1878  1.9943 -0.6714
   22MOL    C3011832   5.510   0.420   0.043  0.1759  0.1730  0.8879
   22MOL    C3111833   5.465   0.283   8.144 -0.0223 -0.1009  0.1540
   22MOL    C3211834   5.549   0.198   8.066  0.0734 -0.1545 -0.0734
   22MOL    C3311835   5.494   0.081   8.006  0.1334 -0.0533 -0.4039
   22MOL    C3411836   5.364   0.041   8.036  0.6234  0.1340 -0.4127
   22MOL    C3511837   5.300   8.069   7.964 -0.1661 -0.5227 -0.3020
   22MOL    N3611838   5.288   8.084   7.829 -0.1001 -0.0916  0.0560
   22MOL    C3711839   5.229   8.001   7.737 -0.4044  1.0710  0.7550
   22MOL    C3811840   5.222   8.054   7.607  0.0260  0.1543  0.1636
   22MOL    C3911841   5.144   7.995   7.509  0.8454 -0.3527 -0.0110
   22MOL    C4011842   5.079   7.875   7.528 -0.4070 -0.2074 -0.0494
   22MOL    N4111843   5.015   7.818   7.415 -0.3342  0.0365  0.3226
   22MOL    C4211844   5.078   7.822   7.662 -0.2704 -0.3045  0.7553
   22MOL    C4311845   5.152   7.882   7.769 -0.7017  0.7037  0.4849
   22MOL    O4411846   5.268   7.970   8.031 -0.2121 -0.1496  0.4270
   22MOL    C4511847   5.294   0.113   8.135 -0.2821  0.3481  1.1917
   22MOL    C4611848   5.344   0.230   0.041  0.0921  0.6842 -0.2511
   22MOL    O4711849   5.601   0.480   8.134 -0.0702  0.5469  0.1926
   22MOL    H4811850   5.654   0.219   8.051  0.4257 -2.1144 -0.5107
   22MOL    H4911851   5.558   0.023   7.942 -0.3089 -3.0856  1.8043
   22MOL    H5011852   5.329   0.020   7.787  0.2186 -0.3700 -0.1803
   22MOL    H5111853   5.275   0.001   7.589 -1.0710  0.9617  1.0619
   22MOL    H5211854   5.143   8.047   7.414 -2.4582  1.6419  1.0419
   22MOL    H5311855   4.988   7.885   7.344 -1.9860 -2.0357 -1.0958
   22MOL    H5411856   5.023   7.731   7.680  0.6140 -0.9288  0.3238
   22MOL    H5511857   5.140   7.842   7.869  3.2144 -1.7250  0.0799
   22MOL    H5611858   5.193   0.081   0.007 -0.6007  0.5938 -0.0842
   22MOL    H5711859   5.278   0.280   0.110 -0.4593 -3.3093  2.1959
   22MOL    C5811860   4.979   7.691   7.401 -0.0710 -0.1834  0.3527
   22MOL    C5911861   4.895   7.658   7.279  0.1735  0.0024 -0.2472
   22MOL    C6011862   4.893   7.746   7.168 -0.2662 -0.3000  0.4271
   22MOL    C6111863   4.820   7.704   7.056  0.3605  0.7542  0.6222
   22MOL    C6211864   4.747   7.575   7.058 -0.2622  0.4006  0.2379
   22MOL    C6311865   4.660   7.530   6.947  0.1892  0.2611 -0.1860
   22MOL    N6411866   4.592   7.633   6.883  0.0262 -0.0341  0.2623
   22MOL    C6511867   4.503   7.626   6.776 -0.1418  0.0334  0.2853
   22MOL    C6611868   4.479   7.749   6.721 -0.2061 -0.5041  0.1007
   22MOL    C6711869   4.385   7.758   6.618  0.3326 -0.2196  0.4782
   22MOL    C6811870   4.324   7.641   6.563 -0.4540 -0.5176  0.6270
   22MOL    N6911871   4.231   7.655   6.454 -0.6626  1.2464 -0.4748
   22MOL    C7011872   4.350   7.519   6.624  0.9184 -0.8155  0.2414
   22MOL    C7111873   4.436   7.506   6.735  0.2212  0.3659  0.7261
   22MOL    O7211874   4.662   7.417   6.913  0.3051  0.2804  0.3257
   22MOL    C7311875   4.761   7.492   7.168  0.0808 -0.0874  0.0653
   22MOL    C7411876   4.839   7.530   7.273  0.3636  0.5588  0.6506
   22MOL    O7511877   5.001   7.604   7.485  0.1715 -0.1901 -0.7800
   22MOL    H7611878   4.956   7.834   7.167 -2.0556  1.0806  2.1300
   22MOL    H7711879   4.814   7.765   6.967  1.8675  1.8257  1.2298
   22MOL    H7811880   4.592   7.724   6.926  0.9999  1.0986 -2.0808
   22MOL    H7911881   4.542   7.832   6.748  1.5405 -2.0479  0.9599
   22MOL    H8011882   4.362   7.851   6.568 -1.0051  0.2847  1.9830
   22MOL    H8111883   4.224   7.585   6.381 -0.4631  1.4303 -0.6697
   22MOL    H8211884   4.303   7.429   6.586  0.3116  0.0772 -1.1624
   22MOL    H8311885   4.454   7.407   6.775  1.1157  0.6941  1.1694
   22MOL    H8411886   4.708   7.398   7.162 -0.0202  0.0081 -0.5133
   22MOL    H8511887   4.849   7.463   7.357  0.8813 -2.6487 -1.8906
   22MOL    C8611888   4.121   7.728   6.462  0.3255 -0.3880 -0.4513
   22MOL    C8711889   4.020   7.700   6.351 -0.3620  0.0764 -0.6765
   22MOL    C8811890   4.002   7.565   6.314  0.6744  0.4564  0.3413
   22MOL    C8911891   3.921   7.537   6.203  0.6096 -0.3213 -0.2049
   22MOL    C9011892   3.857   7.637   6.125 -0.7481  0.1173 -0.1579
   22MOL    C9111893   3.776   7.605   6.004 -0.0541  0.8301  0.1231
   22MOL    N9211894   3.679   7.510   6.014  0.3004 -0.0897  0.1507
   22MOL    C9311895   3.602   7.453   5.911  0.2874 -0.0389 -0.3163
   22MOL    C9411896   3.608   7.316   5.891 -0.6670  0.3201  0.2126
   22MOL    C9511897   3.528   7.254   5.791  0.1729  0.0684 -0.1204
   22MOL    C9611898   3.452   7.329   5.707  0.4362 -0.3823  0.3736
   22MOL    N9711899   3.379   7.251   5.613  0.0004 -0.1129  0.6252
   22MOL    C9811900   3.431   7.469   5.735  0.1141 -0.4063 -0.0950
   22MOL    C9911901   3.514   7.533   5.832 -0.0703 -1.0389 -0.4859
   22MOL   O10011902   3.797   7.671   5.905 -0.3068  0.1167  0.2860
   22MOL   C10111903   3.874   7.775   6.158  0.7211 -0.1540 -0.5654
   22MOL   C10211904   3.963   7.807   6.271  0.1991  0.4694  0.1101
   22MOL   O10311905   4.095   7.815   6.546 -0.1667 -0.0376  0.3092
   22MOL   H10411906   4.047   7.485   6.370  1.1871  0.8269  0.4574
   22MOL   H10511907   3.905   7.437   6.165  0.3260  0.0249 -1.0144
   22MOL   H10611908   3.676   7.480   6.110  0.8154  1.2113  0.5874
   22MOL   H10711909   3.680   7.261   5.950 -2.1801 -0.1642  1.6682
   22MOL   H10811910   3.537   7.149   5.768  1.9161 -0.0221  0.8969
   22MOL   H10911911   3.396   7.151   5.614  1.8993  0.1922  0.1623
   22MOL   H11011912   3.362   7.530   5.679  0.1470 -0.5325 -0.2732
   22MOL   H11111913   3.508   7.638   5.857  3.5212 -0.6195 -1.0982
   22MOL   H11211914   3.837   7.852   6.091 -0.8693 -0.5272 -0.1354
   22MOL   H11311915   3.982   7.911   6.290 -1.7825  1.2048 -1.7109
   22MOL   C11411916   3.306   7.293   5.507 -0.4386 -0.5037  0.1588
   22MOL   C11511917   3.240   7.182   5.431 -0.0808 -0.1421  0.5020
   22MOL   C11611918   3.172   7.079   5.504 -1.2824  0.0118  0.4787
   22MOL   C11711919   3.106   6.979   5.431  0.6255  0.3321 -0.7259
   22MOL   C11811920   3.103   6.971   5.290 -0.7689 -0.2943 -0.0393
   22MOL   C11911921   3.003   6.883   5.222  0.0909 -0.8181 -0.3981
   22MOL   N12011922   2.998   6.749   5.257  0.3784 -0.0062 -0.0475
   22MOL   C12111923   3.076   6.680   5.351 -0.0589  0.3264  1.1508
   22MOL   C12211924   3.015   6.637   5.472  0.3596 -0.3160 -0.6397
   22MOL   C12311925   3.088   6.584   5.580 -0.1267 -0.1959 -0.3236
   22MOL   C12411926   3.225   6.560   5.558 -0.5817  0.5322  0.1322
   22MOL   N12511927   3.302   6.509   5.666  0.3968  0.4075 -0.1817
   22MOL   C12611928   3.284   6.576   5.428  0.0308 -0.2176 -0.0216
   22MOL   C12711929   3.207   6.641   5.325 -0.8770  0.4886 -0.1690
   22MOL   O12811930   2.941   6.930   5.125  0.1585  0.2785  0.4326
   22MOL   C12911931   3.169   7.075   5.219 -0.1832  0.5022  0.4486
   22MOL   C13011932   3.232   7.183   5.295  0.0459  0.0272 -0.0479
   22MOL   O13111933   3.302   7.405   5.465 -0.3171 -0.3992 -0.2768
   22MOL   H13211934   3.181   7.075   5.612 -0.1849 -2.6022  0.3263
   22MOL   H13311935   3.045   6.908   5.486 -0.4168  1.4035 -0.4811
   22MOL   H13411936   2.911   6.710   5.223 -1.0753  1.2760  2.0564
   22MOL   H13511937   2.916   6.674   5.492  0.7954 -0.1172  1.2358
   22MOL   H13611938   3.033   6.563   5.670 -0.3017  1.6087  0.0175
   22MOL   H13711939   3.369   6.440   5.637 -0.9914 -0.7956 -0.5818
   22MOL   H13811940   3.385   6.542   5.412 -0.3527 -0.6291 -1.6113
   22MOL   H13911941   3.257   6.679   5.237  0.8595 -0.3986  0.3994
   22MOL   H14011942   3.165   7.086   5.111 -1.5931  1.6729  0.5954
   22MOL   H14111943   3.276   7.267   5.243 -0.1298  1.0252  1.3972
   22MOL   C14211944   3.279   6.531   5.801 -0.6718  0.7385  0.0075
   22MOL   C14311945   3.389   6.473   5.887 -0.3074 -0.1866 -0.1128
   22MOL   C14411946   3.355   6.426   6.009 -0.1485  0.5000  0.0253
   22MOL   C14511947   3.450   6.365   6.102 -0.1339 -1.0689 -0.2711
   22MOL   C14611948   3.580   6.357   6.062  0.2761  0.3387 -0.9363
   22MOL   C14711949   3.676   6.301   6.163 -0.9653 -0.0306 -0.4782
   22MOL   N14811950   3.786   6.378   6.184 -0.0681 -0.6266  0.2088
   22MOL   C14911951   3.894   6.358   6.281 -0.5331  0.3756  0.2700
   22MOL   C15011952   3.993   6.454   6.280  0.2963 -0.4717 -0.6948
   22MOL   C15111953   4.099   6.445   6.367 -0.4575  0.0372  0.1148
   22MOL   C15211954   4.103   6.344   6.470  0.8181 -0.9015  0.3647
   22MOL   N15311955   4.221   6.341   6.550 -0.1944 -0.5614  0.2154
   22MOL   C15411956   3.998   6.245   6.474  0.0932 -0.4328  0.9989
   22MOL   C15511957   3.894   6.252   6.375 -0.1169 -0.4692 -0.1421
   22MOL   O15611958   3.653   6.191   6.215 -0.1556 -0.6239  0.1416
   22MOL   C15711959   3.617   6.401   5.936 -0.0979 -0.0007 -0.4758
   22MOL   C15811960   3.526   6.459   5.849  0.2400 -0.2274  0.9280
   22MOL   O15911961   3.185   6.586   5.852  0.6145 -0.7438 -0.2112
   22MOL   H16011962   3.254   6.428   6.047  0.1111 -0.8914  0.8399
   22MOL   H16111963   3.419   6.330   6.199  2.0346 -0.2463  0.7354
   22MOL   H16211964   3.792   6.453   6.116 -0.9935 -1.1445 -0.4506
   22MOL   H16311965   3.994   6.543   6.219 -1.7600 -0.7526 -1.1880
   22MOL   H16411966   4.175   6.521   6.354 -1.7901  1.1659 -1.3398
   22MOL   H16511967   4.261   6.427   6.585  0.4778 -0.6210 -0.4057
   22MOL   H16611968   4.002   6.166   6.548  0.4111  0.5700  2.0528
   22MOL   H16711969   3.823   6.170   6.377 -0.0443 -0.5905 -1.6809
   22MOL   H16811970   3.723   6.408   5.917  0.3587 -0.2015  1.7554
   22MOL   H16911971   3.556   6.490   5.749 -0.1468  1.5283  1.3252
   22MOL   C17011972   4.296   6.236   6.573  0.4012  0.8239  0.4888
   22MOL   C17111973   4.398   6.256   6.684 -0.2907 -0.1959 -0.0126
   22MOL   C17211974   4.538   6.221   6.667  0.2034  0.0880 -0.0744
   22MOL   C17311975   4.615   6.218   6.782  0.5895 -0.6842 -0.0511
   22MOL   C17411976   4.569   6.263   6.911 -0.4149  0.2823  0.2071
   22MOL   C17511977   4.670   6.278   7.023 -0.2341  0.5550 -0.0988
   22MOL   N17611978   4.618   6.277   7.150  0.3000 -0.2823 -0.4746
   22MOL   C17711979   4.683   6.282   7.274  0.1224 -0.6033 -0.6060
   22MOL   C17811980   4.611   6.235   7.385  0.4593 -0.2470 -0.1982
   22MOL   C17911981   4.665   6.226   7.509  0.2593  0.1057 -0.3310
   22MOL   C18011982   4.794   6.277   7.537  0.1640 -0.0078  0.1608
   22MOL   N18111983   4.855   6.283   7.664 -0.1323 -0.6105 -1.2838
   22MOL   C18211984   4.868   6.324   7.429 -0.0785 -0.4192 -0.2079
   22MOL   C18311985   4.812   6.327   7.295  0.2714  0.0350  0.3338
   22MOL   O18411986   4.787   6.302   6.996  0.0019  0.1126  0.2678
   22MOL   C18511987   4.433   6.296   6.926  0.0724 -0.2304 -0.1341
   22MOL   C18611988   4.353   6.291   6.808 -0.3068 -0.3503 -0.2835
   22MOL   O18711989   4.312   6.149   6.487  0.6261 -0.6784 -0.5341
   22MOL   H18811990   4.571   6.193   6.568 -0.2253 -0.2699 -0.1197
   22MOL   H18911991   4.721   6.201   6.771  0.4819 -0.6343 -1.3014
   22MOL   H19011992   4.518   6.262   7.154  0.5154 -2.4705 -2.7480
   22MOL   H19111993   4.513   6.191   7.375 -0.4146  1.4770  0.5637
   22MOL   H19211994   4.599   6.187   7.584  2.5105 -2.1434  0.5460
   22MOL   H19311995   4.929   6.352   7.669 -0.4357 -0.4059  0.8110
   22MOL   H19411996   4.968   6.358   7.454 -0.3331  0.1339  0.0745
   22MOL   H19511997   4.867   6.370   7.213  0.6673 -1.4519 -0.1903
   22MOL   H19611998   4.386   6.331   7.017 -0.7139  0.3608 -0.7571
   22MOL   H19711999   4.249   6.319   6.813  0.4108  2.3064  0.8848
   22MOL   C19812000   4.818   6.216   7.771  0.5210 -0.0457 -0.6384
   22MOL   C19912001   4.868   6.276   7.903  0.6056 -1.0938 -0.2454
   22MOL   C20012002   4.900   6.414   7.905 -0.6360 -0.5556  0.1485
   22MOL   C20112003   4.955   6.469   8.028  0.7188  0.7179  0.0005
   22MOL   C20212004   4.973   6.390   8.142  0.5028 -1.4259 -0.6478
   22MOL   C20312005   5.005   6.446   0.132  0.1926  0.0910 -0.3941
   22MOL   N20412006   5.074   6.563   0.125  0.0847 -0.1357  0.1812
   22MOL   C20512007   5.083   6.655   0.238 -0.5148  0.0416  0.5667
   22MOL   C20612008   5.193   6.737   0.247 -0.0420  0.6489 -0.2002
   22MOL   C20712009   5.200   6.835   0.349 -0.3900  0.4740  0.3539
   22MOL   C20812010   5.086   6.863   0.432 -0.0220  0.8749  0.7693
   22MOL   N20912011   5.107   6.951   0.539  0.0561 -0.2905  0.2932
   22MOL   C21012012   4.964   6.783   0.419 -0.2905  0.1777 -0.4606
   22MOL   C21112013   4.966   6.687   0.317  0.4951  0.0390  0.3825
   22MOL   O21212014   4.981   6.377   0.236  0.3402 -0.0727 -0.4496
   22MOL   C21312015   4.944   6.253   8.133 -0.3639 -0.4272 -0.6188
   22MOL   C21412016   4.904   6.196   8.009  0.4276  0.4727 -0.5519
   22MOL   O21512017   4.746   6.116   7.765 -0.3173 -0.7374  0.0941
   22MOL   H21612018   4.862   6.485   7.833 -0.9976 -0.2604  0.6329
   22MOL   H21712019   4.961   6.575   8.049  2.4487  0.2973  1.8510
   22MOL   H21812020   5.108   6.588   0.033 -1.4967 -1.0826 -0.6789
   22MOL   H21912021   5.276   6.717   0.181  1.4697  2.3225  1.1380
   22MOL   H22012022   5.290   6.885   0.379 -1.7932  2.0749  1.9984
   22MOL   H22112023   5.183   7.017   0.524 -1.3903  1.7413  1.6083
   22MOL   H22212024   4.877   6.789   0.482  0.3006 -0.9715  0.4936
   22MOL   H22312025   4.883   6.618   0.309 -0.2727  1.0232 -0.2101
   22MOL   H22412026   4.973   6.182   0.063  0.2192  1.4560  0.9315
   22MOL   H22512027   4.906   6.090   7.986 -1.2242  0.1910  0.5649
   22MOL   C22612028   5.029   6.978   0.640 -0.2370 -0.7451 -0.4485
   22MOL   C22712029   5.079   7.101   0.708  0.2551 -0.2074  0.6135
   22MOL   C22812030   5.107   7.213   0.626 -0.4573  0.1338 -0.7961
   22MOL   C22912031   5.144   7.326   0.694  0.8956 -0.0183 -1.0059
   22MOL   C23012032   5.155   7.335   0.836 -0.4089 -0.0153 -0.0518
   22MOL   C23112033   5.209   7.459   0.895  0.5242  0.0032 -0.6523
   22MOL   N23212034   5.165   7.491   1.019  0.1187  0.3865  0.0054
   22MOL   C23312035   5.195   7.605   1.096 -0.3160  0.1537  0.2075
   22MOL   C23412036   5.324   7.651   1.105 -0.0049 -0.4445 -0.3105
   22MOL   C23512037   5.350   7.766   1.185 -0.8245 -0.5394 -0.5432
   22MOL   C23612038   5.257   7.833   1.262  0.1004  0.6900 -0.5057
   22MOL   N23712039   5.289   7.966   1.311 -0.4839 -0.5797 -0.0705
   22MOL   C23812040   5.130   7.783   1.258  0.5857  0.0086  0.6772
   22MOL   C23912041   5.097   7.664   1.178  0.2918 -0.2825  0.4390
   22MOL   O24012042   5.296   7.530   0.840 -0.1280 -0.2445 -0.6810
   22MOL   C24112043   5.105   7.229   0.910 -0.5053  0.5841  0.5833
   22MOL   C24212044   5.069   7.107   0.847 -0.4195 -0.8715 -0.5960
   22MOL   O24312045   4.939   6.914   0.687  0.0754 -0.2611  0.0820
   22MOL   H24412046   5.096   7.206   0.519  1.5793  0.7181 -1.0591
   22MOL   H24512047   5.188   7.406   0.636  0.3776  2.2600  1.6249
   22MOL   H24612048   5.074   7.449   1.015  0.8700 -1.1980 -1.4190
   22MOL   H24712049   5.406   7.601   1.056  0.3223 -0.7439  0.5316
   22MOL   H24812050   5.447   7.814   1.186 -1.5399  1.2839 -5.1453
   22MOL   H24912051   5.386   7.990   1.292 -0.9933  0.8587 -0.9630
   22MOL   H25012052   5.041   7.830   1.296  1.2729  1.4618  0.5205
   22MOL   H25112053   4.994   7.633   1.173  0.1413  0.3844 -0.7591
   22MOL   H25212054   5.108   7.232   1.018 -1.3838 -3.0491  0.7891
   22MOL   H25312055   5.051   7.020   0.908  1.1244 -0.1690  0.8771
   22MOL   C25412056   5.224   8.045   1.404 -0.0112  0.3468  0.2539
   22MOL   C25512057   5.284   0.030   1.435  0.3267  0.1986 -0.0003
   22MOL   C25612058   5.423   0.054   1.415 -0.1056  0.3813  0.3093
   22MOL   C25712059   5.472   0.184   1.426  0.0694  0.2173 -0.3809
   22MOL   C25812060   5.386   0.285   1.474  0.1118 -0.7575 -0.2912
   22MOL   C25912061   5.425   0.432   1.480 -0.5527  0.7760  0.4347
   22MOL   N26012062   5.559   0.456   1.487 -0.0649  0.7864 -0.2219
   22MOL   C26112063   5.624   0.579   1.498 -0.1276 -0.0954 -0.5278
   22MOL   C26212064   5.736   0.592   1.587 -0.0858 -0.5567 -1.0436
   22MOL   C26312065   5.803   0.715   1.595 -0.1954  0.3412 -0.3948
   22MOL   C26412066   5.767   0.824   1.513 -0.1219  0.0306  0.7407
   22MOL   N26512067   5.836   0.947   1.535 -0.6826  0.0860 -0.1565
   22MOL   C26612068   5.668   0.805   1.415 -0.3849 -0.8326  0.4578
   22MOL   C26712069   5.601   0.689   1.419  0.6560  0.9390 -0.3601
   22MOL   O26812070   5.340   0.525   1.490 -0.7291 -0.3034 -0.3941
   22MOL   C26912071   5.250   0.255   1.506 -0.5286 -0.1109  0.7441
   22MOL   C27012072   5.205   0.129   1.485 -0.5847 -0.1930 -0.1247
   22MOL   O27112073   5.125   8.011   1.461  0.0500 -0.9756 -0.1452
   22MOL   H27212074   5.486   8.115   1.392  0.1080  0.3113  1.1520
   22MOL   H27312075   5.576   0.205   1.406  0.0033  1.0099  0.0978
   22MOL   H27412076   5.606   0.374   1.524 -0.4821  1.6448  2.3115
   22MOL   H27512077   5.773   0.510   1.647  0.6316 -0.9775 -2.0353
   22MOL   H27612078   5.891   0.720   1.658 -0.6529  1.6852  0.1596
   22MOL   H27712079   5.869   0.962   1.629 -0.0824  1.5718 -0.5810
   22MOL   H27812080   5.638   0.883   1.346 -1.4512 -2.3564 -0.8228
   22MOL   H27912081   5.519   0.677   1.350  1.5368 -1.8408 -0.9929
   22MOL   H28012082   5.184   0.331   1.545  1.4427  1.6790  0.7362
   22MOL   H28112083   5.101   0.109   1.508 -0.0083 -3.1743  0.2089
   22MOL   C28212084   5.883   1.026   1.439 -0.3723  0.2967 -0.1893
   22MOL   C28312085   5.960   1.141   1.498  0.1229 -0.2852  0.4185
   22MOL   C28412086   6.088   1.171   1.443  0.9447  0.3064  0.3663
   22MOL   C28512087   6.163   1.276   1.486 -0.8342 -0.0082 -0.6483
   22MOL   C28612088   6.112   1.364   1.578  0.3938 -0.6352 -0.8439
   22MOL   C28712089   6.191   1.480   1.626 -0.0179  0.7005  0.7227
   22MOL   N28812090   6.194   1.495   1.758 -0.4690  0.5293  0.0937
   22MOL   C28912091   6.115   1.444   1.862  0.4726  0.1800  0.0393
   22MOL   C29012092   6.106   1.309   1.904  0.2196 -0.5079 -0.6987
   22MOL   C29112093   6.025   1.265   2.011 -0.0353  0.1356  0.1688
   22MOL   C29212094   5.941   1.358   2.075 -0.0354  0.0807 -0.5967
   22MOL   N29312095   5.854   1.320   2.182  0.1147 -0.1788  0.5701
   22MOL   C29412096   5.954   1.494   2.041  0.0199 -0.1238  0.5898
   22MOL   C29512097   6.038   1.538   1.931 -0.3148  0.1753 -0.2141
   22MOL   O29612098   6.254   1.553   1.548  0.5350 -0.2411 -0.1417
   22MOL   C29712099   5.976   1.355   1.617 -0.4904 -1.4798 -0.2164
   22MOL   C29812100   5.900   1.238   1.585 -0.5606 -0.2646  0.2865
   22MOL   O29912101   5.876   1.011   1.318 -0.4796 -0.1879 -0.2177
   22MOL   H30012102   6.125   1.112   1.361  0.3205  0.4210  0.0026
   22MOL   H30112103   6.266   1.293   1.457 -0.6579  0.6142  0.2824
   22MOL   H30212104   6.226   1.588   1.778 -1.4736  0.8726  0.1283
   22MOL   H30312105   6.164   1.239   1.845 -0.5290  0.6092 -2.8106
   22MOL   H30412106   6.026   1.159   2.035 -3.0861 -0.1631 -0.8705
   22MOL   H30512107   5.877   1.228   2.215 -0.9668 -0.4773  0.5199
   22MOL   H30612108   5.907   1.570   2.103  0.3823  1.8615 -1.5204
   22MOL   H30712109   6.037   1.644   1.909  0.7452  0.1853 -0.2345
   22MOL   H30812110   5.934   1.436   1.675 -0.3635 -2.1961  0.8937
   22MOL   H30912111   5.797   1.232   1.615 -0.3653  2.6331  1.6601
   22MOL   C31012112   5.745   1.385   2.235  0.7752  0.5064  0.2363
   22MOL   C31112113   5.667   1.299   2.327 -0.5046 -0.6361  0.0428
   22MOL   C31212114   5.635   1.162   2.304 -0.4975 -0.0033  0.0124
   22MOL   C31312115   5.559   1.082   2.397 -0.8291 -0.3007  0.2569
   22MOL   C31412116   5.498   1.135   2.513 -0.2958 -0.4918  0.3265
   22MOL   C31512117   5.414   1.055   2.610 -0.6977 -0.7604  0.4787
   22MOL   N31612118   5.347   0.955   2.556  0.6699  0.1447 -0.3922
   22MOL   C31712119   5.240   0.875   2.599  0.2994  0.4806 -0.0893
   22MOL   C31812120   5.181   0.793   2.495 -0.2315  0.0262 -0.2861
   22MOL   C31912121   5.074   0.708   2.534 -0.2968 -0.2478 -0.0347
   22MOL   C32012122   5.037   0.693   2.665 -0.7015  0.2739 -1.2939
   22MOL   N32112123   4.961   0.579   2.702  0.2214  0.1539 -0.6539
   22MOL   C32212124   5.087   0.778   2.765  0.1035  0.3287 -0.4858
   22MOL   C32312125   5.191   0.871   2.734 -0.0590  0.4384  0.4206
   22MOL   O32412126   5.414   1.082   2.731 -0.2170 -0.0342  0.5234
   22MOL   C32512127   5.517   1.272   2.533  0.1537  0.0201  0.7618
   22MOL   C32612128   5.600   1.352   2.441 -0.1833  0.2763 -0.0351
   22MOL   O32712129   5.709   1.499   2.210 -0.4291  0.3917  0.2519
   22MOL   H32812130   5.670   1.111   2.215  0.9760  0.1486  0.4945
   22MOL   H32912131   5.557   0.976   2.380  1.0629 -0.3306  0.1531
   22MOL   H33012132   5.381   0.929   2.464  0.4595 -0.0434 -0.4158
   22MOL   H33112133   5.221   0.791   2.395 -1.0632  1.1913 -0.6563
   22MOL   H33212134   5.032   0.641   2.461 -0.8044  0.5810 -0.5087
   22MOL   H33312135   4.951   0.511   2.628  2.0515 -0.4726 -0.3469
   22MOL   H33412136   5.064   0.771   2.870 -0.9388  0.7427 -0.6887
   22MOL   H33512137   5.239   0.928   2.812 -0.7748 -1.0047  1.9585
   22MOL   H33612138   5.463   1.307   2.620 -0.5281  0.6458  0.1003
   22MOL   H33712139   5.611   1.458   2.463 -4.2109  0.0342  3.6922
   22MOL   C33812140   4.877   0.558   2.798 -0.4155 -0.1982 -0.5812
   22MOL   C33912141   4.790   0.438   2.778 -0.3421  0.1438  0.1071
   22MOL   C34012142   4.761   0.366   2.891 -0.0350  0.0072  0.8668
   22MOL   C34112143   4.695   0.244   2.882  0.2410 -0.3105  0.8099
   22MOL   C34212144   4.658   0.189   2.759  0.0587  0.2232 -0.1384
   22MOL   C34312145   4.589   0.056   2.764  0.2971 -0.4696 -0.5015
   22MOL   N34412146   4.614   8.124   2.655 -0.2931  0.3078  0.0095
   22MOL   C34512147   4.584   7.992   2.629  1.0171 -0.7938  0.6672
   22MOL   C34612148   4.574   7.960   2.490  1.0773 -1.1653  1.0534
   22MOL   C34712149   4.552   7.829   2.450 -0.3169  0.0594  0.7427
   22MOL   C34812150   4.529   7.729   2.547 -0.3778  0.0047  0.0848
   22MOL   N34912151   4.482   7.597   2.519  0.2137 -0.0446 -0.3361
   22MOL   C35012152   4.543   7.764   2.686 -0.4136 -0.3573  0.5732
   22MOL   C35112153   4.557   7.896   2.731 -0.4271  0.1367  0.2310
   22MOL   O35212154   4.513   0.025   2.860 -0.9084 -0.0584 -0.3753
   22MOL   C35312155   4.687   0.264   2.642  0.1367  0.6239 -0.2231
   22MOL   C35412156   4.751   0.391   2.655  0.8704  0.7703 -0.4469
   22MOL   O35512157   4.883   0.624   2.906  0.3492  0.8354 -0.0427
   22MOL   H35612158   4.792   0.408   2.986  0.5407 -0.7058  1.0029
   22MOL   H35712159   4.676   0.196   2.978  1.7254  0.4737  1.5058
   22MOL   H35812160   4.654   0.027   2.576 -0.9094 -1.4459 -1.4257
   22MOL   H35912161   4.576   8.038   2.415  1.9811 -1.3451  0.8905
   22MOL   H36012162   4.547   7.812   2.343 -0.3828 -1.5803  0.9914
   22MOL   H36112163   4.428   7.552   2.591 -0.1148  2.8739  1.3461
   22MOL   H36212164   4.508   7.691   2.756  1.7122 -2.0444 -0.0599
   22MOL   H36312165   4.539   7.926   2.833 -0.9829  1.0136 -0.1186
   22MOL   H36412166   4.672   0.215   2.547  0.9322  0.0198 -0.0387
   22MOL   H36512167   4.801   0.421   2.564  0.3046  2.3379 -0.2599
   22MOL   C36612168   4.509   7.526   2.408  0.6333  0.4142  0.2370
   22MOL   C36712169   4.450   7.389   2.400  0.0044 -0.1455  0.5571
   22MOL   C36812170   4.338   7.349   2.476  0.2412  0.6250  0.0824
   22MOL   C36912171   4.275   7.222   2.460  0.4876 -0.6788 -0.3557
   22MOL   C37012172   4.334   7.130   2.371 -0.6721  0.1056  1.2580
   22MOL   C37112173   4.289   6.990   2.347 -0.1356 -0.2178  0.3567
   22MOL   N37212174   4.346   6.896   2.428 -0.7158  0.5725 -0.1271
   22MOL   C37312175   4.409   6.928   2.552 -0.1397 -0.1919  0.5463
   22MOL   C37412176   4.323   6.960   2.660 -0.5559  0.6099 -0.2021
   22MOL   C37512177   4.379   7.002   2.782 -0.2681 -0.0991 -0.0205
   22MOL   C37612178   4.511   7.038   2.788 -0.6480 -0.7517  0.5114
   22MOL   N37712179   4.579   7.087   2.903  1.1302  0.2342 -0.5982
   22MOL   C37812180   4.592   7.020   2.674  0.1747  1.0824 -0.3253
   22MOL   C37912181   4.544   6.962   2.557  0.0904  0.0749  0.2011
   22MOL   O38012182   4.204   6.957   2.262  0.3905  0.0975  0.2244
   22MOL   C38112183   4.447   7.171   2.290 -0.7685  0.1463 -0.6441
   22MOL   C38212184   4.504   7.298   2.308  0.1086  0.3121  0.6424
   22MOL   O38312185   4.588   7.569   2.323 -0.1681 -1.2320  0.2512
   22MOL   H38412186   4.297   7.413   2.553 -1.8196  0.0291 -0.4955
   22MOL   H38512187   4.189   7.188   2.516 -0.0050 -0.0426 -0.7255
   22MOL   H38612188   4.346   6.800   2.397 -0.3916  0.5659 -0.1084
   22MOL   H38712189   4.219   6.934   2.649  0.2014 -3.5592  1.6178
   22MOL   H38812190   4.308   7.023   2.861 -1.6533  0.1304 -1.2949
   22MOL   H38912191   4.668   7.131   2.886  1.5505 -0.6225 -0.6259
   22MOL   H39012192   4.695   7.053   2.674  1.1576 -1.8812 -0.5577
   22MOL   H39112193   4.600   6.956   2.465 -0.1740 -0.4639  0.0762
   22MOL   H39212194   4.479   7.100   2.216 -0.7682  0.6181 -1.1014
   22MOL   H39312195   4.590   7.331   2.252  0.1689 -0.1109  0.4838
   22MOL   C39412196   4.551   7.063   3.033  0.4495 -0.7320  0.4155
   22MOL   C39512197   4.645   7.119   3.136  0.4359 -0.6216  0.0542
   22MOL   C39612198   4.588   7.211   3.231 -0.0062  0.4193 -0.5615
   22MOL   C39712199   4.663   7.275   3.323 -0.2001 -0.4476 -0.3492
   22MOL   C39812200   4.799   7.232   3.342 -0.0034 -0.1694  0.3386
   22MOL   C39912201   4.889   7.283   3.452 -0.2370 -0.7202  0.0591
   22MOL   N40012202   4.894   7.420   3.470 -0.0394 -0.7357  0.4466
   22MOL   C40112203   4.945   7.492   3.582 -0.8601 -0.1527 -0.3140
   22MOL   C40212204   4.859   7.547   3.671 -0.0582  0.4810 -0.0226
   22MOL   C40312205   4.907   7.637   3.769  0.0877  0.8000  0.0830
   22MOL   C40412206   5.045   7.669   3.772  0.2456  0.5188  0.4995
   22MOL   N40512207   5.089   7.751   3.880 -0.0424 -0.5636  0.2325
   22MOL   C40612208   5.132   7.607   3.679 -0.1120  0.2528 -0.1745
   22MOL   C40712209   5.085   7.512   3.588  0.6863 -0.0976 -0.0964
   22MOL   O40812210   4.960   7.204   3.526  0.3617 -0.0108  0.1894
   22MOL   C40912211   4.858   7.140   3.250  0.1892  0.4241  1.0409
   22MOL   C41012212   4.780   7.085   3.150  0.2119  0.2865  0.2552
   22MOL   O41112213   4.453   7.004   3.075  0.8203  0.1964 -0.0049
   22MOL   H41212214   4.481   7.213   3.236 -0.0612  0.5272 -1.6521
   22MOL   H41312215   4.612   7.334   3.397  0.7609 -0.4848  0.3573
   22MOL   H41412216   4.842   7.473   3.401  1.7419 -0.9967 -1.1526
   22MOL   H41512217   4.754   7.523   3.664 -0.1725  0.2649  2.0588
   22MOL   H41612218   4.847   7.678   3.849  1.9061  1.2278  1.2707
   22MOL   H41712219   5.017   7.773   3.947 -0.0469 -2.8401  1.0100
   22MOL   H41812220   5.238   7.627   3.688  0.1892 -0.4601 -2.0109
   22MOL   H41912221   5.151   7.464   3.517 -0.6653  0.6202 -1.8858
   22MOL   H42012222   4.963   7.119   3.256 -0.2066 -2.3050 -1.0105
   22MOL   H42112223   4.828   7.021   3.078  0.6868  1.4087 -0.4489
   22MOL   C42212224   5.193   7.836   3.875  0.4082 -0.1519 -0.1754
   22MOL   C42312225   5.197   7.927   3.990  0.6021 -0.2820 -1.0590
   22MOL   C42412226   5.188   7.879   4.119 -0.2090 -0.0513  1.3059
   22MOL   C42512227   5.183   7.963   4.232 -0.1165  0.1459 -0.3004
   22MOL   C42612228   5.227   8.097   4.219  0.2552  0.1903 -0.1198
   22MOL   C42712229   5.233   0.042   4.342  0.0207 -0.5464  0.0175
   22MOL   N42812230   5.265   0.170   4.313 -0.4783  0.2239  0.8492
   22MOL   C42912231   5.238   0.289   4.383 -0.3397 -1.0368  0.7785
   22MOL   C43012232   5.259   0.404   4.310 -0.6953 -0.3979  0.4253
   22MOL   C43112233   5.212   0.524   4.356  0.6036 -0.0969  0.3846
   22MOL   C43212234   5.155   0.534   4.481  0.0836  0.0001  0.8224
   22MOL   N43312235   5.112   0.658   4.530 -0.0470 -0.2548 -0.5057
   22MOL   C43412236   5.159   0.423   4.568  0.0598 -0.4601 -0.9605
   22MOL   C43512237   5.195   0.298   4.517  0.9147  0.5247  0.2045
   22MOL   O43612238   5.200   0.007   4.456  0.0670  0.5040 -0.3050
   22MOL   C43712239   5.255   8.145   4.085  0.1808 -1.0701  0.0756
   22MOL   C43812240   5.236   8.059   3.968 -0.4651  0.1553 -0.3873
   22MOL   O43912241   5.276   7.841   3.784 -0.6073 -0.3267 -0.1828
   22MOL   H44012242   5.167   7.774   4.133  1.3949 -0.4788  0.5896
   22MOL   H44112243   5.146   7.930   4.328 -1.4774 -2.6953 -1.7399
   22MOL   H44212244   5.295   0.187   4.219  2.4526 -0.6930  1.5600
   22MOL   H44312245   5.294   0.424   4.209  0.1805  1.5224  1.0655
   22MOL   H44412246   5.230   0.612   4.296 -1.6904  0.4857  0.5314
   22MOL   H44512247   5.178   0.735   4.527 -0.6871  0.2514 -2.5779
   22MOL   H44612248   5.118   0.434   4.668 -3.0418 -2.3664 -1.9639
   22MOL   H44712249   5.189   0.208   4.577 -1.6253  0.0426 -0.7521
   22MOL   H44812250   5.283   0.099   4.055  1.1926 -1.9460 -2.0372
   22MOL   H44912251   5.250   8.100   3.870 -0.9382  1.7176  0.1864
   22MOL   C45012252   4.990   0.689   4.574  0.1412  0.5872 -0.1625
   22MOL   C45112253   4.965   0.825   4.617 -0.2795  0.0103 -0.1625
   22MOL   C45212254   5.067   0.901   4.684  0.5989  0.2678 -0.6484
   22MOL   C45312255   5.039   1.029   4.739 -0.0899 -1.2127  0.7934
   22MOL   C45412256   4.904   1.082   4.718 -0.4425  0.0590  0.1885
   22MOL   C45512257   4.866   1.219   4.766 -0.4222  0.6524  0.2398
   22MOL   N45612258   4.950   1.313   4.726 -0.3036 -0.0003 -0.0242
   22MOL   C45712259   4.951   1.459   4.747  0.4901  0.9670  0.4856
   22MOL   C45812260   5.006   1.546   4.654  0.3403  0.1151 -0.0693
   22MOL   C45912261   5.007   1.687   4.685  1.2435 -0.2420 -0.8652
   22MOL   C46012262   4.944   1.742   4.803  0.6115  0.6595  0.5547
   22MOL   N46112263   4.949   1.873   4.845 -0.3225 -0.2055  0.1265
   22MOL   C46212264   4.897   1.649   4.895  0.1067  0.0768 -0.3756
   22MOL   C46312265   4.899   1.511   4.869  0.3109 -0.3498 -0.6616
   22MOL   O46412266   4.753   1.243   4.813 -0.2217  0.0650  0.1042
   22MOL   C46512267   4.804   1.008   4.647  0.3538  0.3812 -0.5712
   22MOL   C46612268   4.834   0.879   4.602  0.0727  0.5255  0.1229
   22MOL   O46712269   4.897   0.606   4.566  0.6600 -0.0660  0.1104
   22MOL   H46812270   5.154   0.852   4.726  0.4634 -0.0677 -0.7676
   22MOL   H46912271   5.108   1.074   4.809 -0.7503  0.2977  0.5013
   22MOL   H47012272   5.027   1.282   4.668  0.5639 -2.9426  2.5617
   22MOL   H47112273   5.050   1.504   4.564  1.2926 -0.1996  0.5292
   22MOL   H47212274   5.062   1.750   4.616  0.6545  2.3145  0.9115
   22MOL   H47312275   4.940   1.890   4.944  2.4826 -0.9989  0.5674
   22MOL   H47412276   4.851   1.683   4.987  1.3252 -0.2400  0.3573
   22MOL   H47512277   4.890   1.439   4.948  0.6118  1.4962  1.1001
   22MOL   H47612278   4.700   1.034   4.634 -0.4105 -1.9255  0.5471
   22MOL   H47712279   4.755   0.810   4.574  0.3193 -0.9877  2.9198
   22MOL   C47812280   4.989   1.989   4.784  0.2075  0.6616 -0.0325
   22MOL   C47912281   4.971   2.007   4.633  0.0848 -0.1142 -0.0193
   22MOL   C48012282   5.058   2.095   4.560 -0.0867  0.0063 -0.9392
   22MOL   C48112283   5.044   2.118   4.422  0.1072  0.2512  0.7454
   22MOL   C48212284   4.935   2.068   4.356  0.7036  0.8808  0.2368
   22MOL   C48312285   4.919   2.122   4.220  0.1854  0.6685  0.6449
   22MOL   N48412286   4.869   2.027   4.135  0.3793 -0.4902 -0.9048
   22MOL   C48512287   4.855   2.044   3.993 -0.2640 -0.1907  0.1185
   22MOL   C48612288   4.937   1.974   3.905  0.2415  0.3801 -0.4892
   22MOL   C48712289   4.927   1.994   3.766  0.2414 -0.2374 -0.5236
   22MOL   C48812290   4.824   2.077   3.717 -1.9061 -0.1737 -0.3644
   22MOL   N48912291   4.805   2.070   3.575  0.4363  0.1738 -0.3787
   22MOL   C49012292   4.751   2.157   3.801 -0.0310 -0.7590  0.7604
   22MOL   C49112293   4.764   2.138   3.938  0.8537 -0.7179  0.1177
   22MOL   O49212294   4.945   2.231   4.193  0.2020 -0.0112  0.6350
   22MOL   C49312295   4.844   1.980   4.426  0.4840 -0.2650  0.2527
   22MOL   C49412296   4.861   1.955   4.564 -0.1879 -0.9828  0.1450
   22MOL   O49512297   5.026   2.083   4.855  0.3442  0.6651 -0.4984
   22MOL   H49612298   5.129   2.148   4.622 -2.1170  2.5078 -0.6750
   22MOL   H49712299   5.108   2.192   4.376  0.6217 -1.9661 -2.2553
   22MOL   H49812300   4.843   1.935   4.168  0.0303 -0.1571 -0.2434
   22MOL   H49912301   5.000   1.897   3.948 -1.5964  0.7555  3.0409
   22MOL   H50012302   4.980   1.936   3.692 -0.3147 -1.9470  0.3908
   22MOL   H50112303   4.780   2.150   3.520 -1.6193 -0.2965 -0.1587
   22MOL   H50212304   4.682   2.228   3.758  0.9355  0.4272  1.1542
   22MOL   H50312305   4.697   2.188   4.006  0.6837 -1.3614  0.4299
   22MOL   H50412306   4.753   1.945   4.378 -0.7547 -0.0438  2.3689
   22MOL   H50512307   4.790   1.888   4.609 -0.8134 -1.3364 -1.3230
   22MOL   C50612308   4.776   1.963   3.502  0.0085  0.0661  0.0598
   22MOL   C50712309   4.737   1.986   3.354  0.1546 -0.3436  0.0391
   22MOL   C50812310   4.708   1.871   3.276  0.5037 -0.8214  0.5527
   22MOL   C50912311   4.643   1.883   3.150  0.4105  0.1372  0.7399
   22MOL   C51012312   4.620   2.016   3.099 -1.5252  0.3132 -0.1113
   22MOL   C51112313   4.541   2.029   2.977 -0.9946 -0.0668 -0.0510
   22MOL   N51212314   4.599   2.109   2.884  0.2724  0.0931 -0.1743
   22MOL   C51312315   4.524   2.155   2.774 -0.0283 -0.2189 -0.1378
   22MOL   C51412316   4.451   2.071   2.690  0.1948 -0.5450 -0.3830
   22MOL   C51512317   4.370   2.118   2.582  0.5099 -0.2752 -0.8891
   22MOL   C51612318   4.359   2.256   2.555 -0.2598  0.4557  0.4636
   22MOL   N51712319   4.276   2.312   2.451  0.0009 -0.4451  0.1874
   22MOL   C51812320   4.428   2.344   2.638 -0.0263  0.3318 -0.1766
   22MOL   C51912321   4.517   2.291   2.743  0.5166 -1.1580  0.2516
   22MOL   O52012322   4.435   1.970   2.959  0.4892 -0.2115  0.1790
   22MOL   C52112323   4.654   2.130   3.178  0.0272  0.1268 -0.9545
   22MOL   C52212324   4.703   2.112   3.307  0.4858 -0.0080  0.5530
   22MOL   O52312325   4.761   1.853   3.553 -0.2102  0.1155 -0.3058
   22MOL   H52412326   4.732   1.772   3.313 -0.1653 -1.1062  0.2323
   22MOL   H52512327   4.609   1.790   3.106  0.9105  0.1889  0.2526
   22MOL   H52612328   4.672   2.173   2.912  0.9327  0.1721 -1.9730
   22MOL   H52712329   4.460   1.964   2.698  2.8746 -0.3534 -0.3372
   22MOL   H52812330   4.306   2.050   2.530 -0.0642  0.6349 -1.3873
   22MOL   H52912331   4.245   2.408   2.447 -2.0627 -1.0521  1.0307
   22MOL   H53012332   4.430   2.451   2.619 -1.8392  0.3515 -0.3832
   22MOL   H53112333   4.575   2.359   2.803  0.0060 -0.3188 -0.1910
   22MOL   H53212334   4.636   2.234   3.157  2.3315  0.8959  0.6628
   22MOL   H53312335   4.723   2.201   3.364  1.7719  0.8490 -1.1679
   22MOL   C53412336   4.232   2.256   2.342 -0.1805  0.3203 -0.5527
   22MOL   C53512337   4.156   2.344   2.251  0.6617 -0.4268 -0.3480
   22MOL   C53612338   4.153   2.321   2.114 -0.1462 -0.1562 -0.6860
   22MOL   C53712339   4.088   2.413   2.030  0.2998  0.1405 -0.1177
   22MOL   C53812340   4.015   2.522   2.082 -0.1361  0.8768 -0.0948
   22MOL   C53912341   3.949   2.622   1.990  0.4743  0.2787  0.1610
   22MOL   N54012342   3.862   2.700   2.051 -0.4505 -0.0176  0.5818
   22MOL   C54112343   3.780   2.801   1.992  0.2369  1.0261 -0.1570
   22MOL   C54212344   3.829   2.880   1.882 -0.1868 -1.0328 -0.2575
   22MOL   C54312345   3.751   2.979   1.820  0.0978  0.1404  0.1327
   22MOL   C54412346   3.621   2.995   1.869 -0.2976  0.1219  0.6535
   22MOL   N54512347   3.541   3.095   1.820  0.0055 -0.2701  0.0817
   22MOL   C54612348   3.576   2.919   1.974  0.2698  0.0823  0.2663
   22MOL   C54712349   3.651   2.821   2.042 -1.0236  0.2933 -0.0661
   22MOL   O54812350   3.973   2.622   1.872 -0.2461 -0.0520 -0.2079
   22MOL   C54912351   4.012   2.536   2.220 -0.2270 -0.8287  0.5368
   22MOL   C55012352   4.079   2.445   2.304 -0.5124 -0.2255  0.4156
   22MOL   O55112353   4.267   2.143   2.307 -0.1851 -0.0131 -0.2766
   22MOL   H55212354   4.205   2.237   2.069 -2.5843 -0.5889 -2.8586
   22MOL   H55312355   4.097   2.404   1.922  2.9043 -2.0438  0.2225
   22MOL   H55412356   3.848   2.693   2.151  1.8028  0.4762  0.9495
   22MOL   H55512357   3.934   2.877   1.857  0.2277 -0.6165  1.3817
   22MOL   H55612358   3.783   3.037   1.735  0.8696  2.1965  1.7560
   22MOL   H55712359   3.443   3.099   1.842  0.0695  0.7867  0.2017
   22MOL   H55812360   3.473   2.927   2.004  0.4585  1.2553  0.6012
   22MOL   H55912361   3.605   2.761   2.119  1.2186 -2.7353 -0.9759
   22MOL   H56012362   3.966   2.621   2.269  2.9485  0.8963  0.6530
   22MOL   H56112363   4.058   2.461   2.408  2.0934 -0.6859  1.0382
   22MOL   H56212364   3.578   3.137   1.735 -1.5624  1.4045  0.1874
   23MOL     C112365   5.567   3.314   6.540  0.1985 -0.5824  0.3516
   23MOL     C212366   5.598   3.304   6.682  0.0985 -0.2089  0.3709
   23MOL     C312367   5.654   3.414   6.744 -0.6614 -0.4020  0.6159
   23MOL     C412368   5.651   3.437   6.883 -0.8297  0.7201  0.2384
   23MOL     C512369   5.606   3.336   6.965 -0.0294  0.1650 -0.1984
   23MOL     C612370   5.605   3.358   7.113  0.3464  0.3228 -0.0659
   23MOL     N712371   5.720   3.392   7.160 -0.4813  0.3342 -0.2936
   23MOL     C812372   5.741   3.430   7.292  0.0540  0.4119 -0.0942
   23MOL     C912373   5.692   3.557   7.340  0.5051 -0.6093 -0.1300
   23MOL    C1012374   5.710   3.596   7.473 -0.3790 -0.4256  0.8471
   23MOL    C1112375   5.771   3.509   7.565 -0.1249 -0.7497 -0.5371
   23MOL    N1212376   5.806   3.541   7.695 -0.0966 -0.4668  0.3714
   23MOL    C1312377   5.820   3.380   7.518 -0.1903  0.0899 -0.4631
   23MOL    C1412378   5.809   3.345   7.381  0.1633  0.5904 -1.0104
   23MOL    O1512379   5.500   3.348   7.170 -0.6009  0.4196 -0.6164
   23MOL    C1612380   5.563   3.207   6.910 -0.5578  0.3709 -0.7412
   23MOL    C1712381   5.552   3.196   6.768  0.4411 -0.7038 -0.0109
   23MOL    O1812382   5.585   3.407   6.464 -0.6192  0.2149 -0.3408
   23MOL    H1912383   5.683   3.500   6.686 -0.8434  0.2239  1.4380
   23MOL    H2012384   5.681   3.534   6.921 -4.3633  1.2715  1.7828
   23MOL    H2112385   5.799   3.369   7.102 -1.5799 -2.2300 -0.8477
   23MOL    H2212386   5.630   3.620   7.278  0.5839  1.3320  1.7042
   23MOL    H2312387   5.663   3.688   7.507  0.1296 -1.2323  3.9299
   23MOL    H2412388   5.862   3.472   7.744 -0.7935 -0.3442  1.3592
   23MOL    H2512389   5.861   3.308   7.588 -3.1141 -0.1459  1.1160
   23MOL    H2612390   5.849   3.250   7.352  1.0603 -0.5232  3.4652
   23MOL    H2712391   5.530   3.128   6.976  2.1888  0.3257  0.6302
   23MOL    H2812392   5.505   3.113   6.719 -0.0588  0.4275 -1.4911
   23MOL    H2912393   5.534   3.219   6.498  2.1819  0.1828 -3.1261
   23MOL    C3012394   5.783   3.657   7.760 -0.1250 -0.3925 -0.4114
   23MOL    C3112395   5.858   3.680   7.886  0.3412  0.0524 -0.2274
   23MOL    C3212396   5.946   3.581   7.941 -0.1300 -0.9077 -0.2981
   23MOL    C3312397   6.018   3.606   8.056  0.2839 -0.2334 -0.2457
   23MOL    C3412398   6.011   3.727   8.123  0.4013  1.0302 -0.5651
   23MOL    C3512399   6.091   3.745   0.103  0.0332  0.1327 -0.0486
   23MOL    N3612400   6.095   3.877   0.130 -0.2509 -0.2278  0.1513
   23MOL    C3712401   6.171   3.951   0.231 -0.0029 -0.3658  0.7833
   23MOL    C3812402   6.196   4.088   0.207  0.6640 -0.1410 -0.3173
   23MOL    C3912403   6.262   4.167   0.295 -0.5830 -0.3881  0.8016
   23MOL    C4012404   6.307   4.113   0.416  0.4871 -0.3074 -0.0968
   23MOL    N4112405   6.381   4.196   0.508  0.0770  0.1393  0.9940
   23MOL    C4212406   6.298   3.970   0.434  0.5387 -0.8152 -0.1162
   23MOL    C4312407   6.223   3.898   0.345  0.0879 -0.1226 -0.7267
   23MOL    O4412408   6.146   3.654   0.166 -0.4132  0.3367 -0.2111
   23MOL    C4512409   5.923   3.828   8.069  0.0755  0.2592 -0.1760
   23MOL    C4612410   5.842   3.800   7.957 -0.4466  0.7107 -0.3777
   23MOL    O4712411   5.706   3.742   7.724  0.7224  0.2741  0.5591
   23MOL    H4812412   5.963   3.489   7.887 -1.1031 -0.4555 -1.4073
   23MOL    H4912413   6.068   3.523   8.103  2.3266 -0.0609 -2.0803
   23MOL    H5012414   6.053   3.927   0.053 -1.4388 -0.4908  0.6133
   23MOL    H5112415   6.149   4.134   0.121 -1.2113 -2.0377 -0.3422
   23MOL    H5212416   6.281   4.270   0.268  1.4112 -0.6095  1.3142
   23MOL    H5312417   6.435   4.269   0.463  0.1607  0.1029  1.0335
   23MOL    H5412418   6.341   3.919   0.520 -1.3068  0.5091  1.6367
   23MOL    H5512419   6.198   3.799   0.378  0.5912 -0.6871 -2.0117
   23MOL    H5612420   5.912   3.928   8.108 -1.5354  1.0171 -2.4756
   23MOL    H5712421   5.765   3.872   7.934 -2.1499 -1.1618 -0.6346
   23MOL    C5812422   6.390   4.187   0.636  0.4289 -0.8419  1.0657
   23MOL    C5912423   6.475   4.293   0.707  0.7749 -0.1545  0.8543
   23MOL    C6012424   6.444   4.349   0.834  0.5631  0.4662  0.8156
   23MOL    C6112425   6.533   4.432   0.904  1.0971  0.4383 -0.4670
   23MOL    C6212426   6.644   4.481   0.842  1.2201  0.5881 -0.0615
   23MOL    C6312427   6.717   4.588   0.908  0.5251  0.0157  0.5375
   23MOL    N6412428   6.854   4.571   0.915  0.2947  0.2483 -0.0908
   23MOL    C6512429   6.954   4.658   0.972  0.3249 -0.8010 -0.2024
   23MOL    C6612430   6.959   4.706   1.104 -0.0422  0.4597  0.1039
   23MOL    C6712431   7.065   4.787   1.149  0.3148  0.9285 -1.1519
   23MOL    C6812432   7.169   4.825   1.059 -0.0425 -0.0508 -1.1385
   23MOL    N6912433   7.281   4.909   1.088 -0.8479 -0.3013  0.0382
   23MOL    C7012434   7.165   4.781   0.931  0.8705 -0.0299 -0.3929
   23MOL    C7112435   7.059   4.699   0.890  0.6366  0.3511  0.7185
   23MOL    O7212436   6.665   4.683   0.965 -0.1185  1.0109 -0.0169
   23MOL    C7312437   6.671   4.445   0.711 -0.0814 -0.4703  0.0683
   23MOL    C7412438   6.590   4.348   0.644  0.2408  0.5464  0.3212
   23MOL    O7512439   6.329   4.107   0.704 -0.0189  0.3824 -0.6454
   23MOL    H7612440   6.350   4.315   0.876 -0.2278  0.8700 -0.5908
   23MOL    H7712441   6.500   4.470   0.999 -0.2288 -0.0179 -0.7294
   23MOL    H7812442   6.889   4.492   0.863  2.2094  1.4783 -0.7441
   23MOL    H7912443   6.890   4.672   1.180  1.6533  0.5562  1.7372
   23MOL    H8012444   7.071   4.821   1.251  0.5015  0.5501 -1.0334
   23MOL    H8112445   7.370   4.890   1.045 -0.4260 -0.8537  1.1310
   23MOL    H8212446   7.242   4.809   0.860  1.5233  1.1895  0.7724
   23MOL    H8312447   7.061   4.657   0.791 -0.0214 -0.6748  1.1252
   23MOL    H8412448   6.755   4.488   0.659 -0.5368  0.0652 -0.2286
   23MOL    H8512449   6.618   4.321   0.543 -2.3947  1.8414 -0.8126
   23MOL    C8612450   7.298   4.986   1.193  0.3231  0.4902 -0.3186
   23MOL    C8712451   7.435   5.055   1.208 -0.5420  0.2195  0.2985
   23MOL    C8812452   7.472   5.115   1.332  0.4284 -0.4922  0.6174
   23MOL    C8912453   7.594   5.181   1.350 -0.3455  0.2909 -0.1244
   23MOL    C9012454   7.690   5.187   1.247 -0.4861  0.5623 -0.3123
   23MOL    C9112455   7.829   5.247   1.279  0.3519 -0.1698 -0.2392
   23MOL    N9212456   7.908   5.271   1.176 -0.3461  0.1109  0.0005
   23MOL    C9312457   8.050   5.286   1.175  0.1003  0.7112  0.2352
   23MOL    C9412458   8.137   5.260   1.284  0.0718  0.5126 -0.1472
   23MOL    C9512459   0.128   5.251   1.270  0.6658 -0.4597  0.1911
   23MOL    C9612460   0.180   5.284   1.146 -0.2527  0.2025  0.1112
   23MOL    N9712461   0.315   5.280   1.117 -0.8282 -0.0966  0.5376
   23MOL    C9812462   0.097   5.325   1.038 -0.7775 -0.2651 -0.1609
   23MOL    C9912463   8.103   5.324   1.051 -0.3222  0.4393  0.6502
   23MOL   O10012464   7.846   5.285   1.397 -0.2542  0.3561 -0.3562
   23MOL   C10112465   7.648   5.136   1.123 -0.6323 -0.3498  0.2085
   23MOL   C10212466   7.526   5.067   1.097  0.4662  0.4687  0.0523
   23MOL   O10312467   7.222   5.000   1.289 -0.6431  0.3688  0.0060
   23MOL   H10412468   7.409   5.121   1.419 -0.4727 -1.7451  0.0651
   23MOL   H10512469   7.622   5.218   1.448 -1.6434  0.2656  0.2607
   23MOL   H10612470   7.863   5.298   1.091 -0.8407  0.8060  0.4796
   23MOL   H10712471   8.094   5.223   1.376  3.3060 -0.6656  0.9310
   23MOL   H10812472   0.187   5.221   1.356 -0.3404 -0.4785  0.8841
   23MOL   H10912473   0.335   5.257   1.021  1.6186 -0.4564  1.0873
   23MOL   H11012474   0.138   5.357   0.944 -0.1245  1.5023  0.7137
   23MOL   H11112475   8.038   5.343   0.967  1.3949 -0.2253 -0.8473
   23MOL   H11212476   7.710   5.115   1.037 -0.8692  0.6463 -0.2161
   23MOL   H11312477   7.494   5.027   1.002 -0.8959  3.1945 -0.6833
   23MOL   C11412478   0.424   5.309   1.190 -0.1285  0.2498 -0.2210
   23MOL   C11512479   0.560   5.302   1.122  0.9711 -0.4561 -0.6103
   23MOL   C11612480   0.577   5.284   0.983 -0.6493  0.4621 -0.1721
   23MOL   C11712481   0.702   5.282   0.924 -0.4132 -0.0684 -0.5000
   23MOL   C11812482   0.819   5.279   1.001  0.0722 -0.1617 -0.5870
   23MOL   C11912483   0.956   5.270   0.932 -0.0349  0.4069 -0.2644
   23MOL   N12012484   1.041   5.187   0.987  0.3461  0.0135  0.5433
   23MOL   C12112485   1.153   5.137   0.925 -0.9985  0.5088 -0.7774
   23MOL   C12212486   1.220   5.218   0.831 -0.5906 -0.1480  0.3146
   23MOL   C12312487   1.316   5.168   0.747  0.2393  0.2833  0.0203
   23MOL   C12412488   1.358   5.034   0.772  0.2144  0.3798 -0.1970
   23MOL   N12512489   1.465   4.987   0.688  0.3996  0.2326 -0.0179
   23MOL   C12612490   1.299   4.950   0.866  0.1248 -0.5821  0.4561
   23MOL   C12712491   1.197   5.001   0.949  0.1889  0.3803 -0.6384
   23MOL   O12812492   0.967   5.328   0.823 -0.1948  0.0589 -0.0582
   23MOL   C12912493   0.808   5.286   1.142 -0.6375 -0.2231  0.0548
   23MOL   C13012494   0.681   5.300   1.201 -0.0339  0.1694 -0.0918
   23MOL   O13112495   0.422   5.357   1.303  0.1421  0.3202 -0.7119
   23MOL   H13212496   0.489   5.270   0.922 -1.3654  0.2330  0.9090
   23MOL   H13312497   0.697   5.271   0.816 -0.8807 -1.2500 -0.3653
   23MOL   H13412498   1.009   5.135   1.067 -1.8048  2.4869  1.3461
   23MOL   H13512499   1.192   5.321   0.819  0.3146  0.1173  0.4506
   23MOL   H13612500   1.354   5.235   0.671  1.2942  0.5309  0.7454
   23MOL   H13712501   1.545   5.048   0.688  2.1747 -2.0004 -1.6040
   23MOL   H13812502   1.334   4.848   0.869  1.4472 -0.1465 -0.3037
   23MOL   H13912503   1.139   4.938   1.014  0.3223 -0.9538 -1.7951
   23MOL   H14012504   0.894   5.285   1.208 -0.0450  1.8947 -0.6199
   23MOL   H14112505   0.662   5.308   1.307  1.1787  1.8550  0.0133
   23MOL   C14212506   1.444   4.931   0.564 -0.0043  0.8275 -0.1137
   23MOL   C14312507   1.313   4.869   0.540 -0.0930 -0.7932 -0.2748
   23MOL   C14412508   1.282   4.746   0.596 -0.0808  0.0270 -0.0432
   23MOL   C14512509   1.155   4.689   0.571  0.2747 -0.3855  0.0802
   23MOL   C14612510   1.061   4.747   0.481  0.3508  0.2104  0.1406
   23MOL   C14712511   0.925   4.676   0.460 -0.0569  0.2477  0.0800
   23MOL   N14812512   0.838   4.740   0.377  0.2432 -0.3135  0.3166
   23MOL   C14912513   0.720   4.686   0.318 -0.9158  0.1485  0.7730
   23MOL   C15012514   0.693   4.734   0.185  0.6184 -0.1333 -1.2885
   23MOL   C15112515   0.586   4.680   0.120  0.5130 -0.5584  0.3265
   23MOL   C15212516   0.507   4.585   0.182  0.5396 -0.4736  0.0645
   23MOL   N15312517   0.395   4.542   0.104 -0.3357  0.5394  0.1579
   23MOL   C15412518   0.538   4.532   0.305  0.5866 -0.3058  0.3727
   23MOL   C15512519   0.649   4.578   0.375 -0.1181  0.5072 -0.7127
   23MOL   O15612520   0.896   4.570   0.512 -0.5173  0.3037 -0.0175
   23MOL   C15712521   1.093   4.870   0.422 -0.7433 -0.4649  0.1312
   23MOL   C15812522   1.218   4.933   0.454  0.6116 -0.1322  0.6594
   23MOL   O15912523   1.525   4.945   0.473  0.1614  0.5812 -0.2280
   23MOL   H16012524   1.354   4.700   0.662  1.1110  1.7015 -0.1510
   23MOL   H16112525   1.136   4.594   0.618  1.9970 -0.6604  0.2763
   23MOL   H16212526   0.869   4.824   0.331  0.9441 -0.7330  0.0132
   23MOL   H16312527   0.752   4.817   0.147 -0.6465  1.2939 -0.2216
   23MOL   H16412528   0.561   4.712   0.020 -1.8706  0.8228  1.3210
   23MOL   H16512529   0.380   4.598   0.022  0.9116 -0.8456 -1.0381
   23MOL   H16612530   0.485   4.447   0.346  3.9506 -3.0398 -0.7021
   23MOL   H16712531   0.661   4.531   0.471 -1.0185  1.8588  0.0799
   23MOL   H16812532   1.023   4.922   0.358  0.8116  1.6585  0.0951
   23MOL   H16912533   1.240   5.031   0.415 -1.6879  0.2446  0.2294
   23MOL   C17012534   0.283   4.470   0.137 -1.1753 -0.2542 -0.0874
   23MOL   C17112535   0.153   4.495   0.059  0.0657  0.4244 -0.4699
   23MOL   C17212536   0.044   4.397   0.047  0.0686 -0.3453 -0.4672
   23MOL   C17312537   8.072   4.427   8.121 -0.1816  0.2573  0.7390
   23MOL   C17412538   8.064   4.549   8.050 -0.3563  0.4557  0.5653
   23MOL   C17512539   7.941   4.585   7.974 -0.6427  0.3685  0.0930
   23MOL   N17612540   7.872   4.477   7.929  1.0301 -0.0912  0.0376
   23MOL   C17712541   7.731   4.464   7.894  0.5370 -0.0910  0.4155
   23MOL   C17812542   7.633   4.557   7.929 -0.3520  0.3915 -0.3651
   23MOL   C17912543   7.495   4.524   7.923 -0.0885 -1.1852 -0.4112
   23MOL   C18012544   7.458   4.396   7.875 -0.1846 -0.4824  0.4232
   23MOL   N18112545   7.325   4.347   7.875  0.3460 -0.0491  0.4366
   23MOL   C18212546   7.557   4.306   7.830  0.2254 -0.1983 -0.2147
   23MOL   C18312547   7.692   4.347   7.836  1.0951  0.0034  0.6203
   23MOL   O18412548   7.907   4.698   7.956  0.2634 -0.2005  0.0991
   23MOL   C18512549   0.019   4.648   8.061 -0.1398  0.4103 -0.2754
   23MOL   C18612550   0.140   4.611   8.128  0.0014 -0.3447  0.7652
   23MOL   O18712551   0.296   4.385   0.223  0.0911  0.0101  0.0908
   23MOL   H18812552   0.064   4.306   0.101 -2.3435 -0.8015 -0.2603
   23MOL   H18912553   8.001   4.346   8.114  0.2263 -0.1336  1.0679
   23MOL   H19012554   7.931   4.396   7.913  0.3090 -0.3624 -1.3241
   23MOL   H19112555   7.662   4.653   7.969  0.4347  0.4112 -0.9626
   23MOL   H19212556   7.420   4.589   7.965  0.2743 -0.7811 -0.3892
   23MOL   H19312557   7.312   4.252   7.843 -0.4224  0.2396 -0.1300
   23MOL   H19412558   7.533   4.206   7.796  0.0374 -0.2153 -0.0302
   23MOL   H19512559   7.759   4.270   7.800  0.6667  0.6893 -1.7352
   23MOL   H19612560   0.018   4.742   8.006  1.1180  1.0102  0.7061
   23MOL   H19712561   0.215   4.688   8.133  0.4605 -0.9094  3.2254
   23MOL   C19812562   7.209   4.397   7.919 -0.1518 -0.3060  0.2549
   23MOL   C19912563   7.094   4.307   7.894  0.0869  0.3580 -0.0599
   23MOL   C20012564   7.014   4.259   8.004 -0.1189 -0.1481 -0.0384
   23MOL   C20112565   6.905   4.175   7.980  0.3530  0.3654  0.6922
   23MOL   C20212566   6.891   4.118   7.854 -0.0885  0.0914 -0.1700
   23MOL   C20312567   6.789   4.013   7.827 -0.7588  0.3998  0.7089
   23MOL   N20412568   6.846   3.895   7.799 -0.1219 -1.2479 -0.2671
   23MOL   C20512569   6.789   3.784   7.736  0.0766  0.0447 -0.7578
   23MOL   C20612570   6.879   3.704   7.672  0.0097 -0.1730  0.0202
   23MOL   C20712571   6.837   3.600   7.589 -0.3316 -0.2688  0.4433
   23MOL   C20812572   6.699   3.581   7.563  0.1411 -0.5934 -1.2033
   23MOL   N20912573   6.662   3.472   7.481  0.7628 -0.4645 -0.2955
   23MOL   C21012574   6.604   3.663   7.631  0.1113  0.1361 -0.9299
   23MOL   C21112575   6.652   3.761   7.719 -0.4064  0.1558 -0.1030
   23MOL   O21212576   6.672   4.048   7.836  0.3425 -0.1436  0.0782
   23MOL   C21312577   6.981   4.154   7.752  0.3835 -0.1373  0.0543
   23MOL   C21412578   7.076   4.251   7.768  0.3514  0.3640  0.7086
   23MOL   O21512579   7.190   4.512   7.970  0.0431  0.7229 -0.3927
   23MOL   H21612580   7.031   4.302   8.101 -1.8812  0.3641  0.0529
   23MOL   H21712581   6.835   4.147   8.058 -0.1197  0.6134  0.3593
   23MOL   H21812582   6.946   3.902   7.812 -0.2952 -3.5324  2.9334
   23MOL   H21912583   6.984   3.723   7.684  0.0353 -0.9765  1.1138
   23MOL   H22012584   6.914   3.538   7.544 -0.1766 -0.1594  0.5587
   23MOL   H22112585   6.709   3.383   7.492 -1.5496 -1.6887 -0.2224
   23MOL   H22212586   6.498   3.645   7.627 -0.2677  1.9399  0.4771
   23MOL   H22312587   6.577   3.823   7.764 -0.0021 -0.0235  0.8296
   23MOL   H22412588   6.961   4.108   7.656 -1.2779 -0.8427  0.7184
   23MOL   H22512589   7.139   4.288   7.688 -0.1299  0.9379  0.5924
   23MOL   C22612590   6.573   3.478   7.382  0.7539 -0.6250 -0.1058
   23MOL   C22712591   6.547   3.344   7.319  0.1166  0.7082 -0.1266
   23MOL   C22812592   6.494   3.338   7.192 -0.2413  0.3434  0.7438
   23MOL   C22912593   6.454   3.210   7.142  0.3440 -0.5733 -0.0426
   23MOL   C23012594   6.458   3.096   7.225  0.1433 -0.0244 -0.1215
   23MOL   C23112595   6.411   2.966   7.165 -0.4702  0.0246  0.2816
   23MOL   N23212596   6.509   2.873   7.175 -0.3323  0.4068  0.0400
   23MOL   C23312597   6.472   2.740   7.198 -0.1863 -0.0852 -0.4649
   23MOL   C23412598   6.479   2.642   7.093  0.4600 -0.5510  0.1756
   23MOL   C23512599   6.453   2.505   7.114 -0.3140  0.3242 -0.4287
   23MOL   C23612600   6.434   2.459   7.246 -0.6373 -0.1349  1.0790
   23MOL   N23712601   6.417   2.321   7.282  0.2990 -0.6604 -0.4558
   23MOL   C23812602   6.426   2.552   7.352  0.3210 -0.4959  0.5112
   23MOL   C23912603   6.434   2.687   7.325  0.1198 -1.3250  0.4180
   23MOL   O24012604   6.309   2.952   7.095 -0.1733  0.1788 -0.6427
   23MOL   C24112605   6.504   3.107   7.354 -0.2334  0.4643 -0.0986
   23MOL   C24212606   6.547   3.230   7.406 -0.2192 -0.0755  0.3861
   23MOL   O24312607   6.520   3.585   7.353 -0.2077 -0.6702  0.3450
   23MOL   H24412608   6.475   3.426   7.131 -0.0970 -0.2585 -0.1858
   23MOL   H24512609   6.427   3.206   7.038  1.2700  0.8612 -0.3472
   23MOL   H24612610   6.600   2.906   7.203  0.0885  0.0604 -0.8731
   23MOL   H24712611   6.498   2.670   6.991  0.2876 -0.6652  0.1127
   23MOL   H24812612   6.440   2.438   7.030  1.1644 -0.3669 -0.1235
   23MOL   H24912613   6.348   2.311   7.355  0.9804 -1.2640  0.1182
   23MOL   H25012614   6.397   2.532   7.454  0.1254 -0.3621  0.4833
   23MOL   H25112615   6.434   2.749   7.413  0.4539  0.6573 -0.9322
   23MOL   H25212616   6.507   3.020   7.417  2.6679 -0.6750 -1.7411
   23MOL   H25312617   6.585   3.231   7.507  0.4575  0.0211  0.1343
   23MOL   C25412618   6.460   2.212   7.214 -0.3965  0.0328 -0.3820
   23MOL   C25512619   6.581   2.227   7.123  0.2034 -0.2504 -0.8226
   23MOL   C25612620   6.702   2.280   7.161 -0.2132  0.2066 -0.1357
   23MOL   C25712621   6.812   2.272   7.074  0.7242 -1.3466 -0.0053
   23MOL   C25812622   6.798   2.217   6.944 -0.1277  0.5217  0.3087
   23MOL   C25912623   6.916   2.187   6.854 -0.0712  0.4148 -0.6146
   23MOL   N26012624   6.889   2.130   6.733  0.4218  0.3970  0.3376
   23MOL   C26112625   6.975   2.108   6.618  0.6575 -0.0400  0.0568
   23MOL   C26212626   7.103   2.164   6.607 -0.2698  0.1729  1.1283
   23MOL   C26312627   7.182   2.136   6.495  0.0790 -0.1285  0.0046
   23MOL   C26412628   7.133   2.061   6.388  0.1200  0.3168 -0.0015
   23MOL   N26512629   7.222   2.046   6.279 -0.3221  0.1201 -0.0530
   23MOL   C26612630   7.006   2.010   6.397 -0.0613  0.4851 -0.4804
   23MOL   C26712631   6.923   2.034   6.512  0.5360 -0.6798 -0.3079
   23MOL   O26812632   7.033   2.207   6.895  0.1313  0.7460 -0.3906
   23MOL   C26912633   6.671   2.169   6.902  0.1959 -0.8479 -0.7427
   23MOL   C27012634   6.566   2.178   6.993 -0.0642 -0.3083 -0.1750
   23MOL   O27112635   6.404   2.102   7.215 -0.2909 -0.4146 -0.0472
   23MOL   H27212636   6.715   2.317   7.261 -0.8230 -1.0387  0.4044
   23MOL   H27312637   6.911   2.298   7.105 -0.7628  3.0647  1.4491
   23MOL   H27412638   6.792   2.107   6.717  0.2219  1.3413  0.1520
   23MOL   H27512639   7.147   2.221   6.688  3.3496 -0.7893 -0.0315
   23MOL   H27612640   7.285   2.167   6.500  0.4181 -1.4065  1.2892
   23MOL   H27712641   7.293   2.117   6.270 -1.1267  0.8661 -0.6569
   23MOL   H27812642   6.956   1.963   6.313 -2.1319  0.1196  0.9265
   23MOL   H27912643   6.824   1.992   6.513 -0.1981  1.0117 -0.0733
   23MOL   H28012644   6.658   2.134   6.801 -0.9960  0.2627 -1.0030
   23MOL   H28112645   6.473   2.128   6.969 -0.7416  0.0375  1.6960
   23MOL   C28212646   7.227   1.960   6.180  0.7509  0.0542  0.3394
   23MOL   C28312647   7.305   2.004   6.059 -0.5255  0.0713  1.2424
   23MOL   C28412648   7.393   1.913   5.997  0.1697 -0.3233  0.3117
   23MOL   C28512649   7.465   1.947   5.878 -0.3362  0.1320 -0.2833
   23MOL   C28612650   7.476   2.079   5.837  0.1116 -0.2247  0.4799
   23MOL   C28712651   7.554   2.124   5.714 -0.6200 -0.8740 -0.3098
   23MOL   N28812652   7.676   2.069   5.692  0.3422 -0.3758 -0.2941
   23MOL   C28912653   7.769   2.030   5.789 -0.3483 -0.1499  0.2373
   23MOL   C29012654   7.764   2.054   5.928  1.0968  0.1791 -0.1359
   23MOL   C29112655   7.874   2.040   6.008 -0.6504  0.3643  0.2565
   23MOL   C29212656   7.998   1.994   5.953 -0.1770  0.2264 -0.3199
   23MOL   N29312657   8.112   1.978   6.039  0.2219 -0.1011 -0.4918
   23MOL   C29412658   8.009   1.974   5.819 -1.0952  0.4223  0.0238
   23MOL   C29512659   7.895   1.990   5.735 -0.2058  0.2234 -0.1372
   23MOL   O29612660   7.514   2.220   5.647 -0.2951 -0.4493 -0.3047
   23MOL   C29712661   7.389   2.172   5.903 -0.4205 -0.7122 -1.4542
   23MOL   C29812662   7.300   2.141   6.013 -0.4551  0.0449  0.7160
   23MOL   O29912663   7.150   1.858   6.175  0.4843 -0.5346  0.2007
   23MOL   H30012664   7.402   1.812   6.035  0.4534 -0.7730 -0.9391
   23MOL   H30112665   7.525   1.872   5.829  1.0555  0.1140  1.3956
   23MOL   H30212666   7.711   2.078   5.598  3.9365  2.7679  1.2326
   23MOL   H30312667   7.674   2.087   5.978  1.4427  0.4040  0.3284
   23MOL   H30412668   7.868   2.065   6.113 -1.4562  0.8718  0.0893
   23MOL   H30512669   0.047   2.025   6.001 -0.5440  0.4499 -1.4561
   23MOL   H30612670   8.100   1.944   5.770 -1.0468  0.1212  0.2986
   23MOL   H30712671   7.908   1.966   5.631 -1.1098  0.0446 -0.2173
   23MOL   H30812672   7.392   2.278   5.886 -2.0771 -0.6853 -1.6929
   23MOL   H30912673   7.235   2.214   6.059  0.6092 -0.2219  2.7311
   23MOL   C31012674   8.133   1.949   6.169  0.6485 -1.0697  0.6792
   23MOL   C31112675   8.019   1.921   6.257  0.5676  0.0306 -0.2925
   23MOL   C31212676   7.989   1.995   6.375  0.8104 -0.6183  0.1300
   23MOL   C31312677   7.886   1.959   6.469  0.8134 -0.4886  0.2288
   23MOL   C31412678   7.804   1.848   6.438  0.0837  0.1067  0.0839
   23MOL   C31512679   7.699   1.809   6.534 -0.0009 -0.0474  0.3790
   23MOL   N31612680   7.591   1.888   6.548 -0.3566 -0.9042 -0.3017
   23MOL   C31712681   7.486   1.854   6.637 -0.9843  0.2462  0.4800
   23MOL   C31812682   7.516   1.861   6.774  0.1534 -0.3537  0.1661
   23MOL   C31912683   7.422   1.828   6.876  0.4480 -0.1871  0.1704
   23MOL   C32012684   7.291   1.806   6.827  0.0985 -0.4023 -0.1921
   23MOL   N32112685   7.174   1.799   6.915 -0.5614 -0.3635 -0.1961
   23MOL   C32212686   7.258   1.809   6.689  0.0254  0.2560 -0.9289
   23MOL   C32312687   7.362   1.824   6.595 -0.1147 -0.2642 -0.2979
   23MOL   O32412688   7.733   1.710   6.610 -0.1259 -0.4389  0.6096
   23MOL   C32512689   7.830   1.769   6.320  0.9294 -0.4647  0.1840
   23MOL   C32612690   7.932   1.813   6.228  0.8882 -0.7151  0.4773
   23MOL   O32712691   0.095   1.937   6.218 -0.0971 -0.1231  0.1216
   23MOL   H32812692   8.054   2.079   6.399 -0.7337 -0.4467  4.0667
   23MOL   H32912693   7.859   2.000   6.565  1.9918 -1.5515  1.0387
   23MOL   H33012694   7.573   1.947   6.469  2.4895 -1.7971 -1.6670
   23MOL   H33112695   7.616   1.877   6.813 -0.4464  0.4740  1.3909
   23MOL   H33212696   7.437   1.826   6.983 -1.8200 -2.6709  0.4896
   23MOL   H33312697   7.082   1.815   6.876 -1.4880 -3.8448  0.3755
   23MOL   H33412698   7.155   1.795   6.660 -0.0839 -1.9584  0.3736
   23MOL   H33512699   7.344   1.817   6.489  1.6291 -0.0568 -0.6244
   23MOL   H33612700   7.776   1.680   6.294  1.6875 -1.4293  1.8000
   23MOL   H33712701   7.950   1.749   6.142  0.9648 -0.0925  0.0295
   23MOL   C33812702   7.156   1.729   7.029  0.1996  0.4273  0.3777
   23MOL   C33912703   7.010   1.739   7.081  0.1417 -0.1440 -0.2197
   23MOL   C34012704   6.938   1.859   7.067  0.0253  0.4530 -0.0495
   23MOL   C34112705   6.803   1.872   7.117 -0.9526  0.0494 -0.0672
   23MOL   C34212706   6.744   1.758   7.180  0.1055 -0.1859 -0.3224
   23MOL   C34312707   6.597   1.761   7.217  0.2569 -0.3306  1.0840
   23MOL   N34412708   6.511   1.806   7.123 -0.1818  0.1817  0.0911
   23MOL   C34512709   6.519   1.829   6.986 -0.5014 -1.2098 -0.1405
   23MOL   C34612710   6.415   1.896   6.930 -0.3334  0.1418  0.3174
   23MOL   C34712711   6.414   1.925   6.791 -0.0516  0.7714  0.4677
   23MOL   C34812712   6.519   1.877   6.703 -0.5746 -0.1664 -0.3586
   23MOL   N34912713   6.509   1.902   6.570 -0.5903  0.0456 -0.6736
   23MOL   C35012714   6.618   1.792   6.761 -0.4948 -0.3555 -0.2783
   23MOL   C35112715   6.618   1.775   6.903 -0.2573  0.0274 -0.3913
   23MOL   O35212716   6.553   1.718   7.320  0.2369 -0.5359 -0.1332
   23MOL   C35312717   6.818   1.641   7.208 -0.3070  0.2550  1.0236
   23MOL   C35412718   6.948   1.632   7.153 -0.1952 -0.2550  0.7386
   23MOL   O35512719   7.238   1.657   7.090  0.2917 -0.3538 -0.1915
   23MOL   H35612720   6.982   1.943   7.014  1.2127  1.1617  2.0115
   23MOL   H35712721   6.750   1.966   7.105 -0.1695  0.5400  0.3063
   23MOL   H35812722   6.417   1.822   7.157 -0.0864 -2.9022  1.9857
   23MOL   H35912723   6.332   1.943   6.981  0.1389  1.8142 -0.4298
   23MOL   H36012724   6.330   1.982   6.753 -1.2529  0.1238  2.0751
   23MOL   H36112725   6.451   1.981   6.545  0.8464  0.9483 -1.2119
   23MOL   H36212726   6.686   1.734   6.701 -1.7360 -1.3349 -0.7779
   23MOL   H36312727   6.697   1.715   6.945 -1.3018 -1.0934 -0.0047
   23MOL   H36412728   6.773   1.558   7.259  0.5085  0.1542  1.5755
   23MOL   H36512729   7.002   1.539   7.161 -1.1779 -0.8390  0.6501
   23MOL   C36612730   6.562   1.836   6.470  0.2062 -0.4546 -0.7017
   23MOL   C36712731   6.538   1.898   6.329  0.0319  0.5515  0.7809
   23MOL   C36812732   6.413   1.949   6.283 -0.6581 -0.1410  0.0170
   23MOL   C36912733   6.405   1.991   6.142 -0.0662  0.4550  0.1515
   23MOL   C37012734   6.506   1.974   6.051 -0.1706 -0.0744  0.4289
   23MOL   C37112735   6.478   1.998   5.911 -0.2585  0.1243 -0.3571
   23MOL   N37212736   6.582   2.049   5.837  0.4657 -0.0892 -0.3422
   23MOL   C37312737   6.579   2.057   5.694 -0.0505 -0.2146  0.4312
   23MOL   C37412738   6.465   2.081   5.613 -0.5496 -0.6321  0.0941
   23MOL   C37512739   6.480   2.083   5.472 -0.3502 -0.6337 -0.9714
   23MOL   C37612740   6.604   2.068   5.414 -0.5251  0.3894 -0.1566
   23MOL   N37712741   6.613   2.071   5.272  0.2011  0.6013 -0.7437
   23MOL   C37812742   6.722   2.052   5.493 -0.5941 -0.1883  0.0732
   23MOL   C37912743   6.709   2.045   5.633 -0.0754 -0.0111 -0.0970
   23MOL   O38012744   6.367   1.982   5.865 -0.1413 -0.1036  1.1345
   23MOL   C38112745   6.630   1.916   6.097  0.4251 -0.2394 -0.0920
   23MOL   C38212746   6.640   1.879   6.231  0.1314  0.2013  0.4587
   23MOL   O38312747   6.615   1.722   6.479  0.3215 -0.1524 -0.0005
   23MOL   H38412748   6.334   1.972   6.353 -1.3118  1.3164 -1.1635
   23MOL   H38512749   6.310   2.031   6.110 -1.3116 -2.1105  0.4998
   23MOL   H38612750   6.670   2.066   5.885 -0.4011 -0.8250  1.5834
   23MOL   H38712751   6.364   2.088   5.650 -0.5707 -1.1375  0.1365
   23MOL   H38812752   6.386   2.099   5.421 -1.7107  0.5137  1.8096
   23MOL   H38912753   6.583   1.994   5.213  1.7197  1.3513 -2.5590
   23MOL   H39012754   6.813   2.051   5.434 -0.1953  1.0620  0.6475
   23MOL   H39112755   6.797   2.026   5.693  0.2447 -1.7104 -1.0587
   23MOL   H39212756   6.708   1.893   6.026  2.4887 -0.6390  2.2029
   23MOL   H39312757   6.730   1.830   6.267  0.9585  1.9275  0.7937
   23MOL   C39412758   6.692   2.156   5.208 -0.0141 -0.2584 -0.4820
   23MOL   C39512759   6.749   2.107   5.078  0.9153  0.3812  0.2277
   23MOL   C39612760   6.671   2.025   4.997 -0.2297 -0.1314  0.1160
   23MOL   C39712761   6.725   1.961   4.880  0.7431  0.0391 -0.4402
   23MOL   C39812762   6.850   2.011   4.839 -0.3485  0.2886 -0.1650
   23MOL   C39912763   6.918   1.947   4.720 -0.4256 -0.1371  0.7389
   23MOL   N40012764   6.859   1.976   4.598 -0.4042 -0.1926 -0.2280
   23MOL   C40112765   6.911   1.968   4.463 -0.3494  0.0172 -0.7625
   23MOL   C40212766   6.854   2.048   4.361  0.0502 -0.1290  0.7219
   23MOL   C40312767   6.905   2.048   4.232 -0.0434 -0.4119  0.2385
   23MOL   C40412768   7.002   1.956   4.196 -0.4901 -0.7827 -0.3056
   23MOL   N40512769   7.069   1.960   4.078  0.2928  0.5568  0.7016
   23MOL   C40612770   7.057   1.871   4.296  0.0455 -0.9651 -0.0542
   23MOL   C40712771   7.006   1.872   4.427  0.2260  0.4395  0.0231
   23MOL   O40812772   7.013   1.868   4.729  0.2058 -0.2041 -0.1425
   23MOL   C40912773   6.930   2.101   4.919 -0.1145  0.4166  0.2679
   23MOL   C41012774   6.871   2.156   5.034  0.1702  0.2463  0.2103
   23MOL   O41112775   6.726   2.272   5.257 -0.6277  0.0443 -0.3380
   23MOL   H41212776   6.575   1.982   5.022 -0.5977  0.5714 -0.0696
   23MOL   H41312777   6.666   1.889   4.827 -1.3460  0.8848  0.6987
   23MOL   H41412778   6.780   2.039   4.600 -1.0959 -0.9892 -1.9192
   23MOL   H41512779   6.778   2.118   4.392  0.3485 -0.3310  1.9390
   23MOL   H41612780   6.853   2.112   4.162 -0.4799 -0.6173  0.3685
   23MOL   H41712781   7.114   1.875   4.047 -1.8323 -0.0337 -0.8733
   23MOL   H41812782   7.132   1.797   4.273  0.2814 -0.2104 -1.7717
   23MOL   H41912783   7.054   1.806   4.498  0.9283  2.4786  1.5113
   23MOL   H42012784   7.035   2.114   4.901  0.1595  1.1349  2.3320
   23MOL   H42112785   6.928   2.224   5.094 -0.3800  1.8768 -1.0939
   23MOL   C42212786   7.091   2.060   3.995 -0.0081 -0.2950  0.7107
   23MOL   C42312787   7.182   2.022   3.882 -0.7092  0.5253  0.0880
   23MOL   C42412788   7.279   1.916   3.899 -0.4786  0.5730  0.3736
   23MOL   C42512789   7.370   1.886   3.787  0.0668 -0.2178 -0.3040
   23MOL   C42612790   7.356   1.941   3.658  0.4306  0.0115 -0.7983
   23MOL   C42712791   7.444   1.892   3.545  0.0732  0.4481  0.0181
   23MOL   N42812792   7.449   1.962   3.435  0.5949 -0.8408  0.1196
   23MOL   C42912793   7.556   1.974   3.335  0.7082 -0.5111 -0.6539
   23MOL   C43012794   7.524   2.040   3.216  0.0451 -0.6037  0.1132
   23MOL   C43112795   7.621   2.081   3.121  0.4863 -0.0518  0.1957
   23MOL   C43212796   7.754   2.038   3.130 -0.4321 -0.2749  0.3364
   23MOL   N43312797   7.840   2.074   3.029  0.0961 -0.2692  0.0753
   23MOL   C43412798   7.788   1.960   3.249  0.1841  0.2714  0.2657
   23MOL   C43512799   7.691   1.936   3.347  0.4056  0.4440 -0.1422
   23MOL   O43612800   7.501   1.785   3.558 -0.0961 -0.1139  0.6141
   23MOL   C43712801   7.251   2.039   3.645  0.3756 -0.7525 -0.3161
   23MOL   C43812802   7.168   2.080   3.758  0.1262  0.1350 -0.6102
   23MOL   O43912803   7.044   2.175   3.994  0.9661 -0.1628  0.3932
   23MOL   H44012804   7.298   1.857   3.987  4.7180  1.5017  0.0236
   23MOL   H44112805   7.434   1.799   3.788  0.7161  0.2340 -1.2038
   23MOL   H44212806   7.375   2.029   3.426  0.4427 -0.8903  0.9667
   23MOL   H44312807   7.424   2.077   3.204 -0.4261 -2.0342 -0.4758
   23MOL   H44412808   7.587   2.138   3.036 -1.2703  0.7195  1.3764
   23MOL   H44512809   7.798   2.097   2.940  1.1977  0.8744 -0.1619
   23MOL   H44612810   7.890   1.931   3.267 -0.1380  0.2181  2.0558
   23MOL   H44712811   7.711   1.875   3.433  0.1600  0.4821 -0.0560
   23MOL   H44812812   7.219   2.088   3.555 -0.5434 -1.7993 -0.5568
   23MOL   H44912813   7.093   2.158   3.751 -1.3352 -1.3033 -1.3889
   23MOL   C45012814   7.972   2.100   3.043 -0.3995  0.2926 -0.1326
   23MOL   C45112815   8.029   2.182   2.929 -0.1861 -0.0206  0.4409
   23MOL   C45212816   8.029   2.141   2.795  0.2655 -0.5172  0.4664
   23MOL   C45312817   8.074   2.237   2.695  0.2635  0.4226 -0.6485
   23MOL   C45412818   8.092   2.374   2.730  0.2755 -0.7637  0.0503
   23MOL   C45512819   8.108   2.483   2.625  0.5749  0.2228  0.0370
   23MOL   N45612820   8.021   2.582   2.648  0.2501 -0.5775  0.8687
   23MOL   C45712821   8.014   2.701   2.576 -0.5475  0.3016 -0.4997
   23MOL   C45812822   7.986   2.822   2.641 -0.1989 -0.1486 -0.1022
   23MOL   C45912823   7.986   2.941   2.573 -0.3557  0.4124 -0.2370
   23MOL   C46012824   8.008   2.951   2.437 -0.0592 -0.2482 -0.1320
   23MOL   N46112825   7.978   3.077   2.376 -0.3067  0.5007  0.0343
   23MOL   C46212826   8.023   2.829   2.367 -0.3092 -0.2788 -0.2761
   23MOL   C46312827   8.034   2.704   2.434 -0.6424  0.6737  0.6106
   23MOL   O46412828   0.031   2.469   2.524  0.1411  0.1812 -0.0864
   23MOL   C46512829   8.116   2.408   2.867  0.0176  0.6369 -0.0872
   23MOL   C46612830   8.076   2.310   2.969 -0.4272 -0.0912 -0.0393
   23MOL   O46712831   8.035   2.084   3.148 -0.1749 -0.4335  0.0245
   23MOL   H46812832   7.982   2.053   2.754 -2.3550  0.9206  0.3136
   23MOL   H46912833   8.057   2.209   2.593  3.0026  0.4640 -1.1517
   23MOL   H47012834   7.959   2.569   2.727  0.2239 -1.3493  0.7266
   23MOL   H47112835   7.983   2.833   2.748 -0.3972 -0.9147 -0.0290
   23MOL   H47212836   7.975   3.030   2.633 -1.4079 -0.2450  0.5662
   23MOL   H47312837   7.934   3.149   2.432 -0.5120  0.9998 -0.7745
   23MOL   H47412838   8.025   2.829   2.259 -0.4972 -1.3799 -0.2858
   23MOL   H47512839   8.036   2.605   2.390  0.9493  1.3545 -0.8874
   23MOL   H47612840   0.008   2.505   2.896 -0.3372  1.1533 -1.3645
   23MOL   H47712841   8.080   2.335   3.073 -2.5978 -1.5480  0.4335
   23MOL   C47812842   8.063   3.132   2.294 -0.2205  0.4478 -0.6383
   23MOL   C47912843   8.028   3.275   2.254 -0.2094  0.3724 -0.5045
   23MOL   C48012844   7.973   3.360   2.349  0.9689 -0.3321  0.6458
   23MOL   C48112845   7.944   3.500   2.323 -0.7349 -0.0345 -0.1275
   23MOL   C48212846   7.976   3.554   2.190  0.0914  0.3430 -0.2486
   23MOL   C48312847   7.942   3.692   2.144  0.7100  0.5694  0.0223
   23MOL   N48412848   7.878   3.766   2.230  0.6482  0.3340 -0.1509
   23MOL   C48512849   7.826   3.895   2.208 -0.4855  0.1624  0.3853
   23MOL   C48612850   7.888   4.006   2.152 -0.5772 -0.3609  0.1278
   23MOL   C48712851   7.816   4.125   2.131 -0.3799  0.1163 -0.5994
   23MOL   C48812852   7.681   4.137   2.182 -1.0630 -0.1452 -0.4370
   23MOL   N48912853   7.613   4.263   2.183  0.7077 -0.0521 -0.5629
   23MOL   C49012854   7.626   4.031   2.255 -0.3237 -0.4454  0.1361
   23MOL   C49112855   7.698   3.911   2.261  0.3989  0.5917  0.0961
   23MOL   O49212856   7.961   3.718   2.023  0.0080  0.1011 -0.2871
   23MOL   C49312857   8.032   3.461   2.100 -0.3171 -0.7492 -0.1657
   23MOL   C49412858   8.055   3.326   2.125  0.4496  0.5553 -0.1695
   23MOL   O49512859   0.017   3.074   2.243  0.3062  0.2981 -0.7574
   23MOL   H49612860   7.932   3.316   2.439  1.0430 -0.5613  0.5693
   23MOL   H49712861   7.897   3.566   2.396 -0.5324  0.2795 -0.2790
   23MOL   H49812862   7.827   3.713   2.299 -2.0627  3.2467  0.1881
   23MOL   H49912863   7.986   3.993   2.108 -0.4771  1.1815 -0.1518
   23MOL   H50012864   7.869   4.214   2.103 -1.2377  0.5906 -0.7319
   23MOL   H50112865   7.675   4.339   2.208  0.6250 -0.4800  1.0383
   23MOL   H50212866   7.526   4.035   2.296 -0.2571 -1.3890  0.4035
   23MOL   H50312867   7.651   3.825   2.306 -0.9854  2.1092  1.6036
   23MOL   H50412868   8.062   3.496   2.003  0.3832 -1.2984 -0.1568
   23MOL   H50512869   8.100   3.261   2.052  0.6701  0.8453 -0.2967
   23MOL   C50612870   7.481   4.271   2.167  0.6496 -0.6345 -0.9070
   23MOL   C50712871   7.406   4.386   2.232  0.3039 -0.1031 -0.4943
   23MOL   C50812872   7.468   4.502   2.288  0.1829 -0.1458  0.1322
   23MOL   C50912873   7.390   4.604   2.347 -0.1293  0.1123  0.1316
   23MOL   C51012874   7.249   4.599   2.351  0.2543  0.1986 -0.1229
   23MOL   C51112875   7.167   4.706   2.416 -0.2280  0.0487 -0.1499
   23MOL   N51212876   7.036   4.709   2.390 -0.2141  0.3253 -0.6898
   23MOL   C51312877   6.933   4.782   2.449  0.5187 -0.3862  0.2424
   23MOL   C51412878   6.811   4.711   2.456 -0.4845 -0.6776  0.3086
   23MOL   C51512879   6.704   4.772   2.522  0.0795  0.4011  0.0754
   23MOL   C51612880   6.716   4.903   2.573  1.1939  0.4439  0.9844
   23MOL   N51712881   6.615   4.974   2.644  0.0663 -0.4538 -0.0950
   23MOL   C51812882   6.834   4.975   2.550 -0.1971 -0.0705 -0.6328
   23MOL   C51912883   6.949   4.909   2.506 -0.7192  0.1603 -0.7085
   23MOL   O52012884   7.230   4.784   2.490  0.3330 -0.0836  0.6032
   23MOL   C52112885   7.187   4.484   2.293 -0.2393 -0.1198 -0.6016
   23MOL   C52212886   7.268   4.382   2.239 -0.2696  0.0304  0.1041
   23MOL   O52312887   7.423   4.179   2.107 -0.0212  0.0156  0.0830
   23MOL   H52412888   7.576   4.501   2.289  0.1866 -0.0745 -0.0963
   23MOL   H52512889   7.437   4.693   2.386  0.9660  0.1004 -1.1173
   23MOL   H52612890   6.996   4.644   2.324 -2.0606  1.6232 -0.9005
   23MOL   H52712891   6.798   4.615   2.407 -1.3833 -0.0216 -0.7532
   23MOL   H52812892   6.612   4.715   2.519  0.5252 -0.3393  0.4026
   23MOL   H52912893   6.634   5.068   2.676 -0.1287 -0.0878 -1.0563
   23MOL   H53012894   6.844   5.073   2.596  2.5303 -0.2630 -0.7312
   23MOL   H53112895   7.039   4.966   2.495 -0.1923 -0.6918 -0.8989
   23MOL   H53212896   7.081   4.462   2.300  0.1787 -1.4376  2.4891
   23MOL   H53312897   7.216   4.299   2.194 -2.7418 -0.1622  3.1307
   23MOL   C53412898   6.494   4.931   2.689 -0.9674  0.8493  0.5794
   23MOL   C53512899   6.425   5.038   2.765 -0.7419 -0.3564 -0.4951
   23MOL   C53612900   6.400   5.020   2.901  0.3524  0.4157 -0.1508
   23MOL   C53712901   6.375   5.127   2.986  0.1593 -0.5730  1.1422
   23MOL   C53812902   6.365   5.260   2.931 -0.6145 -0.2017  0.2977
   23MOL   C53912903   6.368   5.385   3.015  0.2228  0.3148 -0.7556
   23MOL   N54012904   6.302   5.492   2.967 -0.2775  0.2818 -0.4266
   23MOL   C54112905   6.321   5.632   2.992 -0.1368  0.5881 -0.2284
   23MOL   C54212906   6.230   5.718   2.931  0.0171  0.4301 -0.0326
   23MOL   C54312907   6.234   5.859   2.947 -0.2568  0.1624 -0.0706
   23MOL   C54412908   6.331   5.920   3.026 -0.5446  0.5869 -0.1906
   23MOL   N54512909   6.326   6.059   3.040  0.1023 -0.5443 -0.1160
   23MOL   C54612910   6.427   5.831   3.080  0.3463 -0.1024 -0.2901
   23MOL   C54712911   6.422   5.691   3.067  0.1532 -0.4209  0.2306
   23MOL   O54812912   6.409   5.382   3.131 -0.5646 -0.1019  0.2404
   23MOL   C54912913   6.362   5.279   2.792  0.1354 -0.2633  0.2485
   23MOL   C55012914   6.400   5.168   2.706  0.4331 -0.4859  0.2625
   23MOL   O55112915   6.445   4.822   2.666  0.0706  0.1626  0.0214
   23MOL   H55212916   6.425   4.921   2.939  1.2051 -0.3754 -2.6871
   23MOL   H55312917   6.376   5.112   3.093  2.4322 -0.0376  1.2277
   23MOL   H55412918   6.239   5.470   2.890 -1.3639  2.8745 -0.3372
   23MOL   H55512919   6.156   5.681   2.863 -0.1610  0.2315  0.2684
   23MOL   H55612920   6.166   5.921   2.889 -1.7604  0.6737  2.1919
   23MOL   H55712921   6.404   6.101   3.089  0.3841 -0.7473 -0.3864
   23MOL   H55812922   6.504   5.870   3.145 -0.7977 -2.1549  2.3627
   23MOL   H55912923   6.491   5.629   3.122 -1.0371 -0.9269  1.1652
   23MOL   H56012924   6.361   5.383   2.763  3.3477 -0.3154 -0.2293
   23MOL   H56112925   6.414   5.181   2.600  0.5762  0.3918  0.3888
   23MOL   H56212926   6.255   6.115   2.994 -0.5889 -0.6589  0.7963
   24MOL     C112927   4.237   5.928   0.979 -0.4131 -0.7193  0.2132
   24MOL     C212928   4.189   5.867   0.864  0.4863 -0.2721 -0.1611
   24MOL     C312929   4.147   5.954   0.760 -0.8818  0.0001  0.0168
   24MOL     C412930   4.116   5.902   0.629  0.7869 -0.2389  0.4233
   24MOL     C512931   4.126   5.763   0.603  0.7602  0.1400 -0.2526
   24MOL     C612932   4.078   5.699   0.472 -0.4060  0.3619 -0.1290
   24MOL     N712933   4.099   5.777   0.366  0.7729  0.4461 -0.2138
   24MOL     C812934   4.084   5.736   0.230 -0.9580  0.4508 -0.9170
   24MOL     C912935   4.196   5.736   0.137  0.4451  0.1374  0.0045
   24MOL    C1012936   4.168   5.721   0.003 -0.1843  0.4340 -0.2493
   24MOL    C1112937   4.038   5.695   8.103  0.6070 -0.4612 -0.0879
   24MOL    N1212938   4.027   5.676   7.966 -0.4554  0.0847  0.5891
   24MOL    C1312939   3.924   5.693   0.048  0.0379 -0.1973 -0.5108
   24MOL    C1412940   3.950   5.717   0.185  0.8794 -0.7521 -0.2366
   24MOL    O1512941   4.041   5.583   0.474 -0.4929  0.6531 -0.1526
   24MOL    C1612942   4.163   5.675   0.710  0.2743  0.0792 -0.0617
   24MOL    C1712943   4.194   5.730   0.835  0.1959 -0.6339 -0.5036
   24MOL    O1812944   4.286   5.871   1.080 -0.0558  0.4590  0.8600
   24MOL    H1912945   4.151   6.062   0.764  0.0955 -0.0590  1.0517
   24MOL    H2012946   4.091   5.971   0.550  2.1593 -0.6021 -0.3459
   24MOL    H2112947   4.154   5.858   0.387 -1.6486  2.1906 -0.4371
   24MOL    H2212948   4.298   5.751   0.170  0.2537 -0.9931  1.1335
   24MOL    H2312949   4.250   5.736   8.081 -0.7474 -0.5727 -1.1818
   24MOL    H2412950   4.111   5.687   7.911 -0.6904 -1.1843 -0.0496
   24MOL    H2512951   3.821   5.688   0.017  0.2465 -1.9450 -0.9779
   24MOL    H2612952   3.875   5.726   0.263 -0.2435 -0.1906 -1.3585
   24MOL    H2712953   4.174   5.568   0.698  1.3914  0.2588 -0.7740
   24MOL    H2812954   4.217   5.663   0.917 -0.1835 -0.7107 -0.4583
   24MOL    H2912955   4.254   6.035   0.968  0.6221 -0.6835  1.9136
   24MOL    C3012956   3.932   5.609   7.897  0.7036  0.2043 -0.1087
   24MOL    C3112957   3.960   5.608   7.748  0.1546 -0.1881 -0.1211
   24MOL    C3212958   4.077   5.648   7.683  0.1089  0.8682 -0.2357
   24MOL    C3312959   4.095   5.637   7.544 -0.7181  0.2081  0.2391
   24MOL    C3412960   3.991   5.586   7.462 -0.8093 -0.2639 -0.3241
   24MOL    C3512961   4.012   5.577   7.310  0.3500  0.0358 -0.0296
   24MOL    N3612962   3.897   5.573   7.244  0.6154  0.4804 -0.4104
   24MOL    C3712963   3.873   5.553   7.108  0.3445 -0.0754 -0.1043
   24MOL    C3812964   3.740   5.520   7.078 -0.6391  0.1068  0.8352
   24MOL    C3912965   3.692   5.522   6.943  0.0058  0.5719 -0.7059
   24MOL    C4012966   3.783   5.557   6.842  0.1636 -0.2734 -0.3906
   24MOL    N4112967   3.737   5.577   6.709 -0.2406  0.0978 -0.4766
   24MOL    C4212968   3.918   5.582   6.874  0.6391  0.3118 -0.3168
   24MOL    C4312969   3.962   5.585   7.009 -0.0620 -0.3188 -0.3248
   24MOL    O4412970   4.128   5.593   7.271  0.1913 -0.5009 -0.1915
   24MOL    C4512971   3.873   5.542   7.525 -0.2677  0.4198  0.2840
   24MOL    C4612972   3.859   5.551   7.664  0.0348 -0.3496 -0.7510
   24MOL    O4712973   3.834   5.564   7.950 -0.9659  0.2671  0.1926
   24MOL    H4812974   4.158   5.693   7.739 -0.0072 -0.7102  1.2516
   24MOL    H4912975   4.189   5.668   7.502 -0.0757  0.5495  1.8851
   24MOL    H5012976   3.815   5.584   7.303 -0.4561 -1.0619 -1.5569
   24MOL    H5112977   3.668   5.508   7.158 -3.3518 -0.2924 -1.5523
   24MOL    H5212978   3.585   5.518   6.929  0.1187  1.9811 -2.0738
   24MOL    H5312979   3.804   5.602   6.637  2.2040  0.4156  1.8131
   24MOL    H5412980   3.983   5.602   6.790  1.0325  3.1450  0.6297
   24MOL    H5512981   4.065   5.605   7.035  0.3223 -2.1742 -0.3310
   24MOL    H5612982   3.795   5.496   7.464  0.8295  0.4656 -1.1766
   24MOL    H5712983   3.775   5.512   7.719  0.3938  0.4435  0.3942
   24MOL    C5812984   3.618   5.573   6.660 -0.4143  1.0173  0.0780
   24MOL    C5912985   3.616   5.618   6.519  0.0559 -0.1319 -0.0310
   24MOL    C6012986   3.677   5.546   6.416 -0.5003  0.2153  0.5967
   24MOL    C6112987   3.672   5.591   6.285 -0.2618 -0.4925  0.1657
   24MOL    C6212988   3.605   5.713   6.256  0.2654 -0.4867  1.0382
   24MOL    C6312989   3.581   5.764   6.112 -0.7871  0.6320  0.3640
   24MOL    N6412990   3.496   5.859   6.089  0.1696 -0.7839 -0.7188
   24MOL    C6512991   3.450   5.915   5.963  0.3711  0.1366  0.3129
   24MOL    C6612992   3.373   6.034   5.964  0.1370  0.3913 -0.3269
   24MOL    C6712993   3.312   6.086   5.842 -0.3928 -0.5834 -0.1409
   24MOL    C6812994   3.345   6.027   5.715  0.1369 -0.6056  0.9410
   24MOL    N6912995   3.286   6.077   5.590 -0.7487 -0.0191  0.0520
   24MOL    C7012996   3.422   5.908   5.715  0.1918 -0.3721  0.3326
   24MOL    C7112997   3.483   5.863   5.834 -0.3638 -0.1399  0.4640
   24MOL    O7212998   3.641   5.702   6.024 -0.5892 -0.6280 -0.1513
   24MOL    C7312999   3.543   5.785   6.358 -0.3709  0.2295 -0.3285
   24MOL    C7413000   3.541   5.732   6.491 -0.2223 -0.4482 -0.2568
   24MOL    O7513001   3.516   5.529   6.716 -0.1151  0.0329 -0.1709
   24MOL    H7613002   3.721   5.448   6.433 -0.4299 -0.4091 -2.8822
   24MOL    H7713003   3.703   5.526   6.205 -0.8780 -0.0653 -0.4244
   24MOL    H7813004   3.452   5.899   6.171 -1.0601  0.1521 -1.8110
   24MOL    H7913005   3.360   6.081   6.060 -3.3512  1.8460 -1.4166
   24MOL    H8013006   3.255   6.178   5.840 -1.3671 -1.1997 -1.1617
   24MOL    H8113007   3.362   6.081   5.524 -0.5824 -1.4634  0.1239
   24MOL    H8213008   3.450   5.874   5.616 -2.1428  1.1523 -0.9101
   24MOL    H8313009   3.543   5.774   5.822  1.6643  1.4566 -2.0100
   24MOL    H8413010   3.478   5.869   6.336 -0.2689  0.4552  0.2206
   24MOL    H8513011   3.483   5.775   6.572 -0.2087  1.1786 -1.0837
   24MOL    C8613012   3.156   6.076   5.558  0.0769 -0.3317  0.5537
   24MOL    C8713013   3.119   6.099   5.416 -0.0271 -0.2976  0.5219
   24MOL    C8813014   3.001   6.168   5.390 -0.8172  0.6010  0.4979
   24MOL    C8913015   2.959   6.196   5.265  0.2712  0.6411 -0.1837
   24MOL    C9013016   3.048   6.162   5.162  0.8682 -0.1417  0.0954
   24MOL    C9113017   3.011   6.193   5.021  0.3399 -0.1592 -0.3463
   24MOL    N9213018   2.929   6.300   5.011 -0.1890 -0.0229  0.7719
   24MOL    C9313019   2.885   6.361   4.886  0.0817 -0.4952 -0.5755
   24MOL    C9413020   2.797   6.469   4.891  0.1649  0.5975 -0.3190
   24MOL    C9513021   2.738   6.527   4.776 -0.2404  1.2120 -0.1564
   24MOL    C9613022   2.769   6.477   4.649 -0.1050  0.5073  0.8041
   24MOL    N9713023   2.721   6.537   4.526 -0.4390 -0.6773 -0.2577
   24MOL    C9813024   2.856   6.367   4.634 -0.7443 -0.4187  0.5540
   24MOL    C9913025   2.912   6.311   4.752 -0.5895 -0.0591 -0.2652
   24MOL   O10013026   3.065   6.135   4.930 -0.6461 -0.5643 -0.1710
   24MOL   C10113027   3.165   6.088   5.183  0.6242 -0.3401 -0.0312
   24MOL   C10213028   3.205   6.057   5.312  0.1734 -0.9229 -0.3731
   24MOL   O10313029   3.063   6.069   5.645  0.1845 -0.0535 -0.1226
   24MOL   H10413030   2.951   6.214   5.473 -2.0164 -1.5640  0.9958
   24MOL   H10513031   2.863   6.243   5.246  0.2867  0.3069 -1.1666
   24MOL   H10613032   2.902   6.326   5.105  2.0643  0.9122  1.1976
   24MOL   H10713033   2.750   6.494   4.985 -0.1701 -0.0550 -0.3159
   24MOL   H10813034   2.662   6.603   4.783 -0.2278  1.0169  2.5284
   24MOL   H10913035   2.731   6.470   4.451 -3.6516 -1.2577 -0.2281
   24MOL   H11013036   2.881   6.333   4.535 -1.3895 -0.3703  0.3699
   24MOL   H11113037   2.967   6.220   4.738  2.0016  0.9134  2.8380
   24MOL   H11213038   3.225   6.060   5.098 -1.0839 -2.5776 -0.5138
   24MOL   H11313039   3.302   6.015   5.335  0.3630  1.3871  3.5429
   24MOL   C11413040   2.690   6.660   4.492 -0.9637 -0.6179 -0.2229
   24MOL   C11513041   2.696   6.768   4.593 -0.0622 -0.3502 -0.0953
   24MOL   C11613042   2.813   6.803   4.664 -0.3704  0.2929 -0.0131
   24MOL   C11713043   2.810   6.911   4.761 -0.3068 -0.7826 -0.2488
   24MOL   C11813044   2.693   6.991   4.776  1.0339  0.4670 -0.2418
   24MOL   C11913045   2.681   7.111   4.867  0.2481  0.5096  0.2063
   24MOL   N12013046   2.760   7.113   4.977 -0.1054 -0.1551 -0.5720
   24MOL   C12113047   2.752   7.211   5.080 -0.0060 -0.2925  0.0933
   24MOL   C12213048   2.870   7.239   5.147  0.6395 -0.1867 -0.0381
   24MOL   C12313049   2.880   7.330   5.253 -0.1491 -0.3395  0.5211
   24MOL   C12413050   2.765   7.401   5.293  0.2432 -0.1620 -0.3413
   24MOL   N12513051   2.779   7.508   5.383  0.6302  0.4017  0.0221
   24MOL   C12613052   2.641   7.363   5.232  0.3555  0.3473  0.7816
   24MOL   C12713053   2.634   7.276   5.122  0.1229 -0.1089  0.1533
   24MOL   O12813054   2.593   7.192   4.844  0.7852 -0.2445  0.1519
   24MOL   C12913055   2.586   6.963   4.692  0.3277  0.5303 -0.3337
   24MOL   C13013056   2.581   6.849   4.608  0.2511  0.2551  0.2379
   24MOL   O13113057   2.664   6.680   4.376 -0.2541 -0.2192 -0.5466
   24MOL   H13213058   2.910   6.757   4.649  0.1625  1.0121  1.1467
   24MOL   H13313059   2.893   6.941   4.823 -0.7408  0.0700 -0.0845
   24MOL   H13413060   2.824   7.035   4.978  0.1354 -0.0286 -2.7770
   24MOL   H13513061   2.958   7.198   5.099 -0.3332 -0.0239 -1.9978
   24MOL   H13613062   2.973   7.360   5.298  0.0070 -1.4459  0.9562
   24MOL   H13713063   2.851   7.577   5.367  0.9674  0.7985  2.9999
   24MOL   H13813064   2.551   7.419   5.250  0.2214  0.4351 -0.1311
   24MOL   H13913065   2.541   7.266   5.068  1.9129 -1.1888 -2.8531
   24MOL   H14013066   2.499   7.027   4.699  0.9802  1.6438 -1.8755
   24MOL   H14113067   2.499   6.824   4.542  1.7540  0.5023 -1.7607
   24MOL   C14213068   2.732   7.502   5.511 -0.6986  0.0216 -0.6196
   24MOL   C14313069   2.809   7.563   5.628 -0.3150 -0.0375 -0.7550
   24MOL   C14413070   2.749   7.649   5.722  0.5406 -0.2162  0.1455
   24MOL   C14513071   2.818   7.705   5.837  0.0642  0.6433 -0.0335
   24MOL   C14613072   2.954   7.678   5.847  0.0584 -0.2989 -0.9416
   24MOL   C14713073   3.034   7.733   5.968 -0.0076  0.3094  0.4531
   24MOL   N14813074   3.154   7.766   5.941 -0.2690 -0.0773 -0.2906
   24MOL   C14913075   3.250   7.808   6.030 -0.1988  0.6066 -0.4094
   24MOL   C15013076   3.359   7.878   5.976 -0.1419 -0.2402 -0.3050
   24MOL   C15113077   3.465   7.927   6.060  0.0378 -0.1561 -0.8202
   24MOL   C15213078   3.463   7.890   6.194  0.1001 -0.3534 -0.0556
   24MOL   N15313079   3.568   7.928   6.287 -0.0070  0.2245 -0.2370
   24MOL   C15413080   3.357   7.813   6.250  0.2489  0.6463  0.5490
   24MOL   C15513081   3.246   7.774   6.169  0.2745  0.3789  0.7597
   24MOL   O15613082   2.980   7.742   6.080  0.2822  0.6684 -0.5980
   24MOL   C15713083   3.017   7.585   5.757  0.0689 -0.6130 -0.3410
   24MOL   C15813084   2.946   7.531   5.649  0.5398 -0.1729 -0.0735
   24MOL   O15913085   2.617   7.460   5.528  0.7234  0.2148 -0.1316
   24MOL   H16013086   2.646   7.673   5.703 -0.1271 -1.3791  2.1574
   24MOL   H16113087   2.763   7.768   5.906 -1.2599  0.1261 -0.5880
   24MOL   H16213088   3.196   7.753   5.849  1.9226 -1.5424  0.8648
   24MOL   H16313089   3.359   7.916   5.875  0.7506  1.4494  0.3192
   24MOL   H16413090   3.542   7.992   6.021 -0.1928  1.3614  1.1549
   24MOL   H16513091   3.569   7.869   6.368  1.9721 -1.4415 -1.4163
   24MOL   H16613092   3.351   7.789   6.355  0.8523 -1.9382  0.0323
   24MOL   H16713093   3.163   7.725   6.219  1.4072  0.1425  2.4512
   24MOL   H16813094   3.120   7.563   5.782  1.3176  3.4348 -1.5225
   24MOL   H16913095   2.992   7.458   5.584 -0.4655 -1.1964  0.3385
   24MOL   C17013096   3.655   8.033   6.280  0.1601 -0.4696 -0.6198
   24MOL   C17113097   3.735   8.060   6.404 -0.4535 -0.4013  0.0357
   24MOL   C17213098   3.788   0.045   6.424 -0.1335  0.5110  0.2209
   24MOL   C17313099   3.857   0.070   6.544  0.2273 -0.1661  0.3306
   24MOL   C17413100   3.881   8.124   6.641 -0.1978  0.2301 -0.3876
   24MOL   C17513101   3.958   0.021   6.763  0.1363 -0.2425 -0.8492
   24MOL   N17613102   4.061   8.088   6.794 -0.7021 -0.0122  0.0386
   24MOL   C17713103   4.170   8.106   6.874  0.0097  0.2897 -0.1636
   24MOL   C17813104   4.272   8.012   6.852 -0.0583  0.1936  0.6392
   24MOL   C17913105   4.394   8.032   6.915 -0.2281  0.3075 -0.1199
   24MOL   C18013106   4.420   0.000   6.992  0.6096 -0.4241  0.1221
   24MOL   N18113107   4.547   0.044   7.032 -0.5566  0.4874 -0.3938
   24MOL   C18213108   4.317   0.090   7.016  0.2717 -0.4889  0.8826
   24MOL   C18313109   4.191   0.068   6.962  0.4552 -0.1361 -0.4137
   24MOL   O18413110   3.936   0.125   6.821 -0.0303 -0.1972 -0.0152
   24MOL   C18513111   3.826   7.999   6.627 -0.1020 -0.0664 -0.0922
   24MOL   C18613112   3.747   7.969   6.514  0.2361  0.3901 -0.5556
   24MOL   O18713113   3.666   8.109   6.180 -0.0976 -0.6658 -0.3930
   24MOL   H18813114   3.787   0.119   6.346  0.6551 -2.0148 -2.2685
   24MOL   H18913115   3.896   0.171   6.548 -0.3724  0.0899 -0.2841
   24MOL   H19013116   4.079   8.014   6.728  2.2897  1.7732 -1.2619
   24MOL   H19113117   4.257   7.924   6.792  1.4823 -1.2208  2.2342
   24MOL   H19213118   4.477   7.966   6.894 -0.4152 -0.3291  1.1421
   24MOL   H19313119   4.551   0.124   7.094 -0.1067 -0.6756  1.1259
   24MOL   H19413120   4.338   0.172   7.084 -0.7484  0.1202  0.4834
   24MOL   H19513121   4.114   0.141   6.983  1.6854  1.6474 -1.9105
   24MOL   H19613122   3.851   7.921   6.697 -0.0123  0.6567  0.6956
   24MOL   H19713123   3.708   7.868   6.504 -1.6702  1.2682 -2.4477
   24MOL   C19813124   4.670   8.139   6.999  0.6109 -0.8880  0.6349
   24MOL   C19913125   4.783   0.088   7.029  0.0537 -0.3890  0.3707
   24MOL   C20013126   4.910   0.056   6.974  0.5874  0.1675  0.3231
   24MOL   C20113127   5.027   0.128   7.005  0.0138 -0.2428 -0.0718
   24MOL   C20213128   5.012   0.252   7.076  0.3225  0.0421  0.1407
   24MOL   C20313129   5.120   0.363   7.067  0.2011 -0.1139 -0.4453
   24MOL   N20413130   5.238   0.320   7.031 -0.4386  0.3398  0.0714
   24MOL   C20513131   5.354   0.397   6.996 -0.0762  0.2597  0.7273
   24MOL   C20613132   5.368   0.534   7.028 -1.0928  0.7393  0.2203
   24MOL   C20713133   5.483   0.604   6.994  0.2055 -0.0873  0.6166
   24MOL   C20813134   5.592   0.540   6.924  0.0909  0.4000 -0.0437
   24MOL   N20913135   5.713   0.615   6.885  0.1336  0.3666  0.2861
   24MOL   C21013136   5.574   0.404   6.891 -0.0855  0.2629  0.1869
   24MOL   C21113137   5.453   0.330   6.922 -0.1124 -0.3767 -0.1701
   24MOL   O21213138   5.084   0.479   7.082 -0.5217  0.5321  0.1148
   24MOL   C21313139   4.889   0.279   7.136  0.4712 -0.5473 -0.1202
   24MOL   C21413140   4.772   0.196   7.118  0.0685  0.3855 -0.0034
   24MOL   O21513141   4.689   8.024   6.958  0.2883 -0.2252  0.0669
   24MOL   H21613142   4.907   8.127   6.896 -0.6897  0.8082 -0.2591
   24MOL   H21713143   5.123   0.097   6.967 -0.1782  0.0995 -0.8402
   24MOL   H21813144   5.241   0.219   7.025 -0.7849  0.3640 -0.5438
   24MOL   H21913145   5.291   0.591   7.078 -2.0668 -0.6493  0.3299
   24MOL   H22013146   5.486   0.708   7.023 -1.5255  0.0664  0.3142
   24MOL   H22113147   5.783   0.548   6.855 -1.3874 -1.0139 -0.2530
   24MOL   H22213148   5.650   0.355   6.833  1.0871  1.0307  1.0624
   24MOL   H22313149   5.450   0.226   6.894 -1.9865 -0.1087 -1.0293
   24MOL   H22413150   4.864   0.363   7.198 -0.0942 -1.7095  1.2503
   24MOL   H22513151   4.683   0.226   7.171  0.9612  1.4201  0.9316
   24MOL   C22613152   5.747   0.740   6.887 -0.1718  0.1031 -0.1189
   24MOL   C22713153   5.884   0.777   6.835 -0.8388  0.1456 -0.4212
   24MOL   C22813154   5.972   0.854   6.916  0.2836  0.3149 -0.3533
   24MOL   C22913155   6.106   0.862   6.874  0.2504  0.9153 -0.0863
   24MOL   C23013156   6.148   0.809   6.751 -0.0181 -0.0900  0.6549
   24MOL   C23113157   6.291   0.821   6.715 -0.6125  0.1524 -0.5719
   24MOL   N23213158   6.366   0.711   6.692  0.2349 -0.1023 -0.6289
   24MOL   C23313159   6.332   0.578   6.696 -0.1281 -0.5648  0.5108
   24MOL   C23413160   6.390   0.493   6.601  0.0277 -1.0362 -1.0035
   24MOL   C23513161   6.358   0.356   6.595 -0.7127 -0.2771 -0.0326
   24MOL   C23613162   6.264   0.301   6.685 -0.1340  0.0288  0.1392
   24MOL   N23713163   6.230   0.163   6.677  0.3719 -0.1247  0.1125
   24MOL   C23813164   6.207   0.380   6.788 -0.4269  0.1348  0.5182
   24MOL   C23913165   6.247   0.517   6.793 -0.8737  0.2399  0.5188
   24MOL   O24013166   6.343   0.935   6.705 -0.0327 -0.5551 -0.6551
   24MOL   C24113167   6.062   0.739   6.663 -0.0142  0.5336  0.9382
   24MOL   C24213168   5.931   0.717   6.712 -0.2827 -0.0803 -0.1091
   24MOL   O24313169   5.678   0.829   6.941 -0.1894  0.4021  0.4913
   24MOL   H24413170   5.942   0.895   7.011 -2.8366 -0.5364 -0.8928
   24MOL   H24513171   6.182   0.899   6.941  0.7772 -1.1214  0.4592
   24MOL   H24613172   6.453   0.731   6.644  1.8528  0.3925  2.3674
   24MOL   H24713173   6.450   0.546   6.529 -1.9701  0.4435 -1.6231
   24MOL   H24813174   6.397   0.284   6.525 -0.9671 -1.7953  1.3775
   24MOL   H24913175   6.212   0.121   6.768 -0.4914  1.4500  0.6810
   24MOL   H25013176   6.150   0.339   6.870 -0.7826  0.7518  0.5823
   24MOL   H25113177   6.201   0.588   6.861  0.0648  0.0213  1.3861
   24MOL   H25213178   6.095   0.696   6.570  1.0499 -3.5984  3.1104
   24MOL   H25313179   5.865   0.649   6.659 -0.5284  0.6372 -0.7276
   24MOL   C25413180   6.243   0.071   6.582  0.4964 -0.1084 -0.3297
   24MOL   C25513181   6.234   8.074   6.627 -0.6844  0.0896 -0.0354
   24MOL   C25613182   6.312   7.981   6.558 -0.5407  0.0366  0.0552
   24MOL   C25713183   6.315   7.846   6.597  0.1456  0.0752  0.4992
   24MOL   C25813184   6.235   7.805   6.707  0.0807 -0.0018  0.5261
   24MOL   C25913185   6.224   7.663   6.758 -0.2470 -0.4481 -0.2610
   24MOL   N26013186   6.280   7.569   6.683 -0.0406  0.4009  0.1363
   24MOL   C26113187   6.322   7.440   6.712  0.2886 -0.3110 -1.0397
   24MOL   C26213188   6.400   7.378   6.613 -0.0506  0.5282 -0.7375
   24MOL   C26313189   6.445   7.246   6.626 -1.5121 -0.1649 -0.4164
   24MOL   C26413190   6.422   7.181   6.749 -0.3299  0.1672  0.6801
   24MOL   N26513191   6.488   7.062   6.793 -0.5258 -0.3081  0.4954
   24MOL   C26613192   6.343   7.237   6.853  1.1106 -1.0661 -0.1180
   24MOL   C26713193   6.289   7.369   6.834  0.3472 -0.5593 -0.1171
   24MOL   O26813194   6.176   7.643   6.868 -0.8242  0.0061 -0.2850
   24MOL   C26913195   6.166   7.907   6.779 -0.0979  0.4728 -0.6936
   24MOL   C27013196   6.157   8.036   6.739 -0.2604 -0.0834 -0.8340
   24MOL   O27113197   6.244   0.102   6.465  0.2141 -0.0222  0.2247
   24MOL   H27213198   6.369   8.017   6.473 -0.4448 -2.2591 -0.8917
   24MOL   H27313199   6.379   7.772   6.552  0.9232 -0.0777  1.8328
   24MOL   H27413200   6.313   7.601   6.593 -0.2544  3.2089  0.9928
   24MOL   H27513201   6.416   7.433   6.521 -3.2019  1.5612 -0.7361
   24MOL   H27613202   6.508   7.204   6.549 -0.2944 -0.2189  0.5929
   24MOL   H27713203   6.549   7.075   6.873 -0.1934  0.2130  0.1581
   24MOL   H27813204   6.326   7.188   6.948  3.0470 -0.4927  0.5565
   24MOL   H27913205   6.221   7.415   6.903  1.3109 -0.6048  0.8751
   24MOL   H28013206   6.114   7.880   6.870  1.3159 -0.2842 -0.0885
   24MOL   H28113207   6.099   8.110   6.793 -1.6772 -1.8301  0.1132
   24MOL   C28213208   6.507   6.950   6.719  0.7480 -0.0580 -0.3016
   24MOL   C28313209   6.412   6.922   6.604 -0.2195  0.1663  0.3505
   24MOL   C28413210   6.277   6.924   6.626  0.1660  0.2411 -0.0372
   24MOL   C28513211   6.182   6.899   6.524  0.2391  0.0411 -0.0433
   24MOL   C28613212   6.227   6.872   6.396 -0.6383 -0.1513  0.4984
   24MOL   C28713213   6.129   6.854   6.282 -0.5603  0.1159 -1.0082
   24MOL   N28813214   6.039   6.958   6.265 -0.1420  0.2779  0.4146
   24MOL   C28913215   6.031   7.087   6.325 -0.2357  0.2703 -0.5440
   24MOL   C29013216   6.141   7.173   6.356 -0.3901 -0.2610 -0.5548
   24MOL   C29113217   6.119   7.307   6.413  0.3214  0.3217 -0.0986
   24MOL   C29213218   5.991   7.357   6.406  0.8296 -0.2730  0.0353
   24MOL   N29313219   5.967   7.498   6.437  0.1575 -0.3747 -0.1124
   24MOL   C29413220   5.883   7.271   6.378 -0.3485 -0.0058 -0.5615
   24MOL   C29513221   5.896   7.140   6.341 -0.5531  0.1120  0.2016
   24MOL   O29613222   6.134   6.761   6.203  0.4227  0.5465 -0.5488
   24MOL   C29713223   6.369   6.871   6.363  0.2741  0.1426 -0.3410
   24MOL   C29813224   6.456   6.893   6.471 -0.0693  0.4538 -0.1467
   24MOL   O29913225   6.586   6.865   6.754  0.1414  0.4976 -0.0808
   24MOL   H30013226   6.234   6.952   6.720 -0.0885 -0.1221 -0.0431
   24MOL   H30113227   6.076   6.907   6.545  0.2408  2.3636 -0.7303
   24MOL   H30213228   5.971   6.945   6.191  0.5160 -0.4427 -0.0762
   24MOL   H30313229   6.240   7.130   6.347 -0.3892 -0.8559  1.8759
   24MOL   H30413230   6.207   7.360   6.444  0.7732 -0.5387  0.1169
   24MOL   H30513231   5.871   7.527   6.435  0.6148  1.1518 -0.8489
   24MOL   H30613232   5.786   7.317   6.391  0.0759  0.6742  0.2004
   24MOL   H30713233   5.811   7.085   6.303 -0.7125  1.4177 -1.3810
   24MOL   H30813234   6.408   6.858   6.263  0.5485 -2.8707  0.1131
   24MOL   H30913235   6.562   6.900   6.453  0.0160  0.8459  0.4764
   24MOL   C31013236   6.052   7.605   6.437  0.8430 -0.2027  0.0144
   24MOL   C31113237   5.979   7.735   6.465  0.2993  0.2236 -0.3709
   24MOL   C31213238   5.848   7.739   6.515  1.1443 -0.1756  0.5591
   24MOL   C31313239   5.803   7.862   6.571  0.6169  0.0503 -0.7021
   24MOL   C31413240   5.863   7.985   6.530  0.8096  0.1188  0.5012
   24MOL   C31513241   5.795   8.120   6.556 -0.2088  0.3053 -0.1040
   24MOL   N31613242   5.807   0.072   6.460  0.2269  0.4213 -0.1966
   24MOL   C31713243   5.754   0.207   6.471  0.1953 -0.5404  0.3053
   24MOL   C31813244   5.630   0.246   6.527 -0.4196 -0.2957  0.1222
   24MOL   C31913245   5.589   0.376   6.528 -0.5595 -0.6149  0.4943
   24MOL   C32013246   5.679   0.477   6.496 -0.3788  0.1069 -0.0759
   24MOL   N32113247   5.651   0.617   6.491 -0.0703  0.4407 -0.0538
   24MOL   C32213248   5.806   0.447   6.450 -0.6998 -0.6716  0.0548
   24MOL   C32313249   5.843   0.309   6.431  0.3359 -0.4196 -0.4334
   24MOL   O32413250   5.737   8.126   6.663  1.1265 -0.3352 -0.2128
   24MOL   C32513251   5.977   7.975   6.452 -0.3976  0.2232  0.3396
   24MOL   C32613252   6.042   7.854   6.429 -0.1123 -0.1337  0.1435
   24MOL   O32713253   6.174   7.608   6.420 -0.4405  0.2852  0.5461
   24MOL   H32813254   5.795   7.655   6.559 -2.6771  1.1953 -1.1859
   24MOL   H32913255   5.715   7.859   6.634 -0.1645  1.5995 -1.7083
   24MOL   H33013256   5.855   0.049   6.374  1.6719  3.3014 -0.2174
   24MOL   H33113257   5.558   0.171   6.555 -0.8692 -0.5205 -1.5764
   24MOL   H33213258   5.490   0.395   6.569 -0.0601 -0.1890  1.5274
   24MOL   H33313259   5.712   0.672   6.432  0.3028 -0.4087 -0.4744
   24MOL   H33413260   5.882   0.518   6.420 -0.7709 -0.4360  0.4238
   24MOL   H33513261   5.938   0.289   6.384 -0.7004 -2.4124 -1.7739
   24MOL   H33613262   6.036   8.062   6.426  2.1777 -1.7317 -0.6832
   24MOL   H33713263   6.138   7.857   6.378 -0.1078 -0.5178  0.1257
   24MOL   C33813264   5.562   0.683   6.563 -0.3351 -0.5299  0.6291
   24MOL   C33913265   5.559   0.832   6.543  0.0741  0.1478  0.2415
   24MOL   C34013266   5.677   0.906   6.519  0.1468 -0.2935  0.7448
   24MOL   C34113267   5.673   1.044   6.505  0.6087 -0.4471  0.7203
   24MOL   C34213268   5.545   1.112   6.505  0.2554 -0.1590 -0.0344
   24MOL   C34313269   5.541   1.257   6.477 -0.4755  0.2225 -0.1520
   24MOL   N34413270   5.421   1.315   6.498 -0.3073  0.0084 -0.3736
   24MOL   C34513271   5.385   1.450   6.473 -0.9925 -0.2459 -0.2911
   24MOL   C34613272   5.273   1.502   6.540 -0.4451  0.2470  0.9970
   24MOL   C34713273   5.225   1.634   6.510 -0.6736 -0.2713  0.5504
   24MOL   C34813274   5.292   1.709   6.412 -0.9204 -0.4954  0.5701
   24MOL   N34913275   5.252   1.835   6.377 -0.2637  0.5463 -0.0090
   24MOL   C35013276   5.414   1.666   6.364  0.1388 -0.5298 -0.2191
   24MOL   C35113277   5.459   1.538   6.392 -0.9689 -0.7354  0.5815
   24MOL   O35213278   5.643   1.324   6.442 -0.6021  0.2845  0.2267
   24MOL   C35313279   5.430   1.036   6.527 -0.1623  0.0554 -0.2749
   24MOL   C35413280   5.440   0.897   6.547  0.5545  0.3655 -0.5043
   24MOL   O35513281   5.487   0.631   6.643 -0.0876  0.1291 -0.4280
   24MOL   H35613282   5.772   0.856   6.527 -0.0470 -0.6368  0.9084
   24MOL   H35713283   5.766   1.100   6.505  0.4590 -0.1792  1.6857
   24MOL   H35813284   5.354   1.258   6.547  0.5258 -0.2284  0.4963
   24MOL   H35913285   5.209   1.440   6.602  0.9703 -0.7600  1.4724
   24MOL   H36013286   5.128   1.661   6.547 -1.3087 -0.9523 -0.5885
   24MOL   H36113287   5.255   1.863   6.280  0.2793  2.2123  0.4676
   24MOL   H36213288   5.465   1.742   6.305  1.5818  0.1018  1.8057
   24MOL   H36313289   5.545   1.507   6.336 -1.8197  0.4601 -1.4336
   24MOL   H36413290   5.330   1.075   6.531 -0.4217 -0.5425 -0.7854
   24MOL   H36513291   5.350   0.845   6.577  0.5781  0.9172  0.5790
   24MOL   C36613292   5.199   1.929   6.462  0.5062  0.5885 -0.5450
   24MOL   C36713293   5.155   2.048   6.389 -0.0169 -0.3307 -0.8408
   24MOL   C36813294   5.022   2.101   6.421  0.0992  0.5117  0.1907
   24MOL   C36913295   4.971   2.203   6.340  0.0987 -0.8214 -0.2611
   24MOL   C37013296   5.048   2.252   6.233 -0.5518  0.1108 -0.3435
   24MOL   C37113297   4.991   2.338   6.128 -0.4424  0.1558 -0.0925
   24MOL   N37213298   4.920   2.267   6.036 -1.0925  0.5988 -0.3670
   24MOL   C37313299   4.901   2.300   5.899  0.2716 -0.6537 -1.0549
   24MOL   C37413300   4.916   2.200   5.806  0.0601  0.1711  0.3696
   24MOL   C37513301   4.893   2.228   5.672  0.2528 -0.1429 -0.4150
   24MOL   C37613302   4.859   2.356   5.627 -0.0505 -0.7344  0.2962
   24MOL   N37713303   4.858   2.402   5.493 -0.0212  0.5384  0.3052
   24MOL   C37813304   4.830   2.453   5.723 -0.2625 -0.6951  0.0056
   24MOL   C37913305   4.846   2.424   5.862 -0.2358  0.4223 -0.0175
   24MOL   O38013306   5.013   2.461   6.117  0.3808  0.0891  0.3937
   24MOL   C38113307   5.178   2.200   6.209 -0.1188  0.2570  0.4395
   24MOL   C38213308   5.237   2.103   6.290  0.1969  0.1352  0.3067
   24MOL   O38313309   5.185   1.927   6.581  0.0433 -0.0073 -0.2503
   24MOL   H38413310   4.953   2.054   6.490  3.3710  0.0140  3.2759
   24MOL   H38513311   4.870   2.239   6.356  0.5944  0.3815  0.2043
   24MOL   H38613312   4.912   2.169   6.060  1.9734  0.7445  1.4285
   24MOL   H38713313   4.955   2.104   5.838  1.5141  1.3037  2.1670
   24MOL   H38813314   4.921   2.152   5.601 -0.6933 -1.2039  0.3278
   24MOL   H38913315   4.837   2.499   5.474  1.3934  0.9527  0.7437
   24MOL   H39013316   4.814   2.550   5.679 -0.3424 -0.5357  0.3808
   24MOL   H39113317   4.832   2.497   5.941 -0.7559 -0.6756  0.9238
   24MOL   H39213318   5.231   2.232   6.121 -1.5656 -0.4862 -0.7239
   24MOL   H39313319   5.340   2.078   6.269  0.0937  0.0175 -0.0626
   24MOL   C39413320   4.900   2.337   5.382  0.6629  0.3937 -0.2524
   24MOL   C39513321   4.892   2.419   5.249  0.1466  0.1875 -0.0259
   24MOL   C39613322   4.933   2.349   5.133 -0.1124 -0.5002  0.0393
   24MOL   C39713323   4.947   2.419   5.008  0.0149 -0.7704 -0.1371
   24MOL   C39813324   4.912   2.557   4.995 -0.0710  0.3402 -0.7617
   24MOL   C39913325   4.904   2.624   4.859  0.4979 -0.4909  0.5808
   24MOL   N40013326   4.906   2.535   4.757 -0.4492 -0.3365  0.5857
   24MOL   C40113327   4.913   2.562   4.624  0.0876 -0.1970  0.6943
   24MOL   C40213328   4.860   2.685   4.572  0.1713  0.7104  0.4956
   24MOL   C40313329   4.863   2.711   4.435  0.6439 -0.0725  0.6998
   24MOL   C40413330   4.931   2.619   4.346 -0.8395  0.0393  0.0540
   24MOL   N40513331   4.950   2.627   4.206 -0.7026  0.0591  0.3334
   24MOL   C40613332   4.977   2.498   4.398  0.0861  0.3948 -0.4501
   24MOL   C40713333   4.973   2.471   4.540 -0.6852 -0.5981  0.3991
   24MOL   O40813334   4.898   2.751   4.849  0.5687 -0.2066  0.0088
   24MOL   C40913335   4.873   2.627   5.113 -0.3819  0.5788  0.2567
   24MOL   C41013336   4.871   2.560   5.241  0.2975  0.2949  0.1341
   24MOL   O41113337   4.962   2.228   5.384 -0.3991 -0.2439  0.6294
   24MOL   H41213338   4.966   2.246   5.136 -1.4490 -0.9479 -0.1887
   24MOL   H41313339   4.983   2.366   4.921  1.9782  0.4466 -0.1009
   24MOL   H41413340   4.914   2.437   4.780 -0.8973 -0.1969  1.3365
   24MOL   H41513341   4.809   2.754   4.638  1.1051  1.1661  0.7630
   24MOL   H41613342   4.827   2.803   4.392 -2.1832 -1.0726  0.7917
   24MOL   H41713343   5.017   2.563   4.165 -0.0523 -0.7880  2.6435
   24MOL   H41813344   5.036   2.425   4.344  0.7080  1.2952 -0.9903
   24MOL   H41913345   5.011   2.376   4.574  0.2310  0.8413  3.6220
   24MOL   H42013346   4.862   2.734   5.108 -0.1284  0.5388 -1.4645
   24MOL   H42113347   4.862   2.626   5.326 -0.1390  0.6994 -0.2261
   24MOL   C42213348   4.877   2.690   4.117 -0.0805 -0.2442 -0.0240
   24MOL   C42313349   4.895   2.638   3.974 -0.4070  0.0366 -0.0246
   24MOL   C42413350   4.933   2.502   3.952  0.5320 -0.1986 -0.6250
   24MOL   C42513351   4.917   2.447   3.822 -0.0952  0.0308  0.0190
   24MOL   C42613352   4.905   2.533   3.708  0.6802  0.0522 -0.6242
   24MOL   C42713353   4.909   2.475   3.570 -0.5844  0.1837 -0.2352
   24MOL   N42813354   4.944   2.571   3.483 -0.0793 -0.0381 -0.3010
   24MOL   C42913355   4.936   2.551   3.341 -0.5065  0.4282 -0.2044
   24MOL   C43013356   5.040   2.597   3.260  0.7220 -0.4816  0.0604
   24MOL   C43113357   5.034   2.587   3.118 -0.2872 -0.1564 -0.0775
   24MOL   C43213358   4.914   2.523   3.066 -0.3472 -0.5043  0.0802
   24MOL   N43313359   4.891   2.531   2.924 -0.1064 -0.5201  0.2299
   24MOL   C43413360   4.815   2.468   3.148 -0.3926  0.0040 -0.4574
   24MOL   C43513361   4.826   2.486   3.283 -0.5097 -0.0625 -0.2886
   24MOL   O43613362   4.875   2.361   3.542  0.3133  0.0052 -0.8773
   24MOL   C43713363   4.882   2.674   3.729  0.9708  0.0729  0.5667
   24MOL   C43813364   4.868   2.721   3.863 -0.3031 -0.4264 -0.7922
   24MOL   O43913365   4.812   2.794   4.139 -0.2675  0.0870 -0.2520
   24MOL   H44013366   4.939   2.436   4.038 -1.9308  1.2471  0.7151
   24MOL   H44113367   4.947   2.344   3.811 -1.0343 -0.4002  1.2544
   24MOL   H44213368   5.000   2.645   3.522  0.4694 -0.3957 -0.4000
   24MOL   H44313369   5.116   2.659   3.307 -0.2144  1.0177 -0.3864
   24MOL   H44413370   5.099   2.649   3.058  0.8226 -3.2052 -2.1552
   24MOL   H44513371   4.916   2.621   2.887  0.2069 -0.0296  1.6003
   24MOL   H44613372   4.730   2.421   3.101 -1.4130  0.0158  1.3186
   24MOL   H44713373   4.756   2.437   3.349  1.1885 -0.0290  1.5574
   24MOL   H44813374   4.872   2.749   3.651  2.6816 -1.1544 -0.8969
   24MOL   H44913375   4.857   2.827   3.881  4.1975 -0.1657  1.3123
   24MOL   C45013376   4.835   2.436   2.843  0.3992 -0.2380  0.3493
   24MOL   C45113377   4.781   2.493   2.714 -0.8993 -0.0935 -0.0532
   24MOL   C45213378   4.728   2.627   2.709 -0.0764  0.2239 -0.9619
   24MOL   C45313379   4.662   2.672   2.596  0.2313 -0.1341  0.1292
   24MOL   C45413380   4.644   2.594   2.484 -0.2833 -0.5672 -0.4567
   24MOL   C45513381   4.546   2.638   2.382 -0.1796  1.1994 -0.0440
   24MOL   N45613382   4.567   2.766   2.342  0.4899 -0.5049  0.2011
   24MOL   C45713383   4.466   2.864   2.318 -0.0658  0.1012 -0.2840
   24MOL   C45813384   4.513   2.993   2.312 -0.0848 -0.1906  0.7735
   24MOL   C45913385   4.418   3.098   2.292  0.3012 -0.0964 -0.6698
   24MOL   C46013386   4.283   3.074   2.277 -0.3799  0.2051 -0.1809
   24MOL   N46113387   4.194   3.177   2.250  0.0509  0.0749 -0.1704
   24MOL   C46213388   4.242   2.944   2.277  0.3066  0.4712 -1.2395
   24MOL   C46313389   4.330   2.837   2.309  0.3938 -0.4559 -0.0626
   24MOL   O46413390   4.455   2.565   2.349 -0.8308 -0.4396  0.4085
   24MOL   C46513391   4.700   2.462   2.480  0.9341  0.2331 -0.0987
   24MOL   C46613392   4.769   2.411   2.598 -0.2641 -0.1266 -0.1105
   24MOL   O46713393   4.840   2.320   2.868 -0.5266 -0.3474 -0.4416
   24MOL   H46813394   4.715   2.695   2.792  0.2507  0.2064 -0.8939
   24MOL   H46913395   4.633   2.776   2.596  3.1277  0.7432 -0.8547
   24MOL   H47013396   4.662   2.800   2.335 -0.1225  0.9327 -1.4915
   24MOL   H47113397   4.619   3.002   2.329  0.0300  1.3987 -0.7274
   24MOL   H47213398   4.453   3.199   2.281 -4.6590  1.7239 -1.1648
   24MOL   H47313399   4.123   3.153   2.183 -0.4308 -0.9527  0.6809
   24MOL   H47413400   4.142   2.913   2.252  0.6192 -1.6441 -0.0003
   24MOL   H47513401   4.305   2.732   2.313 -0.4187 -0.3428 -1.6879
   24MOL   H47613402   4.682   2.401   2.392  2.4379 -0.5715  0.1220
   24MOL   H47713403   4.812   2.312   2.595  1.2743  0.4991  1.0756
   24MOL   C47813404   4.184   3.303   2.294  0.4488 -0.0897 -0.1442
   24MOL   C47913405   4.267   3.344   2.414 -0.1512 -0.4084 -0.2989
   24MOL   C48013406   4.283   3.256   2.519 -0.1070 -0.5928  0.1552
   24MOL   C48113407   4.357   3.288   2.640  0.0861  0.1253  0.0682
   24MOL   C48213408   4.416   3.416   2.655  0.1156  0.6730  0.0305
   24MOL   C48313409   4.477   3.452   2.786  0.0335  0.1060  0.6329
   24MOL   N48413410   4.548   3.351   2.847  0.4489 -0.2881 -0.0213
   24MOL   C48513411   4.559   3.331   2.984  0.2222  0.2230  0.3316
   24MOL   C48613412   4.494   3.416   3.081  0.1822 -0.0077 -0.4299
   24MOL   C48713413   4.516   3.389   3.216  0.5676 -0.3851 -0.6087
   24MOL   C48813414   4.588   3.267   3.262  0.5322  0.0504  0.3169
   24MOL   N48913415   4.604   3.249   3.402 -0.2549  0.3422 -0.0207
   24MOL   C49013416   4.658   3.195   3.164 -0.5980 -0.1139 -0.1927
   24MOL   C49113417   4.639   3.228   3.034 -0.2739 -0.9988 -0.1862
   24MOL   O49213418   4.472   3.572   2.820 -0.0255  0.6954 -0.4432
   24MOL   C49313419   4.392   3.510   2.557 -0.5581 -0.3648  0.4696
   24MOL   C49413420   4.323   3.474   2.438 -1.1738 -0.3121  0.5894
   24MOL   O49513421   4.106   3.383   2.248 -0.1328 -0.7212  0.4924
   24MOL   H49613422   4.245   3.156   2.506  0.2315 -0.6627 -0.3515
   24MOL   H49713423   4.390   3.216   2.713  0.8465 -0.1405 -0.5311
   24MOL   H49813424   4.573   3.272   2.790 -3.1165 -0.4845 -1.4108
   24MOL   H49913425   4.431   3.497   3.047 -1.2702 -0.4520  1.1614
   24MOL   H50013426   4.477   3.462   3.285 -2.1046 -1.1729 -1.2466
   24MOL   H50113427   4.584   3.333   3.454  0.8985 -0.0869  1.1487
   24MOL   H50213428   4.735   3.125   3.193 -0.4535  1.1748  2.7047
   24MOL   H50313429   4.704   3.178   2.964  2.8638 -0.0616  1.9761
   24MOL   H50413430   4.417   3.613   2.579  0.7535 -0.6186  0.1998
   24MOL   H50513431   4.308   3.553   2.366 -0.1591 -0.1358  0.5629
   24MOL   C50613432   4.624   3.132   3.468 -0.2992  0.5802  0.1932
   24MOL   C50713433   4.637   3.143   3.615  0.3215 -0.2392 -0.6229
   24MOL   C50813434   4.641   3.272   3.676  0.7252  0.2772 -0.6959
   24MOL   C50913435   4.640   3.275   3.814  0.5449 -0.2574  0.1589
   24MOL   C51013436   4.652   3.162   3.899 -0.8127 -0.9540  0.6704
   24MOL   C51113437   4.672   3.180   4.046 -0.1703  1.1143  0.1460
   24MOL   N51213438   4.606   3.274   4.111 -0.6074  0.2136 -0.5623
   24MOL   C51313439   4.622   3.292   4.250 -0.1968 -0.0764 -0.0364
   24MOL   C51413440   4.512   3.250   4.326  0.2716  0.1017  0.2965
   24MOL   C51513441   4.516   3.249   4.468  0.2436 -0.4933  0.2294
   24MOL   C51613442   4.635   3.280   4.537  0.1856 -0.3613 -0.6223
   24MOL   N51713443   4.646   3.240   4.668 -0.1980  0.2274  0.4230
   24MOL   C51813444   4.747   3.315   4.452  0.3571  0.5151  0.3992
   24MOL   C51913445   4.739   3.330   4.315 -0.3903 -0.3063  0.0152
   24MOL   O52013446   4.740   3.095   4.107 -0.0199 -0.1401 -0.2027
   24MOL   C52113447   4.665   3.036   3.838  0.1878 -0.8430 -0.7604
   24MOL   C52213448   4.654   3.028   3.701  0.4356  0.8152  0.0374
   24MOL   O52313449   4.648   3.021   3.413 -0.0597 -0.4949 -0.2138
   24MOL   H52413450   4.616   3.360   3.619 -0.9177 -0.1294 -0.6503
   24MOL   H52513451   4.630   3.370   3.864 -0.0635 -1.0693  1.5861
   24MOL   H52613452   4.536   3.325   4.059  1.1228 -0.1753 -3.3781
   24MOL   H52713453   4.417   3.222   4.283 -0.5505  0.8749  1.5937
   24MOL   H52813454   4.432   3.209   4.522 -0.0322 -0.9952 -0.5567
   24MOL   H52913455   4.578   3.177   4.710 -1.3573  0.2884 -1.3221
   24MOL   H53013456   4.842   3.318   4.505  0.2835 -0.7142  0.6211
   24MOL   H53113457   4.820   3.370   4.256  0.0475 -0.6308  0.3929
   24MOL   H53213458   4.690   2.951   3.899 -1.8798 -0.3558  0.8456
   24MOL   H53313459   4.654   2.931   3.653  0.0263  2.1558 -2.7737
   24MOL   C53413460   4.703   3.320   4.760 -0.5696 -0.0389  0.4796
   24MOL   C53513461   4.702   3.276   4.904 -0.2518  0.7759  0.1315
   24MOL   C53613462   4.669   3.140   4.933 -0.2970 -0.0540  0.4324
   24MOL   C53713463   4.651   3.103   5.071 -0.9197  0.5046 -0.0922
   24MOL   C53813464   4.683   3.189   5.178  0.0212  0.4229  0.3055
   24MOL   C53913465   4.699   3.137   5.317  0.0867  0.2995 -0.6124
   24MOL   N54013466   4.686   3.223   5.414  0.5926 -0.9781 -0.6955
   24MOL   C54113467   4.691   3.194   5.552  0.4319  0.0995  0.8628
   24MOL   C54213468   4.815   3.202   5.614 -0.6021 -0.1688 -0.3983
   24MOL   C54313469   4.826   3.172   5.754  1.0185 -0.0959 -0.0237
   24MOL   C54413470   4.711   3.139   5.834 -0.6819 -0.1239  0.1634
   24MOL   N54513471   4.721   3.118   5.966  0.5643 -0.1992  0.1835
   24MOL   C54613472   4.588   3.140   5.767 -0.4326 -0.2408  0.0945
   24MOL   C54713473   4.572   3.168   5.628 -0.9727 -0.2644  1.1200
   24MOL   O54813474   4.718   3.018   5.341  0.0046  0.6814  0.2540
   24MOL   C54913475   4.729   3.320   5.144 -0.0964  0.9175 -0.6972
   24MOL   C55013476   4.742   3.361   5.013 -0.1753 -0.3717  0.7342
   24MOL   O55113477   4.770   3.425   4.737  0.0395 -0.1383 -0.3905
   24MOL   H55213478   4.628   3.079   4.853  1.7653 -0.0961 -0.6134
   24MOL   H55313479   4.624   3.002   5.097  0.8377  0.0681  0.0847
   24MOL   H55413480   4.665   3.320   5.397  0.7265 -0.3727  2.2329
   24MOL   H55513481   4.899   3.242   5.559 -1.8288  0.8857 -1.5232
   24MOL   H55613482   4.925   3.168   5.798  1.2562 -0.5569 -0.5933
   24MOL   H55713483   4.810   3.106   6.010  1.6099  3.5272 -0.7829
   24MOL   H55813484   4.503   3.131   5.834  0.8794  1.0264  1.9656
   24MOL   H55913485   4.474   3.172   5.584  0.7128  0.2818 -2.7745
   24MOL   H56013486   4.746   3.386   5.227 -0.4240  1.0376 -0.7266
   24MOL   H56113487   4.780   3.459   4.992 -0.1404 -0.8193 -1.3832
   24MOL   H56213488   4.636   3.104   6.020 -0.0924 -1.1405 -1.0432
   25MOL     C113489   4.046   4.550   6.130  0.0623 -0.4838 -0.5298
   25MOL     C213490   3.963   4.615   6.238 -0.2948  0.7778  0.6637
   25MOL     C313491   3.948   4.551   6.364  0.5825 -0.3635  0.7116
   25MOL     C413492   3.855   4.597   6.460 -0.3357 -0.3626  0.1899
   25MOL     C513493   3.772   4.706   6.435 -0.3694  0.6763 -0.0981
   25MOL     C613494   3.672   4.744   6.544  0.1277 -0.3878 -0.9925
   25MOL     N713495   3.712   4.744   6.672  0.0534  0.2814 -0.3373
   25MOL     C813496   3.635   4.761   6.790  0.2687 -0.3324  0.4877
   25MOL     C913497   3.504   4.819   6.797  0.2325 -0.1332  0.2261
   25MOL    C1013498   3.445   4.822   6.926  0.1104  0.2941 -0.4826
   25MOL    C1113499   3.515   4.796   7.042  0.1000 -0.8092  0.4066
   25MOL    N1213500   3.446   4.823   7.161 -0.1657 -0.8411 -0.6036
   25MOL    C1313501   3.642   4.736   7.031  0.0280  0.3691 -0.1459
   25MOL    C1413502   3.703   4.713   6.909  0.3691  0.7701 -1.1282
   25MOL    O1513503   3.564   4.788   6.505 -0.7746  0.2476 -0.1886
   25MOL    C1613504   3.778   4.765   6.308  0.0988 -0.0919 -0.2009
   25MOL    C1713505   3.881   4.731   6.215 -0.1732  0.3852  0.0209
   25MOL    O1813506   4.115   4.449   6.136  0.0726 -0.0540 -0.0846
   25MOL    H1913507   4.002   4.462   6.396 -0.0433 -0.4304  1.5935
   25MOL    H2013508   3.850   4.544   6.554  0.3098 -0.2756  0.2725
   25MOL    H2113509   3.802   4.697   6.673  0.2070  0.4860 -2.3917
   25MOL    H2213510   3.445   4.840   6.709 -0.7981 -2.2832  0.3691
   25MOL    H2313511   3.340   4.845   6.928 -0.0109 -0.3118  3.3982
   25MOL    H2413512   3.346   4.826   7.148  0.0622 -1.8067 -2.9387
   25MOL    H2513513   3.686   4.705   7.124 -1.0662  0.2427  0.3380
   25MOL    H2613514   3.800   4.665   6.907 -0.6179 -1.3860  0.7587
   25MOL    H2713515   3.711   4.846   6.282 -0.1567  0.1423  1.1220
   25MOL    H2813516   3.884   4.775   6.116  1.0748  1.8779  0.6894
   25MOL    H2913517   4.011   4.588   6.034  0.2362 -0.2815 -0.5131
   25MOL    C3013518   3.491   4.841   7.283  0.0663 -0.3560  0.0878
   25MOL    C3113519   3.393   4.873   7.386  0.4107 -0.6700 -0.5261
   25MOL    C3213520   3.428   4.873   7.525  0.3298 -0.2108  0.7365
   25MOL    C3313521   3.344   4.928   7.621 -0.5573  0.8065  0.1269
   25MOL    C3413522   3.221   4.979   7.588 -0.5575 -0.1229  0.3537
   25MOL    C3513523   3.123   5.043   7.686 -0.6130 -0.0866 -0.5111
   25MOL    N3613524   3.146   5.004   7.810  0.3180 -0.1522 -0.7924
   25MOL    C3713525   3.119   5.084   7.919 -0.6356  0.5513 -0.1156
   25MOL    C3813526   3.227   5.160   7.954 -0.1693 -0.7661 -0.5768
   25MOL    C3913527   3.221   5.256   8.060 -0.7703  0.2171 -0.0182
   25MOL    C4013528   3.102   5.261   8.136  0.2504 -0.0408  0.3998
   25MOL    N4113529   3.106   5.365   0.093  0.1920  0.3092  0.0805
   25MOL    C4213530   2.993   5.182   8.100  0.1842 -0.1193  0.2970
   25MOL    C4313531   2.999   5.095   7.992 -0.9885  0.0231  0.6318
   25MOL    O4413532   3.016   5.092   7.652 -0.3460 -0.3121 -0.4706
   25MOL    C4513533   3.190   4.988   7.451  0.5954  0.7351  0.2680
   25MOL    C4613534   3.271   4.932   7.349  0.8377  0.1713 -0.4186
   25MOL    O4713535   3.611   4.821   7.314 -0.0661  0.2188  0.0110
   25MOL    H4813536   3.528   4.846   7.556  1.1483  1.7641 -0.0941
   25MOL    H4913537   3.390   4.933   7.718  0.0045 -0.5400 -0.0740
   25MOL    H5013538   3.208   4.926   7.827 -1.7533 -1.3407  1.6973
   25MOL    H5113539   3.324   5.169   7.907  0.6536 -0.6924  1.0891
   25MOL    H5213540   3.309   5.317   8.073 -0.0278 -1.1675  1.6262
   25MOL    H5313541   3.177   5.436   0.083  0.8301 -0.1393  1.3827
   25MOL    H5413542   2.905   5.179   0.015  0.1828 -2.2500  0.2238
   25MOL    H5513543   2.909   5.042   7.964 -0.5805 -0.0094 -0.6445
   25MOL    H5613544   3.097   5.038   7.430  0.6407  1.2328  1.2331
   25MOL    H5713545   3.257   4.965   7.247  1.0749 -1.2175 -0.9091
   25MOL    C5813546   3.049   5.346   0.209 -0.8937 -0.1139  0.1072
   25MOL    C5913547   3.107   5.441   0.314  0.4448  0.2607  0.4433
   25MOL    C6013548   3.223   5.520   0.288 -0.6375 -0.5782  0.5974
   25MOL    C6113549   3.286   5.597   0.386  0.0416 -0.6711  0.4972
   25MOL    C6213550   3.229   5.597   0.516 -0.1850  0.3929 -0.0955
   25MOL    C6313551   3.280   5.682   0.629 -0.5365  0.6836  0.2072
   25MOL    N6413552   3.413   5.676   0.652 -0.2346 -0.0079  0.0613
   25MOL    C6513553   3.488   5.740   0.751 -0.5194 -0.7862  0.0604
   25MOL    C6613554   3.434   5.755   0.883 -0.1826 -0.2181 -0.0496
   25MOL    C6713555   3.514   5.811   0.981 -0.6080 -0.1419 -0.7801
   25MOL    C6813556   3.648   5.842   0.949 -0.1735 -0.7116 -0.1669
   25MOL    N6913557   3.739   5.885   1.051 -0.3904 -0.1400 -0.2324
   25MOL    C7013558   3.703   5.820   0.826  0.3180  0.0116  0.5460
   25MOL    C7113559   3.622   5.763   0.728 -0.2403 -0.0501 -0.5268
   25MOL    O7213560   3.199   5.747   0.692  0.2892  0.1616 -0.7318
   25MOL    C7313561   3.115   5.530   0.540  0.5496 -0.3318  0.1798
   25MOL    C7413562   3.048   5.450   0.443  0.1525 -0.2278 -0.5984
   25MOL    O7513563   2.956   5.270   0.233 -0.5111 -0.0779  0.0801
   25MOL    H7613564   3.273   5.502   0.193 -0.1211  0.0808  0.7392
   25MOL    H7713565   3.377   5.654   0.377 -0.8862  0.7377 -0.1939
   25MOL    H7813566   3.472   5.615   0.596 -0.5414 -0.5696  0.3456
   25MOL    H7913567   3.337   5.728   0.923  0.7575 -1.5576  1.3951
   25MOL    H8013568   3.492   5.804   1.086  2.4002 -3.1777 -0.2679
   25MOL    H8113569   3.825   5.834   1.065 -0.2019  0.6184  1.5351
   25MOL    H8213570   3.810   5.833   0.814  0.1192  2.8723  1.3604
   25MOL    H8313571   3.678   5.713   0.651 -0.6462 -1.1640 -0.1027
   25MOL    H8413572   3.074   5.536   0.640  1.4472 -1.4507  0.6290
   25MOL    H8513573   2.963   5.392   0.475  0.1920  0.0543  0.0143
   25MOL    C8613574   3.719   5.984   1.146 -0.1177  0.2366 -0.2739
   25MOL    C8713575   3.835   6.035   1.225  0.1089 -0.3856 -0.3506
   25MOL    C8813576   3.971   5.995   1.204 -0.3639  0.0518 -0.0539
   25MOL    C8913577   4.067   6.030   1.296  0.1454 -0.0806 -1.1097
   25MOL    C9013578   4.036   6.117   1.403  0.5496 -0.7294 -0.2791
   25MOL    C9113579   4.141   6.153   1.499 -0.7162  0.8508 -0.0072
   25MOL    N9213580   4.094   6.175   1.622 -0.3157  0.4489  0.0521
   25MOL    C9313581   4.162   6.216   1.744 -0.2268  0.2771  0.3178
   25MOL    C9413582   4.088   6.285   1.840  0.0658 -0.5322 -0.2070
   25MOL    C9513583   4.140   6.303   1.966  0.3922 -0.3123 -0.2622
   25MOL    C9613584   4.275   6.266   1.996  0.0997 -0.1473  0.2180
   25MOL    N9713585   4.334   6.275   2.122  0.5472 -0.4349  0.1773
   25MOL    C9813586   4.349   6.201   1.897  0.4299 -0.4177  0.2446
   25MOL    C9913587   4.298   6.173   1.768  0.0615 -0.6341 -0.0897
   25MOL   O10013588   4.264   6.173   1.472  0.0166 -0.4616 -0.4893
   25MOL   C10113589   3.905   6.156   1.427  0.7254 -0.0741  0.2187
   25MOL   C10213590   3.807   6.123   1.331  0.1004  0.7328  0.5132
   25MOL   O10313591   3.610   6.030   1.161  0.4355 -0.2355 -0.1444
   25MOL   H10413592   3.998   5.922   1.128 -0.1046 -0.0895  0.1729
   25MOL   H10513593   4.169   6.002   1.275  0.7874  1.4614 -0.1175
   25MOL   H10613594   3.994   6.167   1.633 -0.4012  1.1522 -0.1593
   25MOL   H10713595   3.987   6.309   1.810 -0.3617 -1.0125  0.8303
   25MOL   H10813596   4.075   6.351   2.038  0.7477  0.1472 -0.2473
   25MOL   H10913597   4.428   6.237   2.131  0.2410 -1.2838 -0.0928
   25MOL   H11013598   4.447   6.164   1.923  0.3465 -1.0989 -0.4350
   25MOL   H11113599   4.360   6.112   1.704  1.1524  0.5986 -0.2146
   25MOL   H11213600   3.879   6.226   1.506 -1.3203 -0.5981  0.0269
   25MOL   H11313601   3.707   6.154   1.355 -0.3157  0.4402 -0.8384
   25MOL   C11413602   4.269   6.301   2.240  0.3513  0.3333  1.1492
   25MOL   C11513603   4.353   6.265   2.363 -0.1392  0.2054 -0.5426
   25MOL   C11613604   4.474   6.197   2.349  0.1222  0.4702 -0.9975
   25MOL   C11713605   4.548   6.174   2.464 -0.2225 -0.1649 -0.4305
   25MOL   C11813606   4.505   6.219   2.592 -0.0650 -0.0242 -0.0500
   25MOL   C11913607   4.573   6.179   2.715 -0.3147 -0.2041 -0.4301
   25MOL   N12013608   4.577   6.267   2.814  0.4909  0.3741  1.0171
   25MOL   C12113609   4.656   6.254   2.930  0.5929  1.0285  0.4068
   25MOL   C12213610   4.637   6.166   3.031  0.0656  0.4936  0.1790
   25MOL   C12313611   4.740   6.136   3.122 -0.3313 -0.6652 -0.9104
   25MOL   C12413612   4.864   6.212   3.116  0.5849 -0.1719 -0.2633
   25MOL   N12513613   4.970   6.176   3.196 -0.6858 -0.0859  0.5861
   25MOL   C12613614   4.873   6.314   3.024 -0.1616 -0.0371  0.2964
   25MOL   C12713615   4.768   6.342   2.935 -0.4014 -0.9344 -0.4256
   25MOL   O12813616   4.627   6.068   2.722 -0.3336 -0.3861 -0.0395
   25MOL   C12913617   4.377   6.274   2.604  0.7279  0.2977 -0.5327
   25MOL   C13013618   4.305   6.305   2.491  0.5998  0.0741 -0.1936
   25MOL   O13113619   4.167   6.367   2.258 -0.1570  0.1097  0.1285
   25MOL   H13213620   4.511   6.156   2.256  2.2543  0.2855 -0.1087
   25MOL   H13313621   4.638   6.115   2.453 -0.5659 -1.2653  2.1330
   25MOL   H13413622   4.537   6.358   2.793 -1.7316 -0.9710 -0.6909
   25MOL   H13513623   4.548   6.104   3.021  0.2097  0.5325 -1.5401
   25MOL   H13613624   4.729   6.067   3.205  0.1121  0.3563  0.0213
   25MOL   H13713625   5.005   6.251   3.253  1.6473  0.2393 -1.1973
   25MOL   H13813626   4.966   6.369   3.012  0.2256 -1.1804 -2.6101
   25MOL   H13913627   4.790   6.411   2.855 -0.6272 -1.9151 -1.3473
   25MOL   H14013628   4.351   6.306   2.704  1.8314 -0.3248 -0.0340
   25MOL   H14113629   4.215   6.364   2.495 -0.1688 -0.8752 -2.8651
   25MOL   C14213630   5.062   6.087   3.158 -0.2159  0.6315 -0.1099
   25MOL   C14313631   5.012   5.985   3.060 -0.1921 -0.0753  0.6787
   25MOL   C14413632   4.990   6.014   2.924  0.2498 -0.3741  0.5991
   25MOL   C14513633   4.920   5.917   2.841  0.4100  0.1974  0.2033
   25MOL   C14613634   4.890   5.791   2.890  0.4641  0.3547  0.2165
   25MOL   C14713635   4.814   5.699   2.803  0.5064  0.4397 -0.0504
   25MOL   N14813636   4.723   5.760   2.731  0.4412  0.0275 -0.8455
   25MOL   C14913637   4.654   5.715   2.617  0.1224  0.2619  0.3487
   25MOL   C15013638   4.643   5.798   2.504 -0.2761 -0.1270  0.4671
   25MOL   C15113639   4.558   5.758   2.402  0.2747  0.5640 -0.5283
   25MOL   C15213640   4.480   5.639   2.402  0.2082 -0.2257 -0.1958
   25MOL   N15313641   4.375   5.621   2.313  0.4210 -0.2838 -0.4648
   25MOL   C15413642   4.504   5.549   2.510  0.1579  0.1138  0.2222
   25MOL   C15513643   4.599   5.587   2.614  0.2913 -0.4706 -0.7032
   25MOL   O15613644   4.827   5.578   2.813  0.4712 -0.0142 -0.6748
   25MOL   C15713645   4.936   5.752   3.020 -0.4392 -0.4484  0.1633
   25MOL   C15813646   4.996   5.852   3.106 -0.1977 -0.0003 -0.1620
   25MOL   O15913647   5.179   6.093   3.198 -0.3758 -0.2740 -0.5846
   25MOL   H16013648   5.028   6.105   2.880 -0.5855 -0.3224 -0.0375
   25MOL   H16113649   4.895   5.946   2.740  0.6730 -0.3598 -0.0258
   25MOL   H16213650   4.707   5.857   2.753 -0.6998 -0.1528 -0.8627
   25MOL   H16313651   4.697   5.891   2.507  0.8689 -0.7618  0.1391
   25MOL   H16413652   4.541   5.826   2.320  0.2844  0.1327 -0.8946
   25MOL   H16513653   4.385   5.672   2.227  0.7856 -0.6259 -0.6231
   25MOL   H16613654   4.445   5.459   2.516 -1.8864  1.4019 -0.1612
   25MOL   H16713655   4.598   5.516   2.695 -2.1271 -1.3971 -1.5076
   25MOL   H16813656   4.911   5.652   3.050 -0.2379 -0.4434  0.3470
   25MOL   H16913657   5.031   5.830   3.206 -1.8246 -0.0123  0.4180
   25MOL   C17013658   4.249   5.577   2.341  0.8176 -0.9034 -0.1405
   25MOL   C17113659   4.152   5.587   2.233 -0.6690 -0.5993 -0.8435
   25MOL   C17213660   4.018   5.583   2.263  0.2042 -0.7382  0.2588
   25MOL   C17313661   3.922   5.573   2.158 -0.2795  0.5710  0.3159
   25MOL   C17413662   3.958   5.572   2.023 -0.1707 -0.0905 -0.4451
   25MOL   C17513663   3.855   5.559   1.911  0.5154 -0.0938 -0.5691
   25MOL   N17613664   3.908   5.499   1.803  0.3040  0.0992  0.7425
   25MOL   C17713665   3.842   5.477   1.677 -0.2099  0.5473  0.6296
   25MOL   C17813666   3.914   5.397   1.579  0.4570 -0.0975 -0.3931
   25MOL   C17913667   3.858   5.375   1.455 -0.7136 -0.7929  0.2505
   25MOL   C18013668   3.734   5.424   1.418  0.9422 -0.7175 -0.6170
   25MOL   N18113669   3.672   5.407   1.290  0.0754 -0.2344 -0.2223
   25MOL   C18213670   3.671   5.510   1.513 -0.0032 -0.2898  0.5358
   25MOL   C18313671   3.722   5.539   1.639 -0.6222 -0.6631  0.8088
   25MOL   O18413672   3.739   5.598   1.926  0.0607 -0.3478 -0.1468
   25MOL   C18513673   4.097   5.559   1.997 -0.1419 -0.5113  0.6984
   25MOL   C18613674   4.190   5.579   2.099 -0.7315 -0.7597 -0.1069
   25MOL   O18713675   4.216   5.527   2.447  0.3296 -0.4275  0.6183
   25MOL   H18813676   3.981   5.582   2.365  1.5575  1.0563  0.7966
   25MOL   H18913677   3.822   5.551   2.193  0.3677 -1.5271  0.9088
   25MOL   H19013678   4.001   5.464   1.816  0.2737  0.4845  2.0537
   25MOL   H19113679   4.012   5.354   1.591  1.7383  2.9481  0.7982
   25MOL   H19213680   3.923   5.315   1.393 -2.2929 -1.0420 -1.1914
   25MOL   H19313681   3.597   5.471   1.266  0.9504  0.7121 -0.5047
   25MOL   H19413682   3.571   5.541   1.489 -0.0500 -2.4063 -2.1685
   25MOL   H19513683   3.660   5.606   1.696 -1.2236  0.0764 -0.6700
   25MOL   H19613684   4.134   5.553   1.895 -1.0983 -0.6803  0.3576
   25MOL   H19713685   4.294   5.574   2.070 -0.4931  0.0319  0.6005
   25MOL   C19813686   3.707   5.324   1.190 -0.2282 -0.0354 -0.4123
   25MOL   C19913687   3.608   5.326   1.078 -0.0660  0.0956 -0.0371
   25MOL   C20013688   3.553   5.440   1.014  0.0102 -0.1291  0.2508
   25MOL   C20113689   3.458   5.422   0.910 -0.5723 -0.6840 -0.4781
   25MOL   C20213690   3.403   5.299   0.878  0.5078 -0.1784  0.3457
   25MOL   C20313691   3.286   5.285   0.791  0.3988  0.3844  0.0974
   25MOL   N20413692   3.293   5.171   0.719  0.2006  0.1579 -0.1344
   25MOL   C20513693   3.209   5.113   0.619 -0.9463 -0.2865 -0.1867
   25MOL   C20613694   3.245   4.988   0.555  0.3700 -0.0116 -0.2940
   25MOL   C20713695   3.169   4.938   0.450  0.1001  0.2313  0.4060
   25MOL   C20813696   3.049   4.996   0.414  0.6996  0.1104 -0.2336
   25MOL   N20913697   2.965   4.948   0.303 -0.1227 -0.1075  0.0663
   25MOL   C21013698   3.004   5.109   0.483 -0.1998 -0.4273  0.1592
   25MOL   C21113699   3.080   5.168   0.583 -0.3062 -0.4410 -0.5472
   25MOL   O21213700   3.192   5.367   0.794 -0.6088  0.0414  0.1299
   25MOL   C21313701   3.461   5.182   0.940  0.1305 -0.3267 -0.4879
   25MOL   C21413702   3.566   5.195   1.033 -0.1296  0.1710 -0.3805
   25MOL   O21513703   3.807   5.246   1.192 -0.4763 -0.3010  0.4390
   25MOL   H21613704   3.585   5.537   1.050 -0.3981  1.4710 -3.5126
   25MOL   H21713705   3.418   5.509   0.861 -0.2642  0.5706  1.4287
   25MOL   H21813706   3.370   5.112   0.744 -0.2448 -0.7900 -0.9746
   25MOL   H21913707   3.333   4.930   0.579  0.4883  0.6686  0.9802
   25MOL   H22013708   3.211   4.849   0.405  0.8416  1.0228 -0.4964
   25MOL   H22113709   2.871   4.984   0.303  0.1954  0.7478 -0.2528
   25MOL   H22213710   2.909   5.155   0.459  0.7663  1.7271  0.2810
   25MOL   H22313711   3.041   5.253   0.637  0.7865  0.1590 -0.6964
   25MOL   H22413712   3.418   5.084   0.933  0.6978 -0.6446  0.4345
   25MOL   H22513713   3.602   5.109   1.089  1.6043  1.3183  0.3253
   25MOL   C22613714   3.000   4.874   0.195 -0.1202 -0.0165  0.3518
   25MOL   C22713715   3.146   4.844   0.170  0.3637 -0.1897 -0.1323
   25MOL   C22813716   3.190   4.715   0.187 -0.0411  0.5194  0.8602
   25MOL   C22913717   3.322   4.682   0.173  0.4229 -0.1830  0.2322
   25MOL   C23013718   3.413   4.784   0.140 -0.1178  0.0135 -1.4640
   25MOL   C23113719   3.555   4.747   0.115  0.0923 -0.3241 -0.2094
   25MOL   N23213720   3.623   4.824   0.035  0.4788 -0.2736  0.4103
   25MOL   C23313721   3.759   4.812   0.002  0.3461  0.1117 -0.3787
   25MOL   C23413722   3.793   4.833   8.016  0.0989  0.2263 -0.4228
   25MOL   C23513723   3.932   4.817   7.978  0.4008  0.1037 -0.3281
   25MOL   C23613724   4.026   4.784   8.079  0.2054  0.5105  0.6009
   25MOL   N23713725   4.166   4.761   8.051 -0.3323 -0.2916 -0.3425
   25MOL   C23813726   3.986   4.767   0.071 -0.3659 -0.8844 -0.1426
   25MOL   C23913727   3.852   4.787   0.107  0.3249  0.1752  0.1091
   25MOL   O24013728   3.599   4.642   0.158  0.4345  0.1554  0.0912
   25MOL   C24113729   3.377   4.923   0.134 -0.6399  0.3727  0.6577
   25MOL   C24213730   3.239   4.947   0.146 -0.0645 -0.0380  0.7487
   25MOL   O24313731   2.912   4.824   0.120 -0.2507 -0.4460  0.4787
   25MOL   H24413732   3.112   4.642   0.200  1.9638 -1.7836  0.2611
   25MOL   H24513733   3.350   4.578   0.183 -1.0237 -0.7630 -1.3914
   25MOL   H24613734   3.572   4.893   8.128 -0.5347 -1.8997 -0.7757
   25MOL   H24713735   3.725   4.854   7.935  0.3207  0.0459 -0.6555
   25MOL   H24813736   3.962   4.824   7.875  1.3672 -0.6754 -0.1091
   25MOL   H24913737   4.233   4.793   8.119 -1.7068  0.2073  0.7998
   25MOL   H25013738   4.052   4.741   0.152  2.7094 -0.3307 -2.4016
   25MOL   H25113739   3.825   4.768   0.210 -0.9547  1.5601  0.0572
   25MOL   H25213740   3.443   5.006   0.112  0.0791 -0.3300  0.1314
   25MOL   H25313741   3.203   5.048   0.133  0.4413  0.0017 -0.4352
   25MOL   C25413742   4.222   4.687   7.956  0.7083  0.4180  0.1392
   25MOL   C25513743   4.369   4.705   7.943  0.0383 -0.3596  0.1144
   25MOL   C25613744   4.447   4.592   7.910 -0.2782 -0.2735 -0.0183
   25MOL   C25713745   4.587   4.588   7.928  0.1841 -0.3419  0.1040
   25MOL   C25813746   4.653   4.704   7.983 -0.6462 -0.7971  0.2332
   25MOL   C25913747   4.807   4.708   7.990  0.3333  0.1715 -0.2898
   25MOL   N26013748   4.858   4.834   8.016  0.1887 -0.8055  0.9821
   25MOL   C26113749   4.985   4.878   8.053 -0.1599  0.2578  0.1546
   25MOL   C26213750   4.990   5.014   8.096 -0.5809  0.4215 -0.2506
   25MOL   C26313751   5.111   5.068   0.003 -0.1755  0.1279 -0.1495
   25MOL   C26413752   5.231   4.989   0.017 -0.2382 -0.7321 -1.1533
   25MOL   N26513753   5.338   5.063   0.054  0.4092 -0.0031  0.0570
   25MOL   C26613754   5.230   4.853   8.124 -0.5628  0.0536  0.2720
   25MOL   C26713755   5.106   4.800   8.070 -0.0504  0.5048 -0.4218
   25MOL   O26813756   4.870   4.604   7.977  0.0784 -0.3884  0.4041
   25MOL   C26913757   4.576   4.821   8.004  0.5668  0.0703  0.3074
   25MOL   C27013758   4.434   4.824   7.985 -0.5671  0.4708  0.3452
   25MOL   O27113759   4.156   4.617   7.878 -0.3144 -0.0040 -0.6510
   25MOL   H27213760   4.398   4.501   7.878 -0.8575  0.4770 -1.3195
   25MOL   H27313761   4.629   4.489   7.914 -0.6368 -0.5100 -1.2995
   25MOL   H27413762   4.786   4.903   8.001 -1.0111 -2.0288  0.9632
   25MOL   H27513763   4.900   5.072   8.089  0.2022  1.8016  0.9148
   25MOL   H27613764   5.114   5.171   0.035 -1.0127 -0.1941  0.9645
   25MOL   H27713765   5.323   5.145   0.110  2.0816 -0.4142  1.1365
   25MOL   H27813766   5.315   4.786   8.128 -1.0595 -0.5802  0.3357
   25MOL   H27913767   5.096   4.697   8.039 -2.6388  0.5281  0.1948
   25MOL   H28013768   4.629   4.913   8.026  1.4735 -0.7680  1.7724
   25MOL   H28113769   4.389   4.921   8.002 -0.2264  0.5844  0.5984
   25MOL   C28213770   5.462   5.037   0.027  0.3249 -0.8475 -0.3742
   25MOL   C28313771   5.547   5.155   0.062 -0.4717  0.8177  0.2704
   25MOL   C28413772   5.533   5.236   0.174 -0.0196  0.2897  0.2284
   25MOL   C28513773   5.601   5.351   0.176 -0.6407  0.0683  0.7961
   25MOL   C28613774   5.689   5.395   0.082 -0.7007  0.1895 -0.1314
   25MOL   C28713775   5.755   5.531   0.092 -0.0155 -1.1057 -0.1709
   25MOL   N28813776   5.745   5.617   8.140  0.3011  0.1745  0.1146
   25MOL   C28913777   5.674   5.605   8.015  0.2369 -0.0686 -0.0724
   25MOL   C29013778   5.540   5.553   8.011 -0.3837 -0.2694 -0.6743
   25MOL   C29113779   5.467   5.564   7.897  0.3736  0.2131 -0.3689
   25MOL   C29213780   5.523   5.613   7.779  0.0822 -0.0520  0.6623
   25MOL   N29313781   5.463   5.594   7.653 -0.0305 -0.2311  0.0949
   25MOL   C29413782   5.658   5.653   7.775  0.1298 -0.1240 -0.3589
   25MOL   C29513783   5.732   5.647   7.900  0.0992 -0.0887  0.2548
   25MOL   O29613784   5.814   5.555   0.193  0.0281 -0.3336 -0.1413
   25MOL   C29713785   5.719   5.311   8.120  0.0794 -0.7038  0.6445
   25MOL   C29813786   5.647   5.188   8.111  0.6563  0.4147  1.2510
   25MOL   O29913787   5.505   4.947   8.108 -0.3085 -0.4685 -0.3374
   25MOL   H30013788   5.471   5.209   0.258 -0.4348 -1.2005 -0.5377
   25MOL   H30113789   5.591   5.420   0.259 -0.5693  0.2524  0.6513
   25MOL   H30213790   5.785   5.709   0.010  0.5580  0.4409 -1.9266
   25MOL   H30313791   5.503   5.498   8.096 -2.3800  1.8032 -0.1450
   25MOL   H30413792   5.365   5.527   7.895 -0.3477  2.1670 -1.7005
   25MOL   H30513793   5.510   5.537   7.584  1.4390  2.0415 -0.8497
   25MOL   H30613794   5.703   5.679   7.681  0.1160 -0.8446 -0.5670
   25MOL   H30713795   5.838   5.667   7.903 -0.0485  0.4182  2.6512
   25MOL   H30813796   5.797   5.333   8.048  0.4020  1.6944  1.6822
   25MOL   H30913797   5.663   5.115   8.032 -1.1194  0.7188  0.5759
   25MOL   C31013798   5.339   5.637   7.619  0.5488 -0.4078 -0.2302
   25MOL   C31113799   5.278   5.553   7.511 -0.1215 -0.2547 -0.1025
   25MOL   C31213800   5.146   5.506   7.525  0.6109 -0.0275  0.0752
   25MOL   C31313801   5.084   5.417   7.431 -0.3443 -0.8114 -0.1385
   25MOL   C31413802   5.158   5.385   7.315  0.2938 -0.0319  0.2290
   25MOL   C31513803   5.092   5.312   7.196  0.3836 -0.1570  0.4615
   25MOL   N31613804   5.015   5.382   7.113 -0.4870 -0.1183  0.2048
   25MOL   C31713805   4.954   5.339   6.987 -0.4904 -0.1653  0.1787
   25MOL   C31813806   4.844   5.417   6.934 -0.6953  0.5260 -0.7293
   25MOL   C31913807   4.783   5.388   6.814  0.1401  0.0794  0.8950
   25MOL   C32013808   4.833   5.284   6.730 -0.0167  0.0762  0.0468
   25MOL   N32113809   4.788   5.254   6.596  0.3348 -0.2909 -0.2959
   25MOL   C32213810   4.943   5.210   6.777 -0.3088  0.3685  0.0886
   25MOL   C32313811   4.999   5.231   6.905  0.4727  0.2618  0.1370
   25MOL   O32413812   5.114   5.194   7.172 -0.0653 -0.6294 -0.2830
   25MOL   C32513813   5.293   5.423   7.300 -0.1665  0.6274 -0.2455
   25MOL   C32613814   5.349   5.515   7.397  0.6199  0.7427  0.1558
   25MOL   O32713815   5.284   5.733   7.677  0.0429  0.7239 -0.6847
   25MOL   H32813816   5.093   5.516   7.619  0.8203  0.1026  0.1791
   25MOL   H32913817   4.986   5.374   7.445  0.1866 -1.9826  0.0265
   25MOL   H33013818   5.009   5.478   7.141  0.7930  0.0833 -0.2050
   25MOL   H33113819   4.816   5.509   6.984  1.3200  0.6781  0.1672
   25MOL   H33213820   4.697   5.444   6.779  0.2280  0.3237  1.0661
   25MOL   H33313821   4.794   5.157   6.568 -4.0843 -0.3751 -1.2968
   25MOL   H33413822   4.978   5.127   6.717  1.8923  0.8462  0.6679
   25MOL   H33513823   5.087   5.173   6.929  0.5078  0.6939  1.0969
   25MOL   H33613824   5.345   5.402   7.207 -0.9638  0.0009 -0.5599
   25MOL   H33713825   5.451   5.547   7.380  0.9117 -0.0315  0.4022
   25MOL   C33813826   4.713   5.334   6.517 -0.3238 -0.5102  0.1475
   25MOL   C33913827   4.647   5.255   6.410  0.5841 -0.2432 -0.6998
   25MOL   C34013828   4.725   5.175   6.323  0.4851 -0.2356 -0.0457
   25MOL   C34113829   4.657   5.099   6.224 -0.3163 -0.2731  0.8674
   25MOL   C34213830   4.517   5.106   6.216  0.7985  0.2258  0.1559
   25MOL   C34313831   4.442   5.021   6.120 -0.2347  0.1339  0.0687
   25MOL   N34413832   4.332   4.952   6.170 -0.5753 -0.0042 -0.1071
   25MOL   C34513833   4.304   4.916   6.307  0.5211  0.2166  0.0327
   25MOL   C34613834   4.412   4.879   6.398 -0.1147 -0.0684 -0.1437
   25MOL   C34713835   4.378   4.834   6.530  0.0029  0.1159 -0.1017
   25MOL   C34813836   4.242   4.836   6.584  0.0731 -0.2776 -0.1210
   25MOL   N34913837   4.215   4.814   6.720 -0.5344  0.1166 -0.3067
   25MOL   C35013838   4.148   4.889   6.495  0.0091 -0.2351 -0.3517
   25MOL   C35113839   4.169   4.919   6.356  0.3789 -0.3441  0.2260
   25MOL   O35213840   4.468   5.010   6.001 -0.3035  0.0068 -0.4515
   25MOL   C35313841   4.447   5.196   6.296 -0.1680  0.6883  0.4873
   25MOL   C35413842   4.507   5.268   6.395  0.0485 -0.8413 -0.1653
   25MOL   O35513843   4.682   5.458   6.533 -0.3332  0.4888 -0.0662
   25MOL   H35613844   4.832   5.170   6.337  0.3416  0.0131  1.2114
   25MOL   H35713845   4.713   5.049   6.146  0.0403  2.0631 -0.4236
   25MOL   H35813846   4.265   4.920   6.102 -0.1737 -0.7998 -0.1209
   25MOL   H35913847   4.511   4.873   6.357 -0.3043 -1.5158 -0.4028
   25MOL   H36013848   4.456   4.778   6.580 -0.9405 -0.7519  0.4170
   25MOL   H36113849   4.287   4.815   6.791 -1.8828  1.6484  1.0612
   25MOL   H36213850   4.042   4.884   6.518 -0.5717  0.9100 -2.6520
   25MOL   H36313851   4.083   4.943   6.297  1.1533  1.1182 -0.3371
   25MOL   H36413852   4.340   5.205   6.286 -0.2699 -0.6129  0.4158
   25MOL   H36513853   4.452   5.330   6.464  0.4263 -3.2690  2.4250
   25MOL   C36613854   4.098   4.807   6.789  0.0383 -0.1918 -0.8516
   25MOL   C36713855   4.110   4.827   6.939  0.2080 -0.2750  0.1635
   25MOL   C36813856   3.990   4.845   7.011  0.3919 -0.7016 -0.3874
   25MOL   C36913857   3.994   4.861   7.154  0.2121 -0.5331  0.9248
   25MOL   C37013858   4.123   4.878   7.220 -1.0815 -0.3943 -0.3167
   25MOL   C37113859   4.141   4.904   7.369 -0.4432 -0.1468  0.9956
   25MOL   N37213860   4.248   4.971   7.400 -0.2299 -0.3469 -0.3252
   25MOL   C37313861   4.287   5.021   7.530 -0.1995  0.1160  0.1914
   25MOL   C37413862   4.392   5.123   7.535 -0.2270 -0.3365  0.0592
   25MOL   C37513863   4.443   5.166   7.661  0.2042  0.3828  0.3961
   25MOL   C37613864   4.395   5.113   7.784 -0.3145 -0.0877 -1.2711
   25MOL   N37713865   4.454   5.170   7.902  0.1507 -0.1848  0.2361
   25MOL   C37813866   4.287   5.019   7.782  0.3664 -0.4115 -0.0491
   25MOL   C37913867   4.241   4.970   7.653  0.1381 -0.0669 -0.2810
   25MOL   O38013868   4.052   4.893   7.447 -0.3620  0.3021 -0.2817
   25MOL   C38113869   4.241   4.858   7.145 -0.1493 -0.3396  0.2631
   25MOL   C38213870   4.230   4.844   7.003 -0.0632  0.3206  0.1257
   25MOL   O38313871   3.993   4.778   6.732 -0.0869 -0.4873  0.4610
   25MOL   H38413872   3.897   4.847   6.957 -1.1420  0.7484  2.1918
   25MOL   H38513873   3.901   4.865   7.208 -0.5663 -3.0875 -0.1693
   25MOL   H38613874   4.307   4.987   7.320  0.5516  1.3461  0.5661
   25MOL   H38713875   4.423   5.168   7.441  1.5057 -2.2419 -0.3234
   25MOL   H38813876   4.520   5.242   7.670 -0.1476  0.6330  1.2864
   25MOL   H38913877   4.391   5.215   7.968 -1.6914 -1.3809 -0.6501
   25MOL   H39013878   4.239   4.978   7.870 -1.9642  1.5450 -0.3565
   25MOL   H39113879   4.150   4.911   7.654  0.5282 -0.6558  0.9612
   25MOL   H39213880   4.343   4.849   7.181 -0.0861  0.5078  0.3202
   25MOL   H39313881   4.323   4.819   6.954 -0.2014 -0.8956  0.4628
   25MOL   C39413882   4.585   5.175   7.919 -0.4554  0.7999  0.8345
   25MOL   C39513883   4.632   5.259   8.036 -0.2059 -0.8670  0.1296
   25MOL   C39613884   4.683   5.192   8.143  0.5810  0.2436 -0.4197
   25MOL   C39713885   4.733   5.274   0.101 -0.2348 -0.4443 -0.2375
   25MOL   C39813886   4.726   5.415   0.102  0.7669 -0.4016  0.7172
   25MOL   C39913887   4.796   5.491   0.207  0.1051  0.6523  0.2031
   25MOL   N40013888   4.754   5.465   0.335  0.8567  0.2353  0.9970
   25MOL   C40113889   4.802   5.509   0.460  0.0466  0.2920 -0.2224
   25MOL   C40213890   4.835   5.644   0.477  0.2057 -0.5110  0.0501
   25MOL   C40313891   4.876   5.693   0.604 -0.2149  0.7337  0.0460
   25MOL   C40413892   4.893   5.603   0.707 -0.6026 -0.0601 -0.1581
   25MOL   N40513893   4.942   5.647   0.834 -0.1399 -0.2933  0.2933
   25MOL   C40613894   4.863   5.470   0.692  0.2488  0.5842  0.3184
   25MOL   C40713895   4.813   5.417   0.569 -0.4926  0.7120 -0.3612
   25MOL   O40813896   4.863   5.597   0.182 -0.9318  0.0715 -0.0338
   25MOL   C40913897   4.666   5.475   8.141 -0.0060 -0.5732  0.1197
   25MOL   C41013898   4.618   5.396   8.030  0.4774 -0.2979  0.2920
   25MOL   O41113899   4.656   5.093   7.868  0.4219 -0.2243  0.0738
   25MOL   H41213900   4.683   5.085   0.011  0.1651  0.1650 -1.0138
   25MOL   H41313901   4.793   5.231   0.180  0.2487  1.9118  0.7380
   25MOL   H41413902   4.702   5.379   0.339 -0.1364  0.8014  0.4737
   25MOL   H41513903   4.826   5.710   0.391  0.6860 -0.2523  0.1911
   25MOL   H41613904   4.891   5.799   0.620  1.8487  0.5744 -0.6581
   25MOL   H41713905   5.019   5.712   0.835 -0.1835 -0.1640 -2.0888
   25MOL   H41813906   4.895   5.415   0.779  1.7427  1.4315  0.3239
   25MOL   H41913907   4.788   5.313   0.559 -0.5902  0.8374 -1.4127
   25MOL   H42013908   4.649   5.582   8.136  1.4909 -0.1353  3.0032
   25MOL   H42113909   4.577   5.434   7.938  0.4513 -1.0386 -0.0110
   25MOL   C42213910   4.870   5.642   0.949 -0.1194 -0.1398 -0.4215
   25MOL   C42313911   4.897   5.750   1.041 -0.6430  0.1691 -0.2909
   25MOL   C42413912   4.959   5.869   0.997 -0.0244 -0.0753 -0.6991
   25MOL   C42513913   4.985   5.976   1.085 -0.3525  0.4177  0.0545
   25MOL   C42613914   4.963   5.961   1.221  0.9644 -0.1452  0.0169
   25MOL   C42713915   4.989   6.072   1.321 -0.2648 -0.3060  0.1008
   25MOL   N42813916   5.076   6.167   1.287  0.7668  0.2256 -1.3756
   25MOL   C42913917   5.111   6.285   1.371 -0.2793  0.2781 -0.4331
   25MOL   C43013918   5.024   6.352   1.464 -0.3155 -0.1078  0.0808
   25MOL   C43113919   5.067   6.471   1.536 -0.4310 -0.1928  0.4510
   25MOL   C43213920   5.193   6.529   1.498  0.1281  0.1348  0.4756
   25MOL   N43313921   5.227   6.644   1.570  0.2185 -0.6483  0.5138
   25MOL   C43413922   5.282   6.457   1.410 -0.2008 -0.2446  0.1074
   25MOL   C43513923   5.236   6.343   1.346 -0.6919 -0.4142 -0.4153
   25MOL   O43613924   4.930   6.066   1.429  0.0923 -0.2464  0.5909
   25MOL   C43713925   4.902   5.842   1.270 -0.6954  0.9249 -0.6979
   25MOL   C43813926   4.874   5.735   1.183 -0.0587  0.1217 -0.4194
   25MOL   O43913927   4.780   5.559   0.958  0.2290 -0.8478 -0.0907
   25MOL   H44013928   4.974   5.886   0.892  1.0313  1.7655 -0.2722
   25MOL   H44113929   5.023   6.068   1.043  0.1388  1.8372  3.4240
   25MOL   H44213930   5.126   6.150   1.201  1.7977 -1.0120 -0.5621
   25MOL   H44313931   4.922   6.320   1.481 -1.0344  1.9536 -0.2542
   25MOL   H44413932   5.001   6.508   1.613  0.6908  0.3700  1.1502
   25MOL   H44513933   5.199   6.642   1.667 -0.7040  4.0425  0.4692
   25MOL   H44613934   5.380   6.501   1.393 -0.7634  1.4404  1.0845
   25MOL   H44713935   5.290   6.305   1.260 -0.9792 -1.3400 -0.1953
   25MOL   H44813936   4.884   5.838   1.377  3.6929  0.8567  0.1580
   25MOL   H44913937   4.831   5.643   1.217  1.0056 -0.5082 -0.7471
   25MOL   C45013938   5.310   6.741   1.533 -1.4870  0.1956 -0.6380
   25MOL   C45113939   5.323   6.855   1.626 -0.3164  0.4292 -0.1510
   25MOL   C45213940   5.226   6.957   1.626 -0.4234 -0.1894 -0.0737
   25MOL   C45313941   5.243   7.062   1.716  0.1557 -1.0325  0.5471
   25MOL   C45413942   5.362   7.075   1.794 -0.0154 -0.1419  0.5305
   25MOL   C45513943   5.367   7.181   1.899 -0.1685  0.7455  0.3987
   25MOL   N45613944   5.451   7.289   1.892 -0.3936 -0.5988  0.2728
   25MOL   C45713945   5.555   7.319   1.796 -0.1006  0.1555 -1.5288
   25MOL   C45813946   5.557   7.267   1.666  0.7595  0.3581 -0.0106
   25MOL   C45913947   5.666   7.288   1.585  0.6879  0.5115  0.5394
   25MOL   C46013948   5.784   7.350   1.631  0.2014  0.2007 -0.1746
   25MOL   N46113949   5.895   7.347   1.534  0.2933 -0.5781  0.5717
   25MOL   C46213950   5.774   7.419   1.757  0.0472 -0.0080  0.0243
   25MOL   C46313951   5.666   7.395   1.844  0.1420  0.3071 -0.7581
   25MOL   O46413952   5.296   7.163   1.999  0.2288 -0.0339  0.7247
   25MOL   C46513953   5.465   6.983   1.776  0.1907  0.2315 -0.3493
   25MOL   C46613954   5.446   6.872   1.700  0.1910 -0.2781  0.4795
   25MOL   O46713955   5.371   6.744   1.425 -0.2663  0.2036 -0.1242
   25MOL   H46813956   5.141   6.943   1.562 -0.5781 -1.6657  0.4393
   25MOL   H46913957   5.171   7.142   1.726  1.3862  0.2463 -0.6346
   25MOL   H47013958   5.455   7.337   1.981  1.5278 -0.7584  0.2911
   25MOL   H47113959   5.470   7.213   1.631  2.1143 -2.8273  1.3594
   25MOL   H47213960   5.651   7.256   1.483  2.1049  0.1512  0.4326
   25MOL   H47313961   5.878   7.289   1.453 -1.0467 -0.1109  0.5075
   25MOL   H47413962   5.854   7.473   1.806 -0.1831 -1.4051  2.0296
   25MOL   H47513963   5.657   7.439   1.942 -2.8798  0.1798 -0.9416
   25MOL   H47613964   5.550   6.985   1.843 -0.8069 -0.7799  0.9630
   25MOL   H47713965   5.524   6.797   1.706  1.5438  0.9959 -0.8303
   25MOL   C47813966   6.024   7.372   1.560  0.7030 -0.1890 -0.8667
   25MOL   C47913967   6.117   7.323   1.453  0.3217  0.8057 -0.9866
   25MOL   C48013968   6.074   7.219   1.364  0.0533  0.3404 -0.3838
   25MOL   C48113969   6.155   7.173   1.258 -0.9386  0.5876 -0.0646
   25MOL   C48213970   6.288   7.225   1.244  0.0387 -0.6066 -0.6272
   25MOL   C48313971   6.386   7.163   1.151  0.1525  0.1621  0.3648
   25MOL   N48413972   6.337   7.150   1.030  0.3390 -0.6035  0.4926
   25MOL   C48513973   6.389   7.089   0.913 -0.0336 -0.4151 -0.3017
   25MOL   C48613974   6.525   7.046   0.899  0.3392 -0.5450  0.4026
   25MOL   C48713975   6.566   6.977   0.784 -0.2726  0.0083 -0.8564
   25MOL   C48813976   6.471   6.952   0.680 -0.4551  0.3191  0.4029
   25MOL   N48913977   6.502   6.879   0.560 -0.1637  0.2077 -0.1903
   25MOL   C49013978   6.341   7.002   0.692 -0.6718 -0.0347  0.0656
   25MOL   C49113979   6.297   7.070   0.805  0.0768 -0.2121  0.1289
   25MOL   O49213980   6.491   7.117   1.193 -0.2680 -0.4562 -0.0114
   25MOL   C49313981   6.334   7.329   1.327 -0.2825  0.7435 -0.2638
   25MOL   C49413982   6.250   7.376   1.438  1.1136  0.1588  0.4355
   25MOL   O49513983   6.063   7.457   1.646 -0.0332  0.4699 -0.9832
   25MOL   H49613984   5.978   7.171   1.378  0.2640 -0.4999 -1.6881
   25MOL   H49713985   6.132   7.089   1.193  0.4774 -1.4950  2.0506
   25MOL   H49813986   6.245   7.191   1.019  0.6548 -0.1908 -0.7333
   25MOL   H49913987   6.590   7.043   0.985 -0.4213 -0.7921  0.9648
   25MOL   H50013988   6.669   6.944   0.784 -0.5663 -0.9263 -2.3315
   25MOL   H50113989   6.435   6.815   0.520  0.1123 -0.4533  0.3944
   25MOL   H50213990   6.267   6.999   0.613  0.6376 -0.7027 -1.1567
   25MOL   H50313991   6.196   7.096   0.831  0.6346  1.2232  0.9526
   25MOL   H50413992   6.433   7.370   1.311  0.4789 -0.8289  0.3271
   25MOL   H50513993   6.291   7.456   1.497  2.1592 -0.2402  0.2599
   25MOL   C50613994   6.615   6.890   0.487  0.3117 -0.0590 -0.1157
   25MOL   C50713995   6.635   6.777   0.386  0.0460 -0.5769 -0.0192
   25MOL   C50813996   6.530   6.714   0.319  0.2920 -0.8694 -0.3544
   25MOL   C50913997   6.557   6.612   0.230 -0.3607 -0.0927  0.0664
   25MOL   C51013998   6.693   6.571   0.208  0.1494 -0.0204  0.2452
   25MOL   C51113999   6.720   6.452   0.125 -0.2255 -0.2637  0.2799
   25MOL   N51214000   6.823   6.460   0.036 -0.1380  0.1728 -0.6263
   25MOL   C51314001   6.877   6.353   8.106  0.1426 -0.1331  0.3942
   25MOL   C51414002   7.014   6.338   8.101 -0.3691  0.5969 -0.0017
   25MOL   C51514003   7.070   6.233   8.022 -0.2256 -0.0716  0.2830
   25MOL   C51614004   6.988   6.143   7.952  0.2645  0.8168  0.1032
   25MOL   N51714005   7.028   6.038   7.865  0.1099 -0.3388 -0.4689
   25MOL   C51814006   6.848   6.165   7.950 -0.8873 -0.0181 -0.6209
   25MOL   C51914007   6.796   6.260   8.033  1.2586 -0.3331 -0.6355
   25MOL   O52014008   6.655   6.350   0.135 -0.2039  0.2751 -0.4989
   25MOL   C52114009   6.796   6.641   0.272 -0.6062  0.5297 -0.0975
   25MOL   C52214010   6.765   6.743   0.355 -0.7501 -0.1930 -0.2953
   25MOL   O52314011   6.708   6.976   0.497 -0.1147 -1.0406 -0.8505
   25MOL   H52414012   6.426   6.743   0.326  0.6570  1.4510 -3.4029
   25MOL   H52514013   6.477   6.561   0.177 -0.6653  0.7072 -0.2417
   25MOL   H52614014   6.869   6.549   0.024  1.1473 -0.4645 -0.4072
   25MOL   H52714015   7.085   6.404   0.003  0.1748 -0.1319  0.2203
   25MOL   H52814016   7.178   6.225   8.015 -0.2389  0.4879 -0.5810
   25MOL   H52914017   6.963   6.007   7.794  1.1597 -1.5020 -0.9609
   25MOL   H53014018   6.783   6.099   7.896 -2.2356 -0.8745  1.9473
   25MOL   H53114019   6.693   6.294   8.034  2.0272  2.0786 -0.4771
   25MOL   H53214020   6.900   6.618   0.251 -0.0866  1.2459  1.5872
   25MOL   H53314021   6.841   6.792   0.413  1.4544 -1.1822 -2.2886
   25MOL   C53414022   7.148   5.993   7.838 -0.1276 -0.1674  0.1299
   25MOL   C53514023   7.163   5.903   7.718  0.6079  1.0238 -0.3034
   25MOL   C53614024   7.283   5.874   7.655 -0.7049  0.0343 -0.4067
   25MOL   C53714025   7.288   5.792   7.537  0.5891 -0.5639  0.6051
   25MOL   C53814026   7.169   5.725   7.495  0.6498  0.2081  0.4286
   25MOL   C53914027   7.165   5.633   7.379  0.2068 -0.2326 -0.1662
   25MOL   N54014028   7.285   5.581   7.343 -0.4082  0.5947  0.2924
   25MOL   C54114029   7.315   5.500   7.237  0.1915 -0.3224 -0.1425
   25MOL   C54214030   7.240   5.463   7.127 -0.2697  0.0555  0.3344
   25MOL   C54314031   7.285   5.372   7.030  0.6181  1.1590  0.0549
   25MOL   C54414032   7.418   5.321   7.035  0.4336 -0.4141 -0.4533
   25MOL   N54514033   7.470   5.238   6.935 -0.0200 -0.1854 -0.1331
   25MOL   C54614034   7.493   5.353   7.146 -0.8728 -0.2353 -0.5183
   25MOL   C54714035   7.445   5.445   7.244 -0.1372  1.0717 -0.2258
   25MOL   O54814036   7.064   5.579   7.340  0.6636 -0.6713 -0.4628
   25MOL   C54914037   7.052   5.748   7.564 -0.4448  0.2881 -0.1323
   25MOL   C55014038   7.046   5.833   7.674  0.4848 -0.7818 -0.2177
   25MOL   O55114039   7.244   6.018   7.905  0.3610  0.3900  0.1970
   25MOL   H55214040   7.376   5.904   7.701 -1.0178  1.0132 -0.3895
   25MOL   H55314041   7.379   5.765   7.487  0.2118  1.5592 -1.3061
   25MOL   H55414042   7.367   5.601   7.398  0.8188  1.3054 -1.7328
   25MOL   H55514043   7.142   5.508   7.121  0.7722  2.6794  1.9058
   25MOL   H55614044   7.229   5.336   6.945  0.4458  1.0634  0.2105
   25MOL   H55714045   7.567   5.209   6.936  0.1242  0.2641 -0.9989
   25MOL   H55814046   7.595   5.317   7.157 -0.9486 -0.4447 -0.5102
   25MOL   H55914047   7.499   5.472   7.334 -0.0452  0.1337  0.0074
   25MOL   H56014048   6.962   5.696   7.534  0.8342 -2.9430  1.4410
   25MOL   H56114049   6.946   5.846   7.713  1.7324 -0.5177  3.0764
   25MOL   H56214050   7.426   5.237   6.844 -0.9592 -0.1501  0.3087
   26MOL     C114051   4.166   1.629   0.037  0.2945 -0.0178  0.2335
   26MOL     C214052   4.079   1.666   8.069  0.2070  0.4760  0.1612
   26MOL     C314053   3.950   1.723   8.072  0.8377 -0.5164 -0.2502
   26MOL     C414054   3.884   1.756   7.948  0.2147  0.4723 -0.7327
   26MOL     C514055   3.950   1.737   7.827  0.3818 -0.4088  0.5917
   26MOL     C614056   3.878   1.769   7.705  0.2636 -0.3067  0.5924
   26MOL     N714057   3.950   1.804   7.596  0.3120  0.1028  0.0772
   26MOL     C814058   3.912   1.845   7.464  1.3990  0.8383  0.0264
   26MOL     C914059   4.016   1.880   7.371 -0.2403  0.7215  0.1942
   26MOL    C1014060   3.985   1.902   7.236  0.6271  0.4994  0.1409
   26MOL    C1114061   3.856   1.891   7.183  0.3208 -0.6659  1.0797
   26MOL    N1214062   3.829   1.913   7.042  0.3946 -0.3941 -0.4115
   26MOL    C1314063   3.754   1.849   7.273 -0.0880 -0.3069 -0.2724
   26MOL    C1414064   3.782   1.820   7.408  0.6438  0.8284  0.3542
   26MOL    O1514065   3.753   1.780   7.707  0.1703 -0.3553  0.7239
   26MOL    C1614066   4.082   1.680   7.824 -0.4235  0.1607  0.3643
   26MOL    C1714067   4.138   1.641   7.946 -0.2362 -0.0370  0.1072
   26MOL    O1814068   4.287   1.604   0.035  0.2481  0.1902  0.6042
   26MOL    H1914069   3.900   1.734   0.021 -0.7042  1.3900 -1.2496
   26MOL    H2014070   3.785   1.798   7.953  1.1766  2.9911 -2.3758
   26MOL    H2114071   4.048   1.817   7.616  0.5368  1.1104 -1.5602
   26MOL    H2214072   4.119   1.891   7.404  0.0477 -2.1442  0.3866
   26MOL    H2314073   4.065   1.926   7.168  0.1175 -1.2914 -1.1381
   26MOL    H2414074   3.740   1.947   7.008  1.3352 -0.5135 -3.0973
   26MOL    H2514075   3.653   1.846   7.234  0.3928  1.9739 -1.8378
   26MOL    H2614076   3.704   1.777   7.468  2.0562 -1.8521  0.3426
   26MOL    H2714077   4.140   1.667   7.734 -0.4360 -2.8385  0.7576
   26MOL    H2814078   4.235   1.593   7.946 -0.6273 -0.8921 -1.8290
   26MOL    H2914079   4.109   1.620   0.130 -0.7807 -0.0875 -0.4220
   26MOL    C3014080   3.907   1.896   6.935 -0.5314  0.0319  0.2934
   26MOL    C3114081   3.846   1.930   6.799  0.1928 -0.1439  0.2017
   26MOL    C3214082   3.722   1.874   6.769 -0.3575  0.4768 -0.2649
   26MOL    C3314083   3.665   1.887   6.640  0.3920 -0.3435  0.4409
   26MOL    C3414084   3.730   1.966   6.543  0.5987 -0.3278  0.4329
   26MOL    C3514085   3.681   1.972   6.398  0.0959 -0.1516 -0.1506
   26MOL    N3614086   3.669   2.091   6.342  0.2743  0.3897 -0.3811
   26MOL    C3714087   3.638   2.126   6.214 -0.9985 -0.1859  0.0177
   26MOL    C3814088   3.546   2.226   6.199  0.1055  0.3492  0.5261
   26MOL    C3914089   3.502   2.267   6.074  0.3628 -0.2387  0.3266
   26MOL    C4014090   3.559   2.207   5.954 -0.6577 -0.4269 -0.6286
   26MOL    N4114091   3.518   2.243   5.817  0.3364 -0.0549  0.3371
   26MOL    C4214092   3.662   2.120   5.966 -0.1004  0.0798 -0.1567
   26MOL    C4314093   3.702   2.073   6.096  0.5091 -0.0018 -0.2765
   26MOL    O4414094   3.636   1.865   6.347  0.3503  0.4596 -0.2911
   26MOL    C4514095   3.856   2.021   6.571  0.0319  0.1315  0.6094
   26MOL    C4614096   3.914   2.000   6.696 -0.4613  0.3892  0.1128
   26MOL    O4714097   4.025   1.852   6.942 -0.3880 -0.1917 -0.2303
   26MOL    H4814098   3.668   1.807   6.834  0.8616 -0.0888  0.1708
   26MOL    H4914099   3.570   1.842   6.615  0.3837  0.5297 -1.2117
   26MOL    H5014100   3.671   2.168   6.407 -0.8539 -1.4654  1.9572
   26MOL    H5114101   3.518   2.277   6.290 -2.2472  2.9964 -1.5907
   26MOL    H5214102   3.422   2.339   6.065 -1.5216 -2.4003 -0.6044
   26MOL    H5314103   3.587   2.221   5.746  0.0875 -0.3708  0.1910
   26MOL    H5414104   3.705   2.089   5.871  2.0959  2.4308  0.0305
   26MOL    H5514105   3.782   2.000   6.099 -0.8375 -1.6654 -2.6469
   26MOL    H5614106   3.903   2.081   6.494 -0.4272  0.1357  0.3306
   26MOL    H5714107   4.013   2.041   6.712 -0.0228 -1.1038  1.3912
   26MOL    C5814108   3.400   2.279   5.775  0.1138  0.3549 -0.5231
   26MOL    C5914109   3.382   2.284   5.626  0.3754  0.2794  1.1251
   26MOL    C6014110   3.278   2.218   5.557  0.1123 -0.5885  0.3670
   26MOL    C6114111   3.257   2.236   5.418 -0.1334 -0.3634  0.6618
   26MOL    C6214112   3.346   2.316   5.343 -0.0314  0.2924 -0.3590
   26MOL    C6314113   3.320   2.333   5.198 -0.2706  0.1913 -0.2311
   26MOL    N6414114   3.371   2.437   5.137 -0.2246  0.8017 -0.1932
   26MOL    C6514115   3.348   2.486   5.009 -0.1341  0.4434 -0.3962
   26MOL    C6614116   3.453   2.566   4.947 -0.3216 -0.1485  0.3050
   26MOL    C6714117   3.420   2.633   4.821 -0.3219 -0.0070 -0.4253
   26MOL    C6814118   3.298   2.620   4.757  0.8191 -0.7490  0.5573
   26MOL    N6914119   3.258   2.690   4.638  0.0456  0.0282 -0.5128
   26MOL    C7014120   3.203   2.544   4.823  0.2059  0.1087 -0.5535
   26MOL    C7114121   3.226   2.473   4.940 -0.2043 -0.0159 -0.0244
   26MOL    O7214122   3.250   2.245   5.137 -0.2008 -0.0612  0.1112
   26MOL    C7314123   3.453   2.383   5.410  0.3352  0.4156  0.0172
   26MOL    C7414124   3.470   2.366   5.548  0.2803 -0.1136  0.7610
   26MOL    O7514125   3.309   2.322   5.847  0.5061  0.4442 -0.1462
   26MOL    H7614126   3.217   2.150   5.615 -0.8422 -1.0983 -1.2065
   26MOL    H7714127   3.183   2.176   5.368 -0.3140 -0.0842  0.5888
   26MOL    H7814128   3.436   2.494   5.190  2.4426 -0.5867 -1.8229
   26MOL    H7914129   3.548   2.590   4.993  0.4218 -0.8017 -0.8650
   26MOL    H8014130   3.498   2.692   4.777  2.0304 -1.5449  1.5770
   26MOL    H8114131   3.270   2.790   4.639  0.8432 -0.0584 -1.1783
   26MOL    H8214132   3.109   2.538   4.770  0.3365 -0.0906 -0.7585
   26MOL    H8314133   3.141   2.423   4.984 -1.3528  1.2523 -0.7624
   26MOL    H8414134   3.509   2.457   5.355 -1.0940 -0.3311 -2.4770
   26MOL    H8514135   3.565   2.394   5.589  0.5382  1.4532 -0.8576
   26MOL    C8614136   3.212   2.640   4.525  0.7062  0.3847  0.3261
   26MOL    C8714137   3.156   2.742   4.431 -0.1953  0.0049  0.2640
   26MOL    C8814138   3.091   2.853   4.483 -0.9577  0.5432 -0.4039
   26MOL    C8914139   3.054   2.960   4.402  0.7671 -0.3142 -0.0207
   26MOL    C9014140   3.066   2.959   4.261 -0.5868 -0.5588 -0.4476
   26MOL    C9114141   3.030   3.078   4.174 -0.7546 -0.0035  0.2830
   26MOL    N9214142   3.087   3.069   4.051 -0.2866 -0.2430 -0.0057
   26MOL    C9314143   3.094   3.162   3.948  0.1620  0.7178 -0.2652
   26MOL    C9414144   3.077   3.300   3.979 -0.0066 -0.2193 -0.2376
   26MOL    C9514145   3.097   3.400   3.873 -0.1623  0.6602 -0.5846
   26MOL    C9614146   3.142   3.360   3.745  0.3179  0.1166  0.0192
   26MOL    N9714147   3.174   3.445   3.635 -0.0920 -0.2409  0.2727
   26MOL    C9814148   3.162   3.223   3.718  0.6820  0.0939 -0.9257
   26MOL    C9914149   3.146   3.128   3.821 -0.0982  0.5441 -0.3221
   26MOL   O10014150   2.959   3.177   4.216 -0.6430 -0.0812  0.3277
   26MOL   C10114151   3.110   2.832   4.209 -0.3764 -0.0584  0.2176
   26MOL   C10214152   3.158   2.728   4.287 -0.8358 -0.1076  0.4230
   26MOL   O10314153   3.215   2.520   4.494  0.5059  0.4074  0.3121
   26MOL   H10414154   3.069   2.868   4.587 -1.9572 -3.5017  0.0407
   26MOL   H10514155   3.007   3.048   4.443  2.2131 -0.1287  1.2927
   26MOL   H10614156   3.137   2.982   4.041  3.1887  1.3629  2.2228
   26MOL   H10714157   3.036   3.333   4.074 -0.0392 -2.4472  0.5495
   26MOL   H10814158   3.077   3.503   3.900 -0.8403 -0.3578  3.1213
   26MOL   H10914159   3.244   3.422   3.566  0.2911 -1.6892  1.1336
   26MOL   H11014160   3.215   3.186   3.631 -1.2708 -0.4993 -1.8952
   26MOL   H11114161   3.168   3.025   3.797  1.9175  1.3105 -1.8982
   26MOL   H11214162   3.128   2.815   4.104  0.9752  0.0766  0.4261
   26MOL   H11314163   3.204   2.641   4.243 -0.4382  0.3902 -0.1497
   26MOL   C11414164   3.117   3.559   3.599  0.3707 -0.0563 -0.6831
   26MOL   C11514165   3.182   3.627   3.472 -0.3447  0.2926 -0.1011
   26MOL   C11614166   3.326   3.640   3.461 -0.2006 -0.4406  0.0452
   26MOL   C11714167   3.376   3.714   3.353 -0.6946  0.4445  0.4259
   26MOL   C11814168   3.289   3.783   3.268 -0.0084  0.2986 -0.5491
   26MOL   C11914169   3.348   3.887   3.177 -0.1479 -0.5096  0.1625
   26MOL   N12014170   3.283   3.896   3.059 -0.2771 -0.2972  0.2176
   26MOL   C12114171   3.301   3.977   2.947 -0.2949 -0.0686 -0.0241
   26MOL   C12214172   3.429   4.016   2.915 -0.0510 -0.4833  0.1141
   26MOL   C12314173   3.461   4.085   2.797  0.4306  0.1010  0.4689
   26MOL   C12414174   3.356   4.141   2.720  0.1260  0.5461 -0.2800
   26MOL   N12514175   3.399   4.229   2.613 -0.2897  0.3027 -0.3890
   26MOL   C12614176   3.226   4.112   2.756  0.6487 -0.1929  0.3546
   26MOL   C12714177   3.196   4.022   2.861  0.0878 -0.5568 -0.2586
   26MOL   O12814178   3.446   3.953   3.210 -0.5122 -0.0421  0.6824
   26MOL   C12914179   3.146   3.758   3.269 -0.3824  0.6966  0.7994
   26MOL   C13014180   3.091   3.683   3.375  0.2610  0.4218  0.2900
   26MOL   O13114181   3.001   3.592   3.628  0.1726 -0.2379 -0.5791
   26MOL   H13214182   3.397   3.607   3.535  0.8050 -0.6921 -1.0242
   26MOL   H13314183   3.482   3.726   3.338 -0.7049  0.8605  0.7101
   26MOL   H13414184   3.204   3.833   3.056 -0.1550 -0.4141 -0.9393
   26MOL   H13514185   3.500   3.975   2.985 -1.6097 -0.4358  1.7294
   26MOL   H13614186   3.568   4.096   2.783  0.4022  1.7407  1.4352
   26MOL   H13714187   3.499   4.239   2.602 -0.0641 -1.4157 -0.0235
   26MOL   H13814188   3.139   4.135   2.695  0.9930 -1.6047 -0.6944
   26MOL   H13914189   3.090   4.007   2.875  0.1709  0.9078  2.1997
   26MOL   H14014190   3.073   3.796   3.199 -0.5806 -2.0912 -0.5820
   26MOL   H14114191   2.983   3.682   3.386  0.3870 -0.7701  1.6705
   26MOL   C14214192   3.333   4.294   2.516 -0.1869 -0.4851 -0.7890
   26MOL   C14314193   3.414   4.377   2.423 -0.0841 -0.2067 -0.0110
   26MOL   C14414194   3.428   4.333   2.291  0.7558  0.3873 -0.0095
   26MOL   C14514195   3.519   4.386   2.200  0.1650 -0.2070  0.9015
   26MOL   C14614196   3.602   4.495   2.247 -0.7514 -0.4328 -0.6356
   26MOL   C14714197   3.709   4.551   2.156 -0.1635 -0.7503 -0.4657
   26MOL   N14814198   3.829   4.501   2.146  0.0988 -0.1695  0.3399
   26MOL   C14914199   3.882   4.391   2.208 -0.2818  0.1336  0.6716
   26MOL   C15014200   3.992   4.393   2.296 -0.2783 -0.0022  0.3939
   26MOL   C15114201   4.040   4.270   2.350  0.1129  0.2454 -0.0143
   26MOL   C15214202   3.972   4.150   2.316  0.0027  0.6424  0.3507
   26MOL   N15314203   4.010   4.014   2.364 -0.5919  0.3339 -0.1215
   26MOL   C15414204   3.867   4.152   2.224 -0.4992  0.2586  0.1775
   26MOL   C15514205   3.822   4.270   2.161 -1.0938 -0.0352 -0.3386
   26MOL   O15614206   3.678   4.654   2.097 -0.0128 -0.0707 -0.0161
   26MOL   C15714207   3.582   4.548   2.377 -0.3054 -0.1596 -0.0334
   26MOL   C15814208   3.494   4.484   2.468 -0.5914 -0.2180  0.3852
   26MOL   O15914209   3.212   4.275   2.499 -0.0572 -0.1999  0.0851
   26MOL   H16014210   3.367   4.254   2.250  0.8755  1.1987 -1.7786
   26MOL   H16114211   3.529   4.350   2.099  0.1895 -2.4786  1.6966
   26MOL   H16214212   3.891   4.547   2.081 -1.0810  0.5885 -0.2582
   26MOL   H16314213   4.037   4.488   2.320  3.1468 -0.9036 -1.9991
   26MOL   H16414214   4.128   4.275   2.414  1.1345  0.0553 -1.3890
   26MOL   H16514215   3.930   3.971   2.407 -0.2830 -0.4464 -0.3217
   26MOL   H16614216   3.830   4.060   2.180 -1.1229  0.5845  0.0288
   26MOL   H16714217   3.744   4.259   2.088 -1.5041  3.0761 -0.4519
   26MOL   H16814218   3.642   4.624   2.424  1.4790 -2.4295  1.4606
   26MOL   H16914219   3.493   4.519   2.571 -0.5311  0.6039  0.1093
   26MOL   C17014220   4.130   3.960   2.393 -0.7502 -0.4794 -0.3814
   26MOL   C17114221   4.123   3.832   2.480 -0.2465  0.4698 -0.1099
   26MOL   C17214222   4.028   3.733   2.459 -0.1935  0.6273  0.1189
   26MOL   C17314223   4.009   3.629   2.558  0.1156  0.4403  0.1227
   26MOL   C17414224   4.091   3.623   2.675 -0.1157  0.8833  0.7661
   26MOL   C17514225   4.076   3.519   2.786 -0.0777 -0.3100  0.3599
   26MOL   N17614226   4.106   3.569   2.907 -0.3472 -0.0011 -0.2172
   26MOL   C17714227   4.127   3.499   3.026  0.6462  0.5255  0.0764
   26MOL   C17814228   4.096   3.565   3.149  0.8958  0.0045 -0.2452
   26MOL   C17914229   4.109   3.499   3.267 -0.2831 -0.2209 -0.4229
   26MOL   C18014230   4.159   3.364   3.263  0.3577 -0.5072 -0.8559
   26MOL   N18114231   4.190   3.303   3.389  0.0161 -0.1890 -0.1471
   26MOL   C18214232   4.187   3.299   3.142 -0.8222  0.3285 -0.6505
   26MOL   C18314233   4.171   3.366   3.024  0.0206 -1.0521 -0.1460
   26MOL   O18414234   4.022   3.405   2.768  0.1581 -0.1044  0.0525
   26MOL   C18514235   4.188   3.718   2.687  0.9199  0.0287  0.5516
   26MOL   C18614236   4.201   3.823   2.596 -0.2179 -0.4713 -0.3638
   26MOL   O18714237   4.242   4.006   2.368 -0.2597 -0.6491  0.0486
   26MOL   H18814238   3.964   3.731   2.373  1.6640 -0.6997 -1.2702
   26MOL   H18914239   3.943   3.545   2.542 -0.4065  0.8058  0.3499
   26MOL   H19014240   4.119   3.669   2.908  0.7754 -0.1459  0.6864
   26MOL   H19114241   4.055   3.665   3.145 -0.3365 -0.4816 -0.2151
   26MOL   H19214242   4.091   3.552   3.359 -0.5492  1.6348 -1.5094
   26MOL   H19314243   4.212   3.363   3.467 -2.5393  0.3493  0.1870
   26MOL   H19414244   4.216   3.196   3.133 -3.9399 -0.3792 -3.8661
   26MOL   H19514245   4.192   3.312   2.932  0.8073  1.0047 -1.1897
   26MOL   H19614246   4.262   3.734   2.764  1.0834  2.8253 -0.1147
   26MOL   H19714247   4.284   3.892   2.605  0.4430 -1.3160  0.0455
   26MOL   C19814248   4.203   3.173   3.430  0.1124 -0.0389  0.0842
   26MOL   C19914249   4.234   3.157   3.578  0.4697  0.2674  0.0425
   26MOL   C20014250   4.302   3.044   3.624 -0.5210 -0.0438 -0.0049
   26MOL   C20114251   4.331   3.028   3.759  0.3292 -0.5208  0.6804
   26MOL   C20214252   4.274   3.119   3.849 -0.2488  0.2037 -0.2046
   26MOL   C20314253   4.289   3.104   3.995 -0.0413  0.4796  0.1895
   26MOL   N20414254   4.334   2.984   4.045 -0.0125 -0.1435  0.6704
   26MOL   C20514255   4.365   2.959   4.183 -0.0185 -0.7204  0.3144
   26MOL   C20614256   4.485   2.896   4.216  0.3301 -0.1558  0.2407
   26MOL   C20714257   4.519   2.865   4.350 -0.5661 -0.6520  0.0403
   26MOL   C20814258   4.432   2.902   4.456 -0.3980 -0.1563 -0.0534
   26MOL   N20914259   4.465   2.875   4.585 -0.1983  0.3083  0.4754
   26MOL   C21014260   4.310   2.956   4.423 -0.2712 -0.0375  0.0497
   26MOL   C21114261   4.281   2.994   4.289  0.1808 -0.4024  0.0118
   26MOL   O21214262   4.249   3.197   4.065  0.5413  1.0329 -0.2799
   26MOL   C21314263   4.214   3.234   3.806  0.3255  0.0341 -0.1004
   26MOL   C21414264   4.185   3.252   3.666 -0.3181 -0.3933 -0.1765
   26MOL   O21514265   4.197   3.072   3.356  0.3237  0.6594  0.0085
   26MOL   H21614266   4.335   2.977   3.546 -0.0839  0.0598  0.0908
   26MOL   H21714267   4.398   2.948   3.789  1.4809  0.1454 -0.0577
   26MOL   H21814268   4.349   2.915   3.973 -1.1819  0.6526 -0.3528
   26MOL   H21914269   4.551   2.869   4.136  0.7152  0.7313  0.2514
   26MOL   H22014270   4.611   2.815   4.376  0.3365  0.3364 -1.1931
   26MOL   H22114271   4.492   2.778   4.593 -1.9241 -0.1238  1.3345
   26MOL   H22214272   4.244   2.979   4.505 -1.0611 -1.3851 -0.1909
   26MOL   H22314273   4.183   3.034   4.263 -0.7031 -2.0205  0.7694
   26MOL   H22414274   4.191   3.314   3.875  1.9898 -0.1255  0.6674
   26MOL   H22514275   4.119   3.329   3.628 -1.7169 -2.4748 -2.0299
   26MOL   C22614276   4.445   2.943   4.699  0.4839  0.5514 -0.0479
   26MOL   C22714277   4.453   2.864   4.827  0.1688  0.1452  0.4589
   26MOL   C22814278   4.388   2.897   4.947  0.7960  0.3408 -0.1427
   26MOL   C22914279   4.414   2.831   5.069 -0.6430 -0.4762  0.4585
   26MOL   C23014280   4.496   2.720   5.072  0.4931  0.2245 -0.1181
   26MOL   C23114281   4.502   2.639   5.196  0.5581 -0.7838 -0.1788
   26MOL   N23214282   4.508   2.714   5.306 -0.7005  0.8827  0.4540
   26MOL   C23314283   4.517   2.678   5.446  0.5593 -0.0647 -0.3425
   26MOL   C23414284   4.514   2.781   5.542 -0.0225  1.0576  0.8237
   26MOL   C23514285   4.521   2.745   5.678 -0.1521  0.7287  0.0186
   26MOL   C23614286   4.523   2.608   5.720 -0.0229 -0.8097  0.2234
   26MOL   N23714287   4.535   2.590   5.857 -0.6090 -0.0158  0.1853
   26MOL   C23814288   4.511   2.506   5.629  0.2732 -0.6093  0.8315
   26MOL   C23914289   4.525   2.543   5.492  0.9254  0.6854 -0.2627
   26MOL   O24014290   4.494   2.516   5.183  0.1987  0.4820 -0.3146
   26MOL   C24114291   4.569   2.695   4.954  0.3523  0.1213 -0.5686
   26MOL   C24214292   4.560   2.771   4.838  0.2390  0.7092  1.5760
   26MOL   O24314293   4.420   3.062   4.704 -0.1748 -0.0047 -0.1915
   26MOL   H24414294   4.316   2.977   4.947 -0.1310 -0.4434  2.7454
   26MOL   H24514295   4.357   2.843   5.160  1.4803 -0.1567  1.7633
   26MOL   H24614296   4.501   2.815   5.294  2.1866  1.4708  3.2009
   26MOL   H24714297   4.512   2.886   5.515 -2.1187  1.0652  0.9133
   26MOL   H24814298   4.529   2.824   5.751  1.2678  1.2243 -0.6507
   26MOL   H24914299   4.575   2.665   5.912 -1.6105 -0.0696  0.9871
   26MOL   H25014300   4.499   2.401   5.650 -0.8553 -0.8192 -0.7996
   26MOL   H25114301   4.509   2.466   5.418 -0.0596  0.8308 -0.2114
   26MOL   H25214302   4.641   2.615   4.958 -1.9420 -2.0895 -1.6485
   26MOL   H25314303   4.615   2.742   4.750 -1.7646  1.1834  0.1346
   26MOL   C25414304   4.517   2.479   5.929 -0.1198 -0.9716 -0.8429
   26MOL   C25514305   4.546   2.492   6.077  0.3274 -0.1888 -0.1603
   26MOL   C25614306   4.605   2.383   6.141  0.8145  0.2198 -0.2864
   26MOL   C25714307   4.636   2.391   6.278  0.2457  0.0578  0.2353
   26MOL   C25814308   4.615   2.511   6.355 -0.0728 -1.0194 -0.1640
   26MOL   C25914309   4.658   2.529   6.494  0.4113 -0.1697 -0.1352
   26MOL   N26014310   4.772   2.475   6.526  0.4045 -0.1931 -1.0496
   26MOL   C26114311   4.852   2.505   6.636  0.2419 -0.3915 -0.4620
   26MOL   C26214312   4.848   2.624   6.706 -0.0232  0.4611 -0.7720
   26MOL   C26314313   4.927   2.635   6.820  0.3270  0.2449 -0.1710
   26MOL   C26414314   5.026   2.534   6.855  0.2746 -0.5237 -0.3789
   26MOL   N26514315   5.116   2.546   6.964 -0.3353 -0.2389  0.0387
   26MOL   C26614316   5.015   2.409   6.792  0.0115  0.1715  0.3307
   26MOL   C26714317   4.929   2.400   6.682 -0.3877 -0.5683  0.2316
   26MOL   O26814318   4.585   2.599   6.564 -0.2908 -0.0955 -0.8269
   26MOL   C26914319   4.555   2.625   6.283 -0.2547  0.8544 -0.6304
   26MOL   C27014320   4.526   2.613   6.151 -0.0324 -0.0185 -0.1563
   26MOL   O27114321   4.498   2.366   5.887  0.1491 -0.6589  0.5041
   26MOL   H27214322   4.629   2.297   6.080 -1.0728  0.0620 -0.8216
   26MOL   H27314323   4.678   2.304   6.326 -3.6057 -2.9241 -1.5676
   26MOL   H27414324   4.794   2.398   6.464  0.8979  0.2423 -1.4111
   26MOL   H27514325   4.780   2.704   6.680 -1.1448 -0.5373 -0.9807
   26MOL   H27614326   4.927   2.730   6.870 -1.5027 -0.8022  1.8878
   26MOL   H27714327   5.092   2.480   7.036  1.1083 -0.8403 -0.0167
   26MOL   H27814328   5.086   2.331   6.811  0.1712  0.5137  1.1489
   26MOL   H27914329   4.923   2.301   6.640 -1.1554 -0.4842  0.1465
   26MOL   H28014330   4.523   2.714   6.335  2.1286  0.4611  1.6090
   26MOL   H28114331   4.463   2.690   6.109  0.6801  0.3588 -0.5280
   26MOL   C28214332   5.158   2.667   7.017 -0.3153 -0.0656  0.0558
   26MOL   C28314333   5.183   2.773   6.915 -0.4510 -0.5642 -0.4538
   26MOL   C28414334   5.237   2.738   6.782  0.9565 -0.3296 -0.3275
   26MOL   C28514335   5.254   2.844   6.693 -0.4223 -0.2127 -0.0493
   26MOL   C28614336   5.214   2.979   6.714  1.0536 -0.4427 -0.8858
   26MOL   C28714337   5.221   3.084   6.606  0.3699  0.3964  0.7460
   26MOL   N28814338   5.312   3.052   6.515  0.0588  0.1441  0.5031
   26MOL   C28914339   5.306   3.104   6.381  0.4616 -0.1722 -0.5009
   26MOL   C29014340   5.296   3.240   6.363 -0.0326 -0.1651 -0.5037
   26MOL   C29114341   5.291   3.294   6.236 -0.8161 -0.5939 -0.0794
   26MOL   C29214342   5.288   3.206   6.120 -0.4936  0.2920  0.4855
   26MOL   N29314343   5.271   3.255   5.984 -0.1584  0.0545 -0.6700
   26MOL   C29414344   5.306   3.066   6.141 -1.0248 -0.4630 -0.1346
   26MOL   C29514345   5.324   3.020   6.267 -0.3544  0.5241 -0.3562
   26MOL   O29614346   5.157   3.193   6.619 -0.2462 -0.3614 -0.8352
   26MOL   C29714347   5.158   3.008   6.845  0.9345 -0.0658  0.0786
   26MOL   C29814348   5.159   2.908   6.946  0.2424  0.0158  0.1988
   26MOL   O29914349   5.159   2.689   7.140 -0.1667 -0.1497  0.0662
   26MOL   H30014350   5.268   2.636   6.761 -0.2354 -0.6131 -0.7279
   26MOL   H30114351   5.305   2.824   6.600  2.5281 -2.5012  1.9766
   26MOL   H30214352   5.355   2.963   6.534  2.4578  0.7779 -1.6101
   26MOL   H30314353   5.285   3.304   6.449  4.7770  0.1836 -0.0189
   26MOL   H30414354   5.283   3.401   6.225  0.7481 -0.5542 -0.9183
   26MOL   H30514355   5.290   3.191   5.908 -2.9800 -0.0871 -1.3368
   26MOL   H30614356   5.316   3.002   6.054  0.2445 -0.3251 -0.0967
   26MOL   H30714357   5.339   2.914   6.280  0.1122  0.7550  1.1530
   26MOL   H30814358   5.128   3.110   6.861  0.7542 -0.2776  1.1987
   26MOL   H30914359   5.116   2.927   7.044 -1.4324 -0.9481 -0.3336
   26MOL   C31014360   5.197   3.359   5.945  0.5981  0.1401 -0.1486
   26MOL   C31114361   5.169   3.376   5.801 -0.1833  0.1135  0.4010
   26MOL   C31214362   5.067   3.459   5.758 -0.2405 -0.1493  0.5405
   26MOL   C31314363   5.036   3.470   5.628 -0.0150  0.5597 -0.3097
   26MOL   C31414364   5.102   3.396   5.532  0.4109  0.3197  0.7268
   26MOL   C31514365   5.065   3.408   5.381  0.3898  0.8292 -0.5404
   26MOL   N31614366   5.170   3.405   5.297  0.4549 -0.2407  0.1081
   26MOL   C31714367   5.165   3.428   5.154 -0.0852 -0.9953  0.5532
   26MOL   C31814368   5.063   3.500   5.089  0.0890 -1.0338 -0.4854
   26MOL   C31914369   5.060   3.517   4.949 -0.1729  0.1535 -0.3766
   26MOL   C32014370   5.170   3.461   4.878  0.3074 -0.4677 -0.3640
   26MOL   N32114371   5.182   3.473   4.745 -0.3353  0.1849 -0.1163
   26MOL   C32214372   5.270   3.386   4.937 -0.0641 -0.3164 -0.3886
   26MOL   C32314373   5.267   3.372   5.073 -0.0762 -0.4935  0.1457
   26MOL   O32414374   4.949   3.402   5.348  0.0064  0.7313  0.4037
   26MOL   C32514375   5.211   3.309   5.568 -0.6760 -0.3232 -1.0213
   26MOL   C32614376   5.251   3.306   5.704  0.4098 -0.4933 -0.4783
   26MOL   O32714377   5.150   3.440   6.025 -0.2661 -0.3042  0.0263
   26MOL   H32814378   5.006   3.518   5.825 -1.8677 -0.7409 -0.3982
   26MOL   H32914379   4.955   3.535   5.599 -0.5653 -0.5662 -1.3554
   26MOL   H33014380   5.255   3.401   5.351  0.3730  1.2694  0.3698
   26MOL   H33114381   4.986   3.547   5.148  0.7611 -3.3465  2.3781
   26MOL   H33214382   4.991   3.579   4.893  1.5644  1.0531 -1.5820
   26MOL   H33314383   5.211   3.390   4.694  0.4383 -0.1939  0.9259
   26MOL   H33414384   5.354   3.344   4.883  0.2762 -0.3600  0.1648
   26MOL   H33514385   5.349   3.318   5.120  0.7466 -1.0479 -1.8653
   26MOL   H33614386   5.267   3.251   5.496  0.4654  1.1376 -1.3368
   26MOL   H33714387   5.340   3.253   5.736 -0.0604 -0.2500  1.2927
   26MOL   C33814388   5.173   3.588   4.671  0.0395 -0.2885  0.1815
   26MOL   C33914389   5.179   3.581   4.520 -0.2404 -0.1658 -0.6920
   26MOL   C34014390   5.186   3.703   4.443 -0.4186  0.0853 -0.3654
   26MOL   C34114391   5.199   3.692   4.306 -0.0719  0.8782  0.3951
   26MOL   C34214392   5.210   3.565   4.245  0.4125  0.2950 -0.4613
   26MOL   C34314393   5.246   3.555   4.101  1.0750  0.2693  1.1808
   26MOL   N34414394   5.347   3.464   4.076  0.7156 -0.0002 -0.3872
   26MOL   C34514395   5.400   3.433   3.953 -0.5348  0.3957  0.4684
   26MOL   C34614396   5.434   3.531   3.856  0.1020 -0.1135 -0.8150
   26MOL   C34714397   5.487   3.484   3.733 -0.4362  0.6204  0.0472
   26MOL   C34814398   5.505   3.351   3.706 -0.1862 -0.9420  0.4494
   26MOL   N34914399   5.569   3.323   3.586  0.4513  0.4050  0.1465
   26MOL   C35014400   5.458   3.250   3.796 -0.6941 -0.1205 -0.1851
   26MOL   C35114401   5.417   3.294   3.926 -0.2602 -0.7728 -0.9509
   26MOL   O35214402   5.188   3.623   4.011 -0.0608 -0.8144 -0.2857
   26MOL   C35314403   5.202   3.447   4.322 -0.3036  0.6536  0.1860
   26MOL   C35414404   5.194   3.451   4.461  0.0379 -0.1844 -0.2428
   26MOL   O35514405   5.148   3.697   4.724  0.6047  0.0196  0.7392
   26MOL   H35614406   5.171   3.798   4.491 -0.7193 -2.1744  4.1992
   26MOL   H35714407   5.202   3.783   4.247 -0.5466  0.0076 -0.9810
   26MOL   H35814408   5.354   3.396   4.149 -1.2692 -0.0905 -0.2407
   26MOL   H35914409   5.426   3.637   3.877  1.5820  0.1469 -1.5127
   26MOL   H36014410   5.525   3.557   3.663  1.6942 -0.9121 -0.4398
   26MOL   H36114411   5.611   3.407   3.548 -2.2192  1.8944  0.3661
   26MOL   H36214412   5.477   3.144   3.798 -0.1051 -0.0088  1.7767
   26MOL   H36314413   5.405   3.229   4.011  0.5753  1.6584  1.1217
   26MOL   H36414414   5.209   3.349   4.276 -0.9998  0.1988  1.0490
   26MOL   H36514415   5.202   3.359   4.516  1.2573  0.4689  0.7008
   26MOL   C36614416   5.621   3.199   3.552  0.1707  0.4237 -0.2283
   26MOL   C36714417   5.755   3.211   3.482  0.9589  0.8016  0.2420
   26MOL   C36814418   5.848   3.312   3.514  0.3321 -0.9495  0.6118
   26MOL   C36914419   5.971   3.316   3.451  0.1065 -0.1531  0.9086
   26MOL   C37014420   6.005   3.220   3.355 -0.4898  0.6358  0.6802
   26MOL   C37114421   6.142   3.210   3.287 -0.7451  0.0073  0.0513
   26MOL   N37214422   6.197   3.328   3.275  0.5262 -0.1346  0.1187
   26MOL   C37314423   6.333   3.342   3.264 -0.4455  0.2312  0.3173
   26MOL   C37414424   6.413   3.259   3.183  0.6776  0.4206  1.3136
   26MOL   C37514425   6.548   3.298   3.164  0.2901  0.5059 -0.4249
   26MOL   C37614426   6.603   3.409   3.236 -0.0818 -0.1416  0.3468
   26MOL   N37714427   6.748   3.434   3.225 -0.2815  0.0306 -0.5639
   26MOL   C37814428   6.515   3.496   3.305 -0.0410  0.2169 -0.7511
   26MOL   C37914429   6.381   3.465   3.314 -0.6382 -0.4455 -0.1671
   26MOL   O38014430   6.182   3.097   3.249 -0.3447 -1.0172  0.0162
   26MOL   C38114431   5.912   3.122   3.324 -0.3681 -0.1034 -0.2665
   26MOL   C38214432   5.785   3.115   3.385  0.7449 -0.4219  0.4879
   26MOL   O38314433   5.567   3.089   3.564 -0.3308 -0.1985 -0.5523
   26MOL   H38414434   5.820   3.373   3.599 -0.2585 -2.5035  1.5553
   26MOL   H38514435   6.045   3.384   3.490 -0.0947 -0.0974  1.1886
   26MOL   H38614436   6.141   3.412   3.280  0.1538 -0.4638  1.5331
   26MOL   H38714437   6.390   3.171   3.125  0.2044  2.6063 -2.0290
   26MOL   H38814438   6.618   3.251   3.096  4.1470  0.8591  3.0871
   26MOL   H38914439   6.818   3.364   3.211  1.5120  1.9801 -1.6156
   26MOL   H39014440   6.551   3.579   3.364  0.8527 -2.1643  2.2285
   26MOL   H39114441   6.314   3.540   3.353 -2.7653 -0.8448 -2.8235
   26MOL   H39214442   5.929   3.040   3.256  1.3749 -0.0880  0.1173
   26MOL   H39314443   5.727   3.024   3.378 -1.3811  0.9072  0.5042
   26MOL   C39414444   6.806   3.551   3.180  0.3616 -0.3887  0.1491
   26MOL   C39514445   6.714   3.664   3.142 -0.2168  0.3657  0.2561
   26MOL   C39614446   6.712   3.791   3.209  0.3036  0.2535 -0.2038
   26MOL   C39714447   6.620   3.894   3.179  0.1738 -0.4403  0.3672
   26MOL   C39814448   6.529   3.870   3.076 -0.6147  0.7493  0.0138
   26MOL   C39914449   6.406   3.958   3.067 -0.2502 -0.3784  0.2514
   26MOL   N40014450   6.435   4.090   3.053 -0.6557  0.1640  0.3225
   26MOL   C40114451   6.349   4.203   3.025 -0.7979  0.0907 -0.2142
   26MOL   C40214452   6.218   4.183   2.981 -0.1295 -0.0168  0.3986
   26MOL   C40314453   6.141   4.293   2.944  0.7188 -0.5560  0.3681
   26MOL   C40414454   6.191   4.421   2.953  0.1798  0.0006  0.7382
   26MOL   N40514455   6.123   4.540   2.906 -0.4762  0.2006  0.0074
   26MOL   C40614456   6.320   4.444   3.008 -0.1755  0.1670  0.5671
   26MOL   C40714457   6.400   4.333   3.040 -0.1781  0.1240 -0.1089
   26MOL   O40814458   6.301   3.906   3.070 -0.4409  0.3416 -0.2924
   26MOL   C40914459   6.539   3.753   2.996 -0.0968  0.1691  0.0471
   26MOL   C41014460   6.629   3.653   3.031 -0.3292  0.0800 -0.3006
   26MOL   O41114461   6.929   3.557   3.175  0.1314 -0.1211  0.2281
   26MOL   H41214462   6.786   3.802   3.287 -0.8335  0.2136  0.9096
   26MOL   H41314463   6.615   3.983   3.239  0.4624 -0.0065 -0.2447
   26MOL   H41414464   6.536   4.097   3.045 -0.8187  1.4661 -0.8858
   26MOL   H41514465   6.182   4.087   2.949 -0.7645  0.6366 -0.9152
   26MOL   H41614466   6.044   4.279   2.898  0.4707  0.9641  0.4097
   26MOL   H41714467   6.173   4.625   2.884  0.1526 -0.5309 -1.4247
   26MOL   H41814468   6.375   4.535   3.026 -0.4866 -0.0377  2.6786
   26MOL   H41914469   6.504   4.335   3.070 -0.5326 -1.3215  1.3265
   26MOL   H42014470   6.467   3.729   2.919 -0.4972 -3.0879  1.3349
   26MOL   H42114471   6.619   3.559   2.980 -1.7409 -0.8025  1.5402
   26MOL   C42214472   5.996   4.547   2.855  0.2128  0.0451 -0.7978
   26MOL   C42314473   5.958   4.673   2.780  0.3252  0.3233  0.3380
   26MOL   C42414474   6.058   4.739   2.698 -0.0847 -0.4296  0.1556
   26MOL   C42514475   6.015   4.855   2.633  0.0536 -0.9292 -0.2494
   26MOL   C42614476   5.881   4.908   2.637  0.1544  0.6316 -0.4361
   26MOL   C42714477   5.842   5.032   2.568  0.3649 -0.0213 -0.0022
   26MOL   N42814478   5.743   5.015   2.480 -0.0654  0.3039 -0.1543
   26MOL   C42914479   5.666   5.116   2.411  0.1018 -0.2080 -0.7110
   26MOL   C43014480   5.698   5.251   2.414  0.4469  0.0066  0.2946
   26MOL   C43114481   5.610   5.350   2.358  0.2363 -0.1573  0.0263
   26MOL   C43214482   5.494   5.309   2.294  0.1562  0.4752 -0.6299
   26MOL   N43314483   5.393   5.394   2.251  0.3502 -0.2707  0.6556
   26MOL   C43414484   5.478   5.170   2.261  0.6065 -0.6617 -0.3649
   26MOL   C43514485   5.552   5.078   2.330  0.2573 -0.2134  0.1569
   26MOL   O43614486   5.909   5.136   2.577  0.6943 -0.1985  0.2343
   26MOL   C43714487   5.786   4.832   2.710  1.0592  1.2939 -0.1864
   26MOL   C43814488   5.825   4.711   2.773  0.5430  0.0933  0.3073
   26MOL   O43914489   5.907   4.462   2.878  0.2689  0.1718 -0.0282
   26MOL   H44014490   6.164   4.720   2.709  0.6149  1.9244 -2.0297
   26MOL   H44114491   6.090   4.913   2.581 -1.5381  0.0744 -1.4979
   26MOL   H44214492   5.703   4.923   2.469 -0.1590  0.2124  0.8942
   26MOL   H44314493   5.786   5.291   2.461  0.9197 -0.7004  0.0143
   26MOL   H44414494   5.636   5.454   2.364  0.7785 -0.3326  0.6964
   26MOL   H44514495   5.322   5.352   2.192  1.5966 -1.6007  0.0551
   26MOL   H44614496   5.394   5.141   2.200  1.5064 -1.3360 -1.2942
   26MOL   H44714497   5.521   4.975   2.317 -1.4693 -0.0312  2.5046
   26MOL   H44814498   5.684   4.865   2.721  0.2239 -1.9062  2.3835
   26MOL   H44914499   5.754   4.653   2.831 -0.2931  1.1935  0.3882
   26MOL   C45014500   5.359   5.516   2.298  0.0667  0.7029 -0.1586
   26MOL   C45114501   5.224   5.571   2.251  0.9290 -0.1880  0.4604
   26MOL   C45214502   5.187   5.702   2.279 -0.3311 -0.1110  0.6599
   26MOL   C45314503   5.057   5.746   2.241 -0.2188  0.2213  0.1936
   26MOL   C45414504   4.963   5.659   2.183 -0.0829  0.1343 -0.8765
   26MOL   C45514505   4.833   5.707   2.131 -0.4317  0.8478  0.8646
   26MOL   N45614506   4.761   5.614   2.058 -0.3489 -0.7679 -0.4616
   26MOL   C45714507   4.636   5.620   1.991  0.0644 -0.6491  0.5190
   26MOL   C45814508   4.541   5.727   2.002 -0.4106  0.2757 -0.0159
   26MOL   C45914509   4.439   5.739   1.908  0.0154 -0.3832  0.4428
   26MOL   C46014510   4.420   5.634   1.818 -0.4232 -0.5075  0.4485
   26MOL   N46114511   4.323   5.624   1.715  0.1861 -0.4909 -0.4414
   26MOL   C46214512   4.510   5.525   1.812 -0.1905 -0.6079  0.0103
   26MOL   C46314513   4.623   5.518   1.895 -0.0461  0.0973 -0.1603
   26MOL   O46414514   4.783   5.811   2.171  0.2901 -0.4389  0.3957
   26MOL   C46514515   5.001   5.524   2.165  0.1494  0.3717  0.3020
   26MOL   C46614516   5.132   5.485   2.197 -0.1677 -0.6535 -1.1311
   26MOL   O46714517   5.433   5.584   2.370  0.0309 -0.3549 -0.2869
   26MOL   H46814518   5.265   5.764   2.322  1.0698 -1.6683  0.4099
   26MOL   H46914519   5.021   5.847   2.249 -1.1947  0.0542 -1.8296
   26MOL   H47014520   4.810   5.528   2.037 -0.1024 -0.8654  0.4544
   26MOL   H47114521   4.563   5.809   2.069  0.8449 -0.5046  0.5452
   26MOL   H47214522   4.381   5.831   1.910  1.4342  0.5521 -0.5424
   26MOL   H47314523   4.308   5.531   1.679 -1.1190 -0.9777  1.2646
   26MOL   H47414524   4.484   5.442   1.747 -1.8805 -0.0272 -0.0612
   26MOL   H47514525   4.694   5.438   1.879 -0.3656  0.1979 -2.2710
   26MOL   H47614526   4.942   5.445   2.121 -2.5781  1.5052  1.8050
   26MOL   H47714527   5.158   5.384   2.171 -1.5348 -1.1286 -0.6679
   26MOL   C47814528   4.272   5.715   1.642 -0.4156  0.3296  0.3545
   26MOL   C47914529   4.189   5.666   1.524 -1.2494 -0.2400  0.8152
   26MOL   C48014530   4.064   5.725   1.483  0.3214  0.4277 -0.4100
   26MOL   C48114531   3.992   5.685   1.372 -0.9591  0.1299 -0.0175
   26MOL   C48214532   4.057   5.588   1.286 -0.4514  0.5654  0.3685
   26MOL   C48314533   4.001   5.561   1.146 -0.3400 -0.3879 -0.0258
   26MOL   N48414534   4.059   5.465   1.072 -0.0379 -0.0013  0.0977
   26MOL   C48514535   4.025   5.414   0.942 -0.1584  0.1469  0.2473
   26MOL   C48614536   3.927   5.468   0.851 -0.5575 -0.4387 -0.1385
   26MOL   C48714537   3.908   5.421   0.722 -0.3458  0.2358  0.8733
   26MOL   C48814538   4.000   5.328   0.668  0.6728 -0.2456  0.4693
   26MOL   N48914539   3.992   5.305   0.528 -0.1087  0.6458  0.1030
   26MOL   C49014540   4.089   5.256   0.754  0.3354  1.1752  0.5489
   26MOL   C49114541   4.101   5.301   0.891 -0.3456  0.2308 -0.0799
   26MOL   O49214542   3.902   5.630   1.108 -0.1705  0.0309 -0.2733
   26MOL   C49314543   4.170   5.519   1.324  0.1372  0.8966 -0.5628
   26MOL   C49414544   4.239   5.563   1.440 -0.0470  0.4778  0.0392
   26MOL   O49514545   4.276   5.839   1.661  0.0281 -0.2356  0.4732
   26MOL   H49614546   4.021   5.802   1.546  0.4658 -0.1101  0.3555
   26MOL   H49714547   3.901   5.734   1.339 -0.4589  2.2857  1.7127
   26MOL   H49814548   4.151   5.438   1.103 -0.1756  0.6495  1.0700
   26MOL   H49914549   3.867   5.547   0.892  0.0235 -0.2727  0.3898
   26MOL   H50014550   3.835   5.472   0.661 -1.1318 -0.5200  1.1719
   26MOL   H50114551   3.966   5.387   0.476 -1.8139  0.0115 -0.0772
   26MOL   H50214552   4.163   5.182   0.725 -0.7780  0.3332 -0.1675
   26MOL   H50314553   4.173   5.256   0.958  0.1511 -0.6662 -1.2055
   26MOL   H50414554   4.221   5.445   1.265 -0.1613 -0.5644  0.9726
   26MOL   H50514555   4.332   5.514   1.463 -0.1763 -1.5412 -3.4232
   26MOL   C50614556   4.046   5.207   0.454 -1.3758  0.2826 -0.3306
   26MOL   C50714557   4.043   5.224   0.309 -0.0586  0.2107  0.1992
   26MOL   C50814558   3.994   5.121   0.229 -0.1245  0.3271  0.2708
   26MOL   C50914559   4.005   5.129   0.085  0.4364 -0.2378  0.0710
   26MOL   C51014560   4.064   5.241   0.023 -0.2048 -0.0753 -0.7323
   26MOL   C51114561   4.094   5.250   8.019 -1.1919  0.5819 -0.1571
   26MOL   N51214562   4.019   5.182   7.940  0.4381 -0.3463  0.6022
   26MOL   C51314563   4.015   5.179   7.795 -0.0112 -0.7627  0.3189
   26MOL   C51414564   4.081   5.275   7.710 -0.3425 -0.9238  0.4464
   26MOL   C51514565   4.063   5.285   7.574  0.2677  0.2278  0.5148
   26MOL   C51614566   3.955   5.209   7.518 -0.3937 -0.5273  0.8668
   26MOL   N51714567   3.944   5.212   7.379  0.1104  0.0754 -0.6791
   26MOL   C51814568   3.881   5.116   7.597  0.3425  0.6023 -0.6451
   26MOL   C51914569   3.913   5.103   7.736  0.1553  0.3456  0.9969
   26MOL   O52014570   4.193   5.310   7.984 -0.3581 -0.1954 -0.2684
   26MOL   C52114571   4.114   5.350   0.103 -0.1295  0.7362 -0.7211
   26MOL   C52214572   4.100   5.341   0.247  0.1569  0.3007 -0.3003
   26MOL   O52314573   4.097   5.103   0.508  0.2222  0.0472  0.4055
   26MOL   H52414574   3.949   5.037   0.279  2.4718 -1.3187 -0.0733
   26MOL   H52514575   3.966   5.050   0.023  0.3323  0.4271 -0.7073
   26MOL   H52614576   3.953   5.125   7.990  0.1578 -0.2909  0.2996
   26MOL   H52714577   4.162   5.327   7.760 -0.4029 -1.1082  0.7409
   26MOL   H52814578   4.124   5.356   7.520  0.4375 -2.3731 -2.9711
   26MOL   H52914579   4.028   5.218   7.322  1.5766 -1.6823  1.2081
   26MOL   H53014580   3.801   5.056   7.559  1.1749 -2.2636  1.8925
   26MOL   H53114581   3.863   5.030   7.797  0.0696 -1.0867 -0.7577
   26MOL   H53214582   4.157   5.435   0.052  2.5698 -0.1561 -0.0183
   26MOL   H53314583   4.136   5.424   0.307  1.7827  0.2573 -1.1636
   26MOL   C53414584   3.832   5.184   7.307 -0.0046  0.2903 -0.2445
   26MOL   C53514585   3.847   5.162   7.161  0.5589  0.0240 -0.7645
   26MOL   C53614586   3.749   5.098   7.083  0.3642 -0.4847  0.3766
   26MOL   C53714587   3.753   5.095   6.942  0.4787 -0.3668  0.2069
   26MOL   C53814588   3.846   5.180   6.875 -0.2290  0.0448 -0.4054
   26MOL   C53914589   3.835   5.198   6.721 -0.2244 -0.1188  0.1134
   26MOL   N54014590   3.720   5.182   6.664 -0.2125 -0.0308  0.0509
   26MOL   C54114591   3.686   5.165   6.529 -0.7700  0.0804  0.6388
   26MOL   C54214592   3.786   5.119   6.435  0.5235  0.3716  0.0035
   26MOL   C54314593   3.748   5.111   6.301  0.9145 -0.7005  0.2272
   26MOL   C54414594   3.619   5.162   6.259  0.2621  0.8070  0.3368
   26MOL   N54514595   3.591   5.168   6.126  0.6804 -0.6401 -0.4505
   26MOL   C54614596   3.520   5.201   6.351  0.5007 -0.4806  0.0753
   26MOL   C54714597   3.554   5.193   6.488 -0.5611 -0.4800 -0.3653
   26MOL   O54814598   3.937   5.243   6.660  0.9311  0.0112 -0.3623
   26MOL   C54914599   3.952   5.241   6.950 -0.0028 -0.2017  0.0942
   26MOL   C55014600   3.946   5.232   7.090  0.5637 -0.5708 -0.2943
   26MOL   O55114601   3.722   5.168   7.352  0.0934 -0.1103  0.4628
   26MOL   H55214602   3.666   5.052   7.135 -1.2844  0.2697 -1.5037
   26MOL   H55314603   3.671   5.044   6.893 -0.7963  0.1429  1.7847
   26MOL   H55414604   3.642   5.162   6.725 -0.6166  1.1175 -0.0853
   26MOL   H55514605   3.887   5.097   6.465 -0.1760  1.5908  3.5900
   26MOL   H55614606   3.830   5.077   6.240 -0.0116 -0.4721 -1.1879
   26MOL   H55714607   3.500   5.206   6.103  0.8365  1.2670  1.9439
   26MOL   H55814608   3.416   5.229   6.344  0.3061 -1.4362 -0.7987
   26MOL   H55914609   3.480   5.229   6.558 -0.7685  0.3752 -1.0175
   26MOL   H56014610   4.022   5.304   6.897  0.6615 -0.5153  0.5989
   26MOL   H56114611   4.009   5.299   7.146 -0.2577 -0.7825  0.9044
   26MOL   H56214612   3.598   5.080   6.076 -2.9099 -0.5974 -1.1200
   27MOL     C114613   1.789   3.737   1.409  0.0810 -0.6704  0.6606
   27MOL     C214614   1.747   3.795   1.282  0.7400 -0.3045  0.2534
   27MOL     C314615   1.627   3.870   1.275 -0.3188  0.3820  0.5287
   27MOL     C414616   1.574   3.915   1.158 -0.4491 -0.8139 -0.3278
   27MOL     C514617   1.648   3.894   1.045  0.5490  0.1713  0.0564
   27MOL     C614618   1.610   3.963   0.918 -0.3640  0.1997 -0.2463
   27MOL     N714619   1.483   3.995   0.909 -0.2605  0.1340  0.0442
   27MOL     C814620   1.417   4.078   0.815  0.5446  0.3524 -0.1790
   27MOL     C914621   1.274   4.071   0.818  0.1321  0.2027  0.2858
   27MOL    C1014622   1.194   4.144   0.724  0.1106 -0.0340 -0.7967
   27MOL    C1114623   1.255   4.214   0.615  0.3266 -0.2607  0.4013
   27MOL    N1214624   1.182   4.276   0.518 -0.3595  0.0171  0.4729
   27MOL    C1314625   1.394   4.224   0.621 -0.1606 -0.6253 -0.0753
   27MOL    C1414626   1.476   4.153   0.711 -0.9383 -0.3367  0.2603
   27MOL    O1514627   1.693   3.977   0.828  0.0552  0.1204  0.3811
   27MOL    C1614628   1.764   3.820   1.053  0.2983 -0.1326 -0.0385
   27MOL    C1714629   1.822   3.771   1.169  0.1075 -0.4886  0.2804
   27MOL    O1814630   1.719   3.741   1.512 -0.0296  0.3430  0.2842
   27MOL    H1914631   1.580   3.884   1.371 -0.3664 -1.1140  0.7358
   27MOL    H2014632   1.483   3.972   1.161  0.4436  0.8570 -3.4273
   27MOL    H2114633   1.428   3.952   0.982  2.4170 -0.6493  1.6884
   27MOL    H2214634   1.213   4.030   0.897 -2.5477  0.4801 -1.5471
   27MOL    H2314635   1.086   4.136   0.725  0.1989 -1.4882  1.9186
   27MOL    H2414636   1.082   4.276   0.527 -0.4360  0.2896 -0.4016
   27MOL    H2514637   1.450   4.284   0.551 -0.6883 -0.0844 -0.0459
   27MOL    H2614638   1.583   4.166   0.702 -1.2327  2.1420  0.1508
   27MOL    H2714639   1.816   3.810   0.959  3.1065  0.8695  1.3598
   27MOL    H2814640   1.915   3.716   1.181  0.1322 -0.5765 -0.3384
   27MOL    H2914641   1.874   3.670   1.406 -0.0263 -0.7420 -0.9970
   27MOL    C3014642   1.221   4.342   0.408  0.5536 -0.6784  0.3441
   27MOL    C3114643   1.111   4.372   0.310 -0.4369 -0.6933 -0.3628
   27MOL    C3214644   1.125   4.481   0.220 -0.5225  0.3536 -0.2799
   27MOL    C3314645   1.030   4.498   0.113 -0.5424 -0.7638 -0.7331
   27MOL    C3414646   0.915   4.419   0.109  0.5309 -0.0272  0.0974
   27MOL    C3514647   0.817   4.441   8.138 -0.3367 -0.7793 -0.0834
   27MOL    N3614648   0.734   4.342   8.111  0.0247 -0.1404  0.4471
   27MOL    C3714649   0.616   4.343   8.036  0.0714  0.4392 -0.7659
   27MOL    C3814650   0.525   4.235   8.054 -0.3233 -0.0142 -0.5431
   27MOL    C3914651   0.400   4.233   7.991 -0.3738 -0.2166 -0.4310
   27MOL    C4014652   0.369   4.328   7.888 -0.7888  0.0954 -0.7941
   27MOL    N4114653   0.243   4.346   7.832 -0.0161 -0.1686  0.1312
   27MOL    C4214654   0.470   4.419   7.853  0.1270  0.6337  0.2331
   27MOL    C4314655   0.584   4.428   7.932 -0.5122 -0.2954 -0.7435
   27MOL    O4414656   0.819   4.547   8.075  0.6556 -0.3521 -0.3454
   27MOL    C4514657   0.896   4.318   0.205  0.4061 -0.0378  0.1990
   27MOL    C4614658   0.996   4.289   0.294  0.3108 -0.5484 -0.7530
   27MOL    O4714659   1.333   4.389   0.393  0.2347  0.2983  0.1143
   27MOL    H4814660   1.207   4.551   0.233  0.4362 -1.0125  1.0685
   27MOL    H4914661   1.027   4.580   0.042 -0.8062 -0.5356 -0.4612
   27MOL    H5014662   0.756   4.252   0.004  0.6181 -0.3625 -0.3887
   27MOL    H5114663   0.553   4.162   8.129 -1.1635  2.5082  2.3400
   27MOL    H5214664   0.330   4.162   8.032 -0.0022 -0.3151  0.0412
   27MOL    H5314665   0.211   4.439   7.810  1.1200  0.2924  0.3940
   27MOL    H5414666   0.458   4.482   7.766  0.5861  0.1371 -0.1972
   27MOL    H5514667   0.658   4.499   7.897 -0.4669 -0.8400 -1.7764
   27MOL    H5614668   0.808   4.255   0.205 -0.5213  1.2123 -1.4908
   27MOL    H5714669   0.984   4.199   0.353  1.4497  0.0288  0.3636
   27MOL    C5814670   0.141   4.260   7.825 -0.3992  0.1913 -0.1507
   27MOL    C5914671   0.153   4.114   7.853 -0.3346 -0.3075  0.1741
   27MOL    C6014672   0.078   4.063   7.963 -0.6470 -0.6349  0.6882
   27MOL    C6114673   0.093   3.928   8.003  0.5824  0.2213 -0.2354
   27MOL    C6214674   0.194   3.849   7.942 -0.3718  0.0131 -0.1337
   27MOL    C6314675   0.219   3.712   7.995 -0.3480  0.2060 -0.1658
   27MOL    N6414676   0.351   3.694   8.006 -0.1816 -0.1193  0.3659
   27MOL    C6514677   0.422   3.592   8.075  0.0057 -0.4704  0.9397
   27MOL    C6614678   0.553   3.613   8.116  0.2790 -0.1418  0.2930
   27MOL    C6714679   0.632   3.519   0.041  0.4585 -0.7480 -0.0330
   27MOL    C6814680   0.573   3.403   0.076  0.5010 -0.0927  0.6939
   27MOL    N6914681   0.659   3.316   0.152  0.6865  0.1455  0.0240
   27MOL    C7014682   0.438   3.376   0.041 -0.0715 -0.4202 -0.2380
   27MOL    C7114683   0.361   3.469   8.110 -0.4552 -0.1551  0.0216
   27MOL    O7214684   0.136   3.622   8.009  0.3647  0.2775  0.1556
   27MOL    C7314685   0.273   3.900   7.839  0.1569  0.5247 -0.4082
   27MOL    C7414686   0.247   4.029   7.794  0.2159  0.7118  0.5344
   27MOL    O7514687   0.032   4.314   7.812 -0.7720 -0.2286 -0.8509
   27MOL    H7614688   0.013   4.131   8.016  2.2493  3.5599 -0.8032
   27MOL    H7714689   0.034   3.885   8.083  0.3259 -0.5617 -0.8448
   27MOL    H7814690   0.404   3.776   7.983  0.3543 -0.8344 -1.0515
   27MOL    H7914691   0.604   3.707   8.101  1.0881 -0.8393 -1.4878
   27MOL    H8014692   0.729   3.548   0.078  0.3357  1.0414 -1.0821
   27MOL    H8114693   0.758   3.336   0.148  0.9167 -1.3824 -3.0840
   27MOL    H8214694   0.393   3.279   0.059  3.0884 -1.7880  0.7568
   27MOL    H8314695   0.257   3.442   8.094 -0.1237 -1.1172 -0.5014
   27MOL    H8414696   0.350   3.840   7.792  0.2550  0.6411 -0.3952
   27MOL    H8514697   0.310   4.070   7.716 -0.5290 -0.3203 -0.6262
   27MOL    C8614698   0.614   3.228   0.237  1.5367  0.3469 -0.9351
   27MOL    C8714699   0.727   3.181   0.328  0.3307  0.5741  0.1755
   27MOL    C8814700   0.857   3.249   0.341  0.4672 -0.3912 -0.4555
   27MOL    C8914701   0.967   3.187   0.416 -0.4205 -0.3569 -0.3406
   27MOL    C9014702   0.936   3.062   0.478  0.6643 -1.0182  0.2608
   27MOL    C9114703   1.046   2.987   0.549 -0.2076  0.1246  0.0782
   27MOL    N9214704   1.136   3.062   0.615  0.3443 -0.1911  0.6308
   27MOL    C9314705   1.245   3.019   0.686 -0.1413  0.6306 -0.0587
   27MOL    C9414706   1.245   2.901   0.760 -0.0710 -0.5485 -0.3531
   27MOL    C9514707   1.346   2.869   0.846 -0.0091  0.0775  0.1727
   27MOL    C9614708   1.456   2.956   0.856 -0.6313  0.9718 -0.9673
   27MOL    N9714709   1.567   2.940   0.942  0.7075  0.4890 -0.3254
   27MOL    C9814710   1.459   3.076   0.786 -0.1801  0.1185 -0.3917
   27MOL    C9914711   1.353   3.105   0.698 -0.0252  0.2016  0.0573
   27MOL   O10014712   1.033   2.865   0.551 -0.3857  0.1784 -0.3591
   27MOL   C10114713   0.808   3.002   0.476  0.4081 -0.8285  0.0116
   27MOL   C10214714   0.710   3.060   0.396  0.4606 -0.6467  0.1911
   27MOL   O10314715   0.494   3.193   0.252  0.1978  0.0748 -0.1669
   27MOL   H10414716   0.878   3.352   0.314 -1.4261  0.6086  1.7295
   27MOL   H10514717   1.057   3.244   0.429 -1.3342  1.6314 -2.2930
   27MOL   H10614718   1.129   3.162   0.607  1.4813 -0.0964  0.6865
   27MOL   H10714719   1.165   2.828   0.758 -1.1022  0.5726 -1.2471
   27MOL   H10814720   1.336   2.779   0.904 -2.8007 -0.5554 -1.2402
   27MOL   H10914721   1.641   3.009   0.940 -1.4009  2.9990  2.4909
   27MOL   H11014722   1.533   3.154   0.792  0.7502 -0.6197 -2.0198
   27MOL   H11114723   1.363   3.199   0.646  1.2512 -1.5572 -2.9747
   27MOL   H11214724   0.787   2.912   0.532  1.2244 -0.7004  0.5220
   27MOL   H11314725   0.619   3.003   0.391  1.4556 -2.2519 -0.2451
   27MOL   C11414726   1.576   2.858   1.049 -0.1080 -0.4386  0.1595
   27MOL   C11514727   1.664   2.904   1.170  0.4058  0.2245  0.6754
   27MOL   C11614728   1.710   3.039   1.185  0.1924  0.9104 -0.8082
   27MOL   C11714729   1.776   3.081   1.301  0.3237 -0.3276  0.0586
   27MOL   C11814730   1.788   2.999   1.415 -0.5159 -0.8141 -0.3589
   27MOL   C11914731   1.852   3.043   1.537 -1.4274  0.1029 -0.4214
   27MOL   N12014732   1.815   2.987   1.647 -0.3445  0.1889 -0.1050
   27MOL   C12114733   1.867   3.011   1.782  0.5174  0.3780 -0.0458
   27MOL   C12214734   2.009   3.028   1.810 -0.1506 -0.0526 -0.7093
   27MOL   C12314735   2.048   3.070   1.938 -0.2661  0.3375  0.6922
   27MOL   C12414736   1.953   3.075   2.045 -0.4733  0.3551 -0.9861
   27MOL   N12514737   1.991   3.097   2.174  0.1576 -0.0862 -0.2710
   27MOL   C12614738   1.813   3.058   2.022  0.0634  1.0403  0.0547
   27MOL   C12714739   1.771   3.028   1.886 -0.3435 -0.5358 -0.6011
   27MOL   O12814740   1.939   3.132   1.538  0.7172 -0.4647 -0.1567
   27MOL   C12914741   1.745   2.860   1.403 -0.1039 -1.4468 -0.4821
   27MOL   C13014742   1.691   2.818   1.279 -0.3537 -0.1688  0.2981
   27MOL   O13114743   1.522   2.748   1.054 -0.2258  0.3380  0.7160
   27MOL   H13214744   1.698   3.109   1.103  0.2102  0.3346 -1.3030
   27MOL   H13314745   1.808   3.184   1.300 -1.7486  0.3394 -1.2997
   27MOL   H13414746   1.736   2.924   1.641  0.7288 -1.2512  0.6050
   27MOL   H13514747   2.083   3.023   1.731 -0.5928 -0.6051 -1.1019
   27MOL   H13614748   2.155   3.079   1.950 -0.0597 -1.2319  0.1618
   27MOL   H13714749   1.921   3.062   2.237  1.7790 -0.8246  1.1589
   27MOL   H13814750   1.745   3.067   2.105 -0.7713 -0.9624 -0.3811
   27MOL   H13914751   1.665   3.021   1.867 -0.2771 -1.8534 -0.5506
   27MOL   H14014752   1.761   2.786   1.480 -1.9981  0.1672  1.5347
   27MOL   H14114753   1.657   2.717   1.262 -2.3771  0.5225  0.1448
   27MOL   C14214754   2.081   3.183   2.228  0.0309  0.9524 -0.0216
   27MOL   C14314755   2.055   3.224   2.372 -0.5716  0.3350  0.1013
   27MOL   C14414756   2.153   3.222   2.475  0.1782 -0.3650  0.4530
   27MOL   C14514757   2.116   3.238   2.613 -0.2596  0.0565  0.7513
   27MOL   C14614758   1.982   3.260   2.639 -0.5312  0.4503  0.3009
   27MOL   C14714759   1.944   3.276   2.779 -0.2772 -0.9286  0.1529
   27MOL   N14814760   1.983   3.183   2.863  0.0932 -0.0229 -0.1128
   27MOL   C14914761   1.934   3.172   2.996 -0.3084 -0.7545 -0.8688
   27MOL   C15014762   1.834   3.252   3.056  0.1600  0.1314  0.1522
   27MOL   C15114763   1.790   3.234   3.185 -0.3613  0.2627  0.5414
   27MOL   C15214764   1.840   3.131   3.262 -0.2086  0.5976 -0.9057
   27MOL   N15314765   1.784   3.079   3.382 -0.5138  0.3518 -1.0689
   27MOL   C15414766   1.954   3.063   3.216 -0.3438 -0.4999  0.1941
   27MOL   C15514767   1.996   3.080   3.083 -0.0259  0.4297 -0.3667
   27MOL   O15614768   1.874   3.373   2.804 -0.1066 -0.3939 -0.3975
   27MOL   C15714769   1.877   3.261   2.541  0.2786  0.1554 -0.1444
   27MOL   C15814770   1.916   3.255   2.406  0.0057 -0.6227 -0.0798
   27MOL   O15914771   2.169   3.239   2.161 -1.0789 -0.0028  0.1622
   27MOL   H16014772   2.254   3.209   2.440  0.2352  0.9044  0.1276
   27MOL   H16114773   2.199   3.242   2.682  0.6271  2.2490 -0.3923
   27MOL   H16214774   2.052   3.121   2.823  0.4920 -1.2155  2.3218
   27MOL   H16314775   1.774   3.315   2.992  0.7570  1.0441  0.4740
   27MOL   H16414776   1.700   3.285   3.218 -0.1186  0.9798  0.1100
   27MOL   H16514777   1.855   3.045   3.445 -0.9013  0.2339 -0.6888
   27MOL   H16614778   1.989   2.982   3.278  0.7535 -1.3313 -1.4834
   27MOL   H16714779   2.082   3.027   3.047 -0.5236  0.1377 -1.1247
   27MOL   H16814780   1.776   3.280   2.575  0.2168 -1.2014  0.4872
   27MOL   H16914781   1.839   3.266   2.331 -0.7956  1.4321  1.0103
   27MOL   C17014782   1.658   3.095   3.426 -0.1000 -0.5359  0.3374
   27MOL   C17114783   1.544   3.118   3.323  0.3287  0.0697  0.2895
   27MOL   C17214784   1.535   3.051   3.193 -0.3272 -0.5866 -0.3205
   27MOL   C17314785   1.418   3.079   3.114  0.2341  0.6774  0.5439
   27MOL   C17414786   1.315   3.162   3.154  0.2869  0.3413 -0.7053
   27MOL   C17514787   1.193   3.185   3.074 -1.1145  0.0467 -0.2427
   27MOL   N17614788   1.222   3.213   2.946  0.0790 -0.0368 -0.0016
   27MOL   C17714789   1.139   3.258   2.839  0.5464 -0.1952 -0.1488
   27MOL   C17814790   1.002   3.289   2.850 -0.6845 -0.1994 -0.0148
   27MOL   C17914791   0.929   3.338   2.738 -0.3825 -0.0026 -0.2369
   27MOL   C18014792   0.993   3.353   2.613  1.0360 -0.3961 -0.9179
   27MOL   N18114793   0.935   3.404   2.497 -0.3257 -0.1756 -0.5989
   27MOL   C18214794   1.129   3.326   2.603 -0.9541  0.7919 -0.3815
   27MOL   C18314795   1.197   3.278   2.712 -1.0160 -0.4492  0.2935
   27MOL   O18414796   1.080   3.192   3.117  0.7513  0.4599  0.0001
   27MOL   C18514797   1.317   3.210   3.286  0.2535  0.7051  0.0811
   27MOL   C18614798   1.431   3.188   3.371 -0.4319 -0.2830 -0.0681
   27MOL   O18714799   1.632   3.089   3.543  0.1825  0.7378  0.3942
   27MOL   H18814800   1.617   2.994   3.151 -0.8004 -1.6024  0.1101
   27MOL   H18914801   1.414   3.040   3.013 -1.9496  0.4764  0.6771
   27MOL   H19014802   1.320   3.203   2.924  0.4126 -0.6850  1.6806
   27MOL   H19114803   0.947   3.263   2.939 -0.4625  1.5117  0.6409
   27MOL   H19214804   0.822   3.353   2.739 -0.4627 -0.3798 -1.8501
   27MOL   H19314805   1.000   3.391   2.421  3.8975  1.4329  2.5826
   27MOL   H19414806   1.188   3.333   2.513 -2.2196  1.1424 -1.1964
   27MOL   H19514807   1.304   3.273   2.698 -0.8313 -1.6648  2.0549
   27MOL   H19614808   1.223   3.246   3.325 -0.5202  0.4506 -1.4949
   27MOL   H19714809   1.430   3.229   3.471  1.6589 -2.6088  0.9509
   27MOL   C19814810   0.827   3.482   2.475 -0.4310 -0.2366  0.2773
   27MOL   C19914811   0.832   3.537   2.334 -0.0612  0.0354 -0.7727
   27MOL   C20014812   0.819   3.677   2.300  0.0030 -0.2976 -1.0813
   27MOL   C20114813   0.823   3.716   2.161  0.0891 -0.0890  0.6495
   27MOL   C20214814   0.842   3.621   2.061  0.8049 -0.4725 -0.1703
   27MOL   C20314815   0.830   3.656   1.916 -0.2769  1.0022  0.2270
   27MOL   N20414816   0.799   3.784   1.884  0.1279  0.1830  0.0894
   27MOL   C20514817   0.773   3.837   1.752 -0.2453 -0.4017  0.3226
   27MOL   C20614818   0.728   3.756   1.643  0.1171 -0.8976 -0.3168
   27MOL   C20714819   0.682   3.818   1.524  0.1986  0.4871  0.0955
   27MOL   C20814820   0.712   3.957   1.509  0.5595 -0.5397 -0.4300
   27MOL   N20914821   0.675   4.019   1.389 -0.4223 -0.0484  0.1560
   27MOL   C21014822   0.759   4.037   1.615 -0.2455 -0.4194  0.4999
   27MOL   C21114823   0.793   3.980   1.739  0.5295 -0.1801 -0.1476
   27MOL   O21214824   0.850   3.568   1.831  0.5915  0.0685 -0.0699
   27MOL   C21314825   0.845   3.484   2.094 -0.1688  0.3390 -0.3152
   27MOL   C21414826   0.846   3.440   2.230 -0.8593  0.0013 -0.1798
   27MOL   O21514827   0.737   3.519   2.547  0.3516 -0.2242  0.4432
   27MOL   H21614828   0.809   3.747   2.381  2.5855 -1.2808  0.1494
   27MOL   H21714829   0.824   3.822   2.141  0.6402 -0.5938 -2.1462
   27MOL   H21814830   0.786   3.847   1.961 -2.2929 -1.0635  0.7673
   27MOL   H21914831   0.727   3.648   1.640 -1.6342 -0.8703 -1.4810
   27MOL   H22014832   0.651   3.755   1.442  0.6178  1.6173 -0.9556
   27MOL   H22114833   0.608   3.957   1.345  1.2123 -1.8687  0.1314
   27MOL   H22214834   0.766   4.144   1.604  0.7323 -0.6445 -1.2597
   27MOL   H22314835   0.852   4.042   1.805 -0.2777 -0.7356  1.1184
   27MOL   H22414836   0.865   3.408   2.020  2.1660 -0.7685  1.3622
   27MOL   H22514837   0.862   3.335   2.249 -1.2265 -0.3041 -1.5263
   27MOL   C22614838   0.755   4.067   1.296  0.7470  0.0666 -0.3566
   27MOL   C22714839   0.738   4.006   1.159 -0.3229  0.6954 -0.2383
   27MOL   C22814840   0.612   3.963   1.120 -0.6471  0.2330  0.5818
   27MOL   C22914841   0.597   3.906   0.994 -1.0653 -0.1227  0.4507
   27MOL   C23014842   0.708   3.882   0.912 -0.2654 -0.3897 -0.5706
   27MOL   C23114843   0.693   3.807   0.788  0.5380 -0.7257 -0.4157
   27MOL   N23214844   0.622   3.694   0.784  0.2439 -0.1859 -0.1439
   27MOL   C23314845   0.611   3.594   0.885 -0.7770 -0.3396 -0.3045
   27MOL   C23414846   0.717   3.542   0.958 -0.2386 -0.5316  0.0415
   27MOL   C23514847   0.693   3.447   1.060 -0.2597  0.3619  0.2289
   27MOL   C23614848   0.563   3.404   1.092  0.3575  0.4957 -0.3501
   27MOL   N23714849   0.547   3.325   1.202  0.2123 -0.0463  0.6223
   27MOL   C23814850   0.452   3.462   1.021 -0.3753  0.4085 -0.0150
   27MOL   C23914851   0.472   3.557   0.919  0.1467 -0.2549 -0.1463
   27MOL   O24014852   0.736   3.851   0.682 -0.1223  0.5744 -0.0026
   27MOL   C24114853   0.833   3.936   0.950  0.0275 -0.3440  0.4009
   27MOL   C24214854   0.849   3.996   1.072  0.3020 -0.7383 -0.3604
   27MOL   O24314855   0.843   4.150   1.316 -0.8076  0.1247  0.2072
   27MOL   H24414856   0.524   3.971   1.183 -0.3163  0.0200  1.0787
   27MOL   H24514857   0.505   3.871   0.950 -0.0527 -0.0515 -1.7993
   27MOL   H24614858   0.606   3.664   0.689  1.8175  0.6177 -0.6824
   27MOL   H24714859   0.821   3.564   0.935  0.0218 -0.7912  0.9549
   27MOL   H24814860   0.771   3.410   1.125 -1.4875  1.2110  2.2352
   27MOL   H24914861   0.620   3.330   1.272 -1.4968 -2.8885  2.6887
   27MOL   H25014862   0.349   3.449   1.050 -0.3284  4.3682  2.2299
   27MOL   H25114863   0.390   3.602   0.865 -0.4535 -3.0589 -1.7228
   27MOL   H25214864   0.914   3.929   0.879 -0.2892  1.7504 -0.1939
   27MOL   H25314865   0.943   4.045   1.094 -0.2106 -0.5973  1.5774
   27MOL   C25414866   0.456   3.219   1.211 -0.8240  0.0632 -0.2376
   27MOL   C25514867   0.462   3.130   1.328  0.0707  0.0287 -0.6271
   27MOL   C25614868   0.585   3.062   1.364  0.1439 -0.5343 -0.9135
   27MOL   C25714869   0.590   2.969   1.472  0.1252 -0.3074  0.4074
   27MOL   C25814870   0.468   2.939   1.542 -0.1308 -0.1528 -0.1028
   27MOL   C25914871   0.472   2.861   1.671  0.0453 -0.6143  0.5025
   27MOL   N26014872   0.484   2.725   1.655 -0.8148  0.0975  0.1218
   27MOL   C26114873   0.483   2.629   1.758 -0.1359  0.0804 -0.0043
   27MOL   C26214874   0.378   2.636   1.852  0.5473 -0.2893 -0.1795
   27MOL   C26314875   0.363   2.542   1.952  0.0461 -0.1274  0.3296
   27MOL   C26414876   0.460   2.436   1.962  0.4411 -0.1376  0.3029
   27MOL   N26514877   0.441   2.351   2.077 -0.4256 -0.2151  0.7114
   27MOL   C26614878   0.561   2.421   1.864 -0.3694  0.1450  0.4670
   27MOL   C26714879   0.575   2.520   1.768  0.2188  0.0154  0.5263
   27MOL   O26814880   0.461   2.922   1.775 -0.4259  0.0486 -0.3323
   27MOL   C26914881   0.346   2.997   1.500 -0.2000  0.0189  0.8727
   27MOL   C27014882   0.343   3.095   1.398 -0.3620  0.0555 -0.1520
   27MOL   O27114883   0.369   3.197   1.125  0.5550 -0.4900  0.8318
   27MOL   H27214884   0.676   3.088   1.313 -0.3536 -1.6663 -2.3961
   27MOL   H27314885   0.678   2.911   1.493  0.5689 -0.2801 -1.3169
   27MOL   H27414886   0.514   2.704   1.561  1.6010 -0.4137  0.9506
   27MOL   H27514887   0.296   2.705   1.834 -1.2013 -2.5230 -0.9300
   27MOL   H27614888   0.288   2.557   2.028 -1.4532  1.8871 -1.4925
   27MOL   H27714889   0.378   2.389   2.147 -1.6943  0.1364 -0.6042
   27MOL   H27814890   0.630   2.338   1.860  0.8380  1.1944 -1.8930
   27MOL   H27914891   0.661   2.515   1.703 -1.0046  0.5866 -1.1737
   27MOL   H28014892   0.250   2.974   1.546 -1.0194  1.9626  0.1975
   27MOL   H28114893   0.250   3.149   1.383 -0.8345 -0.9786 -0.9521
   27MOL   C28214894   0.518   2.246   2.110  0.6608  0.3407 -0.4844
   27MOL   C28314895   0.492   2.184   2.245  0.0272  0.1229 -0.2819
   27MOL   C28414896   0.579   2.080   2.294 -1.1890  0.1585  0.4445
   27MOL   C28514897   0.559   2.031   2.427  0.1727  0.5510  0.1086
   27MOL   C28614898   0.443   2.065   2.503 -0.0916  0.1646 -0.3008
   27MOL   C28714899   0.414   1.993   2.631  0.2919 -0.0004  0.1914
   27MOL   N28814900   0.283   1.983   2.667 -0.5367  0.0359 -0.3042
   27MOL   C28914901   0.234   1.905   2.777  0.2705 -0.3630  0.7069
   27MOL   C29014902   0.100   1.859   2.770 -0.3120  0.4460  0.0318
   27MOL   C29114903   0.037   1.806   2.884  0.0482 -0.5808  0.1475
   27MOL   C29214904   0.106   1.805   3.009  0.2665  1.0011 -0.3509
   27MOL   N29314905   0.038   1.768   3.132  0.9701  0.0516 -0.3159
   27MOL   C29414906   0.244   1.839   3.011  0.8345 -0.2394 -0.7027
   27MOL   C29514907   0.305   1.886   2.892 -0.2258 -0.2745  0.4955
   27MOL   O29614908   0.509   1.930   2.682  0.4358 -0.1066  0.0243
   27MOL   C29714909   0.363   2.170   2.451  0.3151  0.6917  0.1145
   27MOL   C29814910   0.384   2.226   2.325 -0.7502 -0.0786 -0.1440
   27MOL   O29914911   0.605   2.198   2.041 -0.0713 -0.1277 -0.1117
   27MOL   H30014912   0.671   2.052   2.246 -1.2364  1.1741 -0.2590
   27MOL   H30114913   0.638   1.965   2.460  0.3648  0.8015  0.1482
   27MOL   H30214914   0.211   2.027   2.612  0.7736  1.4301 -0.9653
   27MOL   H30314915   0.042   1.875   2.680 -3.5349 -1.0379  1.7740
   27MOL   H30414916   8.080   1.774   2.881  0.2002 -1.0994  0.5516
   27MOL   H30514917   0.056   1.825   3.213  0.3420 -0.4835  0.2021
   27MOL   H30614918   0.300   1.827   3.103 -0.8055 -1.2254  0.2045
   27MOL   H30714919   0.412   1.900   2.900 -0.1618  0.1893 -1.0095
   27MOL   H30814920   0.270   2.184   2.504 -0.2059  0.7080 -0.7901
   27MOL   H30914921   0.311   2.298   2.290  1.2259  1.5615 -0.9458
   27MOL   C31014922   8.095   1.674   3.158  0.9553  0.3232 -0.6283
   27MOL   C31114923   8.052   1.672   3.302  0.1934  0.1053  0.3798
   27MOL   C31214924   8.145   1.685   3.407 -0.1873  0.6408  0.1193
   27MOL   C31314925   8.099   1.688   3.540  0.2282  0.7512 -0.4257
   27MOL   C31414926   7.963   1.656   3.568 -0.6263  0.4036  0.8639
   27MOL   C31514927   7.926   1.643   3.718 -0.0659 -0.0895  0.4375
   27MOL   N31614928   7.817   1.579   3.752  0.0223  0.4106 -0.3871
   27MOL   C31714929   7.750   1.576   3.879  0.3568  0.0267  0.7689
   27MOL   C31814930   7.818   1.570   4.003 -1.2123  0.4460  0.7205
   27MOL   C31914931   7.736   1.584   4.116 -0.7290  0.4547  0.4266
   27MOL   C32014932   7.600   1.594   4.115  0.2088 -0.0291 -0.3293
   27MOL   N32114933   7.540   1.624   4.240  0.1518 -0.5925  0.2844
   27MOL   C32214934   7.531   1.582   3.994 -0.2300  0.6761  0.0203
   27MOL   C32314935   7.610   1.581   3.875 -0.0857 -0.5076 -0.1144
   27MOL   O32414936   8.005   1.675   3.807 -0.2236  0.0969  0.0315
   27MOL   C32514937   7.869   1.640   3.462  0.3286 -0.2629  0.5235
   27MOL   C32614938   7.914   1.657   3.332 -0.2715 -0.7125 -0.1091
   27MOL   O32714939   8.047   1.594   3.073 -0.1219  0.1134  0.9837
   27MOL   H32814940   0.106   1.694   3.393 -0.2789  1.5772 -0.0021
   27MOL   H32914941   0.020   1.724   3.618 -1.2533  2.8034 -0.0630
   27MOL   H33014942   7.770   1.547   3.668  1.6974 -1.6487 -0.5617
   27MOL   H33114943   7.924   1.576   4.019 -0.7722  1.1863 -2.2300
   27MOL   H33214944   7.777   1.590   4.216  1.3008 -1.3250 -0.2790
   27MOL   H33314945   7.604   1.652   4.313  0.1491 -1.0644  0.4743
   27MOL   H33414946   7.425   1.582   3.974 -0.3665 -0.1389  0.7343
   27MOL   H33514947   7.558   1.591   3.781 -1.9911 -0.6834  0.8739
   27MOL   H33614948   7.764   1.622   3.477  0.0156 -0.2463 -1.5368
   27MOL   H33714949   7.845   1.638   3.251  0.0393 -0.7071 -0.3775
   27MOL   C33814950   7.415   1.608   4.278  0.9358 -0.1103  0.1932
   27MOL   C33914951   7.390   1.619   4.423  0.4085  0.2675  0.0227
   27MOL   C34014952   7.332   1.739   4.474  0.1575  0.7505  0.1404
   27MOL   C34114953   7.305   1.755   4.615 -0.6849  0.2409  0.3999
   27MOL   C34214954   7.338   1.649   4.701  0.5381  0.2550 -0.1903
   27MOL   C34314955   7.311   1.663   4.848  0.3258 -0.1966  0.0348
   27MOL   N34414956   7.200   1.733   4.887  0.5731 -0.3659  0.0017
   27MOL   C34514957   7.154   1.743   5.019  1.0666  0.0185 -0.4729
   27MOL   C34614958   7.154   1.865   5.093 -0.2227  0.6946  0.0981
   27MOL   C34714959   7.109   1.873   5.224  0.0151  0.0203  0.1064
   27MOL   C34814960   7.057   1.755   5.285  0.3292  0.6155 -0.1501
   27MOL   N34914961   7.010   1.749   5.417  0.1274 -0.0286 -1.1361
   27MOL   C35014962   7.065   1.633   5.219 -0.3903  0.3742 -0.5658
   27MOL   C35114963   7.120   1.623   5.088  0.1351 -0.4290 -0.0319
   27MOL   O35214964   7.385   1.605   4.921 -0.5708 -0.3991  0.2476
   27MOL   C35314965   7.401   1.529   4.657 -0.2268  0.3443 -0.2455
   27MOL   C35414966   7.427   1.523   4.517 -0.4011 -0.4950  0.4418
   27MOL   O35514967   7.315   1.579   4.205 -0.5195 -0.4574  0.1142
   27MOL   H35614968   7.306   1.821   4.409  1.6562  0.2459 -1.1337
   27MOL   H35714969   7.266   1.850   4.648  1.1886  1.0507  0.3621
   27MOL   H35814970   7.153   1.774   4.807  0.3762 -1.5208 -0.4884
   27MOL   H35914971   7.189   1.956   5.046  0.0832  1.1508  1.1866
   27MOL   H36014972   7.107   1.969   5.275 -2.2523 -1.2748  2.5547
   27MOL   H36114973   6.968   1.662   5.447  0.6578  0.2801  0.5288
   27MOL   H36214974   7.017   1.549   5.266  0.3352  0.7710  0.9032
   27MOL   H36314975   7.120   1.523   5.047  0.2691  0.4443 -2.2210
   27MOL   H36414976   7.439   1.452   4.723 -2.5291  0.5642  1.3878
   27MOL   H36514977   7.482   1.438   4.479  1.1832  0.8054 -0.2403
   27MOL   C36614978   7.053   1.822   5.523 -0.0906  0.2785  0.3680
   27MOL   C36714979   7.007   1.770   5.658 -0.0308  0.6449 -0.8675
   27MOL   C36814980   6.881   1.704   5.680 -0.5096 -0.8353  0.0670
   27MOL   C36914981   6.859   1.647   5.810 -0.0511  0.0287 -0.0632
   27MOL   C37014982   6.949   1.660   5.922  1.1773 -0.1272 -0.6698
   27MOL   C37114983   6.909   1.594   6.056  0.2201 -0.3433 -0.0312
   27MOL   N37214984   6.965   1.640   6.169  0.7877 -0.1366 -0.2596
   27MOL   C37314985   6.953   1.579   6.293 -0.0996  0.5231 -0.3725
   27MOL   C37414986   7.070   1.544   6.362  0.0601 -0.5082  0.4627
   27MOL   C37514987   7.067   1.482   6.486 -0.3824 -0.3770  0.1398
   27MOL   C37614988   6.939   1.452   6.542 -0.4315  0.5301  0.0868
   27MOL   N37714989   6.938   1.393   6.675  0.1055 -0.0105 -0.2344
   27MOL   C37814990   6.819   1.488   6.477  0.0656  0.7362 -0.7036
   27MOL   C37914991   6.821   1.549   6.349  0.2040 -0.4451 -0.4842
   27MOL   O38014992   6.821   1.509   6.053 -0.0422 -0.1945  0.8217
   27MOL   C38114993   7.069   1.729   5.899 -0.1780 -0.2368  0.2697
   27MOL   C38214994   7.095   1.780   5.769  0.0180  0.3765 -0.0929
   27MOL   O38314995   7.126   1.921   5.521 -0.0335  0.1392  0.1618
   27MOL   H38414996   6.798   1.709   5.612 -0.4483  2.9309  0.1512
   27MOL   H38514997   6.762   1.604   5.827 -0.4621  1.0608  0.2759
   27MOL   H38614998   7.040   1.707   6.162 -1.5643  2.5516 -1.1475
   27MOL   H38714999   7.164   1.562   6.312  0.6363 -1.0195  1.3567
   27MOL   H38815000   7.158   1.457   6.538 -0.5204 -0.1567  0.4838
   27MOL   H38915001   7.026   1.353   6.704  0.0399 -1.1384 -1.4983
   27MOL   H39015002   6.729   1.463   6.532  1.2692  0.7819  1.3627
   27MOL   H39115003   6.736   1.572   6.287  1.1078  0.1678 -1.5189
   27MOL   H39215004   7.139   1.736   5.980  0.9339 -0.4168 -0.6733
   27MOL   H39315005   7.189   1.833   5.761  0.3366 -0.4124 -1.8287
   27MOL   C39415006   6.836   1.386   6.767  0.7045  0.2075 -0.5905
   27MOL   C39515007   6.863   1.312   6.892 -0.0222  1.0959  0.5182
   27MOL   C39615008   6.951   1.196   6.899 -0.6968  0.4402  0.6037
   27MOL   C39715009   6.966   1.126   7.022 -0.1406 -0.6527  0.7524
   27MOL   C39815010   6.906   1.170   7.143 -0.0767  0.6509  0.2008
   27MOL   C39915011   6.935   1.097   7.269  0.1618 -0.1417  0.3027
   27MOL   N40015012   6.976   1.171   7.374  0.0234  0.0427  0.5392
   27MOL   C40115013   7.039   1.304   7.375  0.3151  0.2759  0.5858
   27MOL   C40215014   6.998   1.407   7.463 -0.7802  0.4444 -0.9894
   27MOL   C40315015   7.067   1.524   7.476 -0.1976 -0.1292  0.4236
   27MOL   C40415016   7.185   1.547   7.398  0.4668 -0.1136 -0.2603
   27MOL   N40515017   7.247   1.676   7.410 -0.5848 -0.1943  0.5641
   27MOL   C40615018   7.227   1.443   7.314  0.4512 -0.2494 -0.5131
   27MOL   C40715019   7.158   1.322   7.299 -0.3288 -0.0002 -0.2452
   27MOL   O40815020   6.916   0.978   7.274 -0.2287  0.6925  0.7893
   27MOL   C40915021   6.821   1.283   7.136 -0.3047 -0.0902  0.0546
   27MOL   C41015022   6.801   1.350   7.013 -0.0741 -0.1890 -0.6020
   27MOL   O41115023   6.724   1.441   6.753  0.5648  0.1354  0.1979
   27MOL   H41215024   6.995   1.165   6.805 -0.0963 -0.2629  1.1114
   27MOL   H41315025   7.014   1.030   7.025  0.7768 -0.2046  0.6205
   27MOL   H41415026   6.981   1.120   7.461  0.5644  1.3125  1.2666
   27MOL   H41515027   6.913   1.395   7.529  0.6147 -0.1997  0.7026
   27MOL   H41615028   7.034   1.586   7.558  1.2613  0.7712  0.3377
   27MOL   H41715029   7.317   1.708   7.344  0.0612 -2.0216  0.3434
   27MOL   H41815030   7.320   1.449   7.259 -0.5931  2.5896 -2.0363
   27MOL   H41915031   7.190   1.240   7.235  1.1683 -0.3876  0.9668
   27MOL   H42015032   6.785   1.330   7.227  2.3412  3.1607 -0.5026
   27MOL   H42115033   6.739   1.438   7.011 -0.2544 -0.2225  2.3259
   27MOL   C42215034   7.184   1.797   7.434 -0.6011  0.4061  1.6370
   27MOL   C42315035   7.269   1.914   7.382 -0.5481  0.7378 -0.6208
   27MOL   C42415036   7.409   1.906   7.373 -0.2171  0.3920 -0.5969
   27MOL   C42515037   7.484   1.993   7.288 -0.4787  0.0470 -0.3767
   27MOL   C42615038   7.419   2.103   7.229  0.2532  0.7618 -0.7576
   27MOL   C42715039   7.502   2.180   7.126  0.1149  0.1452  0.1047
   27MOL   N42815040   7.434   2.215   7.020 -0.2624 -0.1754  0.5933
   27MOL   C42915041   7.489   2.236   6.889 -0.0339 -0.5347  0.3306
   27MOL   C43015042   7.412   2.312   6.794  0.1925  0.0531  0.7996
   27MOL   C43115043   7.462   2.323   6.659  0.0894 -0.0774  0.3223
   27MOL   C43215044   7.588   2.271   6.622  0.3001  0.7651  0.4184
   27MOL   N43315045   7.647   2.302   6.495 -0.2824 -0.0076 -0.4533
   27MOL   C43415046   7.664   2.208   6.714 -0.5629  0.4885  0.3659
   27MOL   C43515047   7.619   2.189   6.845 -0.2712  0.1438  1.8109
   27MOL   O43615048   7.619   2.214   7.149  0.4341  0.0428 -0.9281
   27MOL   C43715049   7.277   2.119   7.245 -0.1660  0.1870  0.0328
   27MOL   C43815050   7.202   2.025   7.322  0.0762 -0.1364 -0.8770
   27MOL   O43915051   7.071   1.817   7.484 -0.7540  0.0106  0.3447
   27MOL   H44015052   7.464   1.825   7.418 -1.5226 -1.6765 -2.5875
   27MOL   H44115053   7.590   1.978   7.275 -0.2274 -0.4744  2.0656
   27MOL   H44215054   7.335   2.192   7.016  0.3744 -2.7560 -0.7803
   27MOL   H44315055   7.315   2.344   6.827 -1.3219 -2.0997 -1.3828
   27MOL   H44415056   7.390   2.361   6.588  0.6771  0.9683  0.2681
   27MOL   H44515057   7.727   2.363   6.493 -0.3701  0.0702 -2.3228
   27MOL   H44615058   7.765   2.174   6.698 -2.0854 -4.4354  0.3722
   27MOL   H44715059   7.685   2.132   6.909  1.8301  0.8312  0.3079
   27MOL   H44815060   7.219   2.198   7.199  0.1560  1.4694  1.7570
   27MOL   H44915061   7.094   2.031   7.324  0.1073  0.1152  1.2621
   27MOL   C45015062   7.630   2.233   6.392  0.6456  0.1160  0.0047
   27MOL   C45115063   7.713   2.281   6.276  0.0392  1.1029  0.3437
   27MOL   C45215064   7.857   2.290   6.283  0.7132  0.8012 -0.2642
   27MOL   C45315065   7.922   2.332   6.172 -0.8801  0.3662 -0.0667
   27MOL   C45415066   7.858   2.374   6.050  0.3690 -0.6028  0.0996
   27MOL   C45515067   7.944   2.415   5.933 -0.0358 -0.6014  0.4227
   27MOL   N45615068   7.882   2.401   5.816 -0.0053  0.5416  0.0020
   27MOL   C45715069   7.931   2.388   5.682  0.0434 -0.4977  0.0671
   27MOL   C45815070   7.834   2.361   5.579 -0.4606 -0.7599  0.3894
   27MOL   C45915071   7.875   2.356   5.446  0.3892  0.1171 -0.0720
   27MOL   C46015072   8.012   2.380   5.408  0.2704  0.4053  0.5394
   27MOL   N46115073   8.032   2.387   5.270 -0.0644  0.3859 -0.3736
   27MOL   C46215074   8.100   2.412   5.507 -0.2078 -0.3869 -0.6008
   27MOL   C46315075   8.062   2.416   5.642 -0.5582 -0.3223 -0.1916
   27MOL   O46415076   8.062   2.444   5.947  0.4026  0.1264  0.0887
   27MOL   C46515077   7.717   2.371   6.047 -0.2961  0.1009 -0.2024
   27MOL   C46615078   7.643   2.333   6.167 -0.4401  0.0455  0.5706
   27MOL   O46715079   7.551   2.140   6.375  0.4530  0.0184 -0.1570
   27MOL   H46815080   7.910   2.269   6.375 -0.5592 -2.1158 -0.1598
   27MOL   H46915081   8.028   2.351   6.177 -0.7700 -0.1396 -0.4363
   27MOL   H47015082   7.791   2.363   5.838  0.6265 -0.7272  0.4933
   27MOL   H47115083   7.730   2.341   5.600 -1.5415  2.1344 -1.7959
   27MOL   H47215084   7.806   2.330   5.367 -1.2282 -0.4703  1.5005
   27MOL   H47315085   7.957   2.353   5.212 -1.2965  0.3552  1.1897
   27MOL   H47415086   0.055   2.433   5.475 -0.0248 -1.2951 -0.6459
   27MOL   H47515087   8.125   2.459   5.719 -0.6403 -0.0238 -0.2915
   27MOL   H47615088   7.672   2.395   5.952  1.6355 -0.2946 -1.2518
   27MOL   H47715089   7.536   2.339   6.177 -0.1185  3.2174  2.5059
   27MOL   C47815090   8.131   2.421   5.194  0.1914 -0.0706  0.6243
   27MOL   C47915091   8.102   2.443   5.046 -0.0606 -0.5269  0.1698
   27MOL   C48015092   7.970   2.423   4.990  0.4776  0.1747 -0.3533
   27MOL   C48115093   7.936   2.442   4.857 -0.1024  0.1520  0.0317
   27MOL   C48215094   8.035   2.483   4.766 -0.5164 -0.2839 -0.4123
   27MOL   C48315095   8.004   2.504   4.620 -0.3064  0.6992  0.8739
   27MOL   N48415096   7.904   2.423   4.574  0.2426  0.1454 -0.1560
   27MOL   C48515097   7.844   2.420   4.446  0.0297 -0.0179 -0.4291
   27MOL   C48615098   7.903   2.465   4.326  0.0524 -0.5514  0.3956
   27MOL   C48715099   7.825   2.470   4.205  0.5786  0.3439  0.2510
   27MOL   C48815100   7.691   2.419   4.195  0.0421 -0.2354 -0.3374
   27MOL   N48915101   7.619   2.434   4.075 -0.2107  0.3489  1.0267
   27MOL   C49015102   7.640   2.369   4.312 -0.4464 -0.6602 -0.5561
   27MOL   C49115103   7.713   2.371   4.436  0.4452 -0.6190  0.2071
   27MOL   O49215104   8.071   2.567   4.544  0.9656 -0.0285  0.3633
   27MOL   C49315105   0.015   2.509   4.817  0.4787  0.9872 -0.2355
   27MOL   C49415106   0.050   2.481   4.951  0.4525 -0.1475  0.1849
   27MOL   O49515107   0.101   2.442   5.233 -0.0977 -0.2214 -0.0016
   27MOL   H49615108   7.891   2.388   5.054  0.4399 -0.5986 -0.8154
   27MOL   H49715109   7.831   2.436   4.831  0.4502 -0.9136 -2.0578
   27MOL   H49815110   7.854   2.376   4.648 -2.0457  1.9245 -0.5249
   27MOL   H49915111   8.006   2.496   4.334  0.6352 -1.1711 -3.8090
   27MOL   H50015112   7.875   2.510   4.117  1.5705 -1.2010  0.0871
   27MOL   H50115113   7.669   2.490   4.008  0.3273 -0.0840  1.0646
   27MOL   H50215114   7.540   2.330   4.314 -0.1363 -1.6852 -3.0743
   27MOL   H50315115   7.663   2.333   4.523  0.7187 -3.5463 -0.8424
   27MOL   H50415116   0.091   2.543   4.748  3.3032  1.8299  3.1124
   27MOL   H50515117   0.153   2.505   4.973  0.2341  1.0059 -0.0682
   27MOL   C50615118   7.497   2.390   4.043 -0.2902 -0.0181 -0.0618
   27MOL   C50715119   7.442   2.451   3.914 -0.6685  0.8315 -0.3251
   27MOL   C50815120   7.473   2.584   3.882  0.3638 -0.1184  0.0207
   27MOL   C50915121   7.406   2.641   3.768  0.0553 -0.0336 -0.0427
   27MOL   C51015122   7.320   2.564   3.685 -0.0156  0.3077 -0.4484
   27MOL   C51115123   7.253   2.622   3.565  0.0637  0.4801  0.4685
   27MOL   N51215124   7.172   2.731   3.580 -0.0996  0.9141 -0.3955
   27MOL   C51315125   7.165   2.835   3.675 -0.0974 -0.4992 -0.4842
   27MOL   C51415126   7.158   2.805   3.809 -1.0048  0.2097  0.1464
   27MOL   C51515127   7.152   2.905   3.908 -1.0298  0.1469  0.1135
   27MOL   C51615128   7.167   3.038   3.865 -0.2689  0.4838 -0.6737
   27MOL   N51715129   7.159   3.139   3.961  0.0182  0.3016 -0.8266
   27MOL   C51815130   7.179   3.069   3.723 -0.1783 -0.9491  0.6377
   27MOL   C51915131   7.163   2.970   3.630 -0.3745  0.5217  0.9702
   27MOL   O52015132   7.269   2.572   3.451 -0.4489 -0.3056 -0.3378
   27MOL   C52115133   7.294   2.431   3.721  0.2918  0.4864  0.4986
   27MOL   C52215134   7.357   2.374   3.836 -0.0265  0.7224  0.2499
   27MOL   O52315135   7.444   2.298   4.103  0.1424  0.7552 -0.4752
   27MOL   H52415136   7.539   2.634   3.951  0.7573 -1.3707  0.5691
   27MOL   H52515137   7.429   2.740   3.734 -3.0482  0.7235 -0.1141
   27MOL   H52615138   7.145   2.750   3.485 -2.2182  1.0853  0.2116
   27MOL   H52715139   7.172   2.702   3.836 -1.6991  0.4005  1.2754
   27MOL   H52815140   7.141   2.887   4.013  0.3724  0.1645  0.2845
   27MOL   H52915141   7.159   3.116   4.059  1.5497  0.6567 -0.7315
   27MOL   H53015142   7.182   3.172   3.692  1.6275 -1.0338  0.4650
   27MOL   H53115143   7.155   3.007   3.529 -1.4777 -3.5051 -0.5234
   27MOL   H53215144   7.217   2.371   3.674  0.0966 -1.2982  2.9452
   27MOL   H53315145   7.334   2.273   3.865 -0.6348  0.4570 -1.0976
   27MOL   C53415146   7.110   3.264   3.951 -0.4192 -0.0837  0.0787
   27MOL   C53515147   7.086   3.330   4.083  0.3559  0.0678  0.9566
   27MOL   C53615148   7.054   3.466   4.093  0.5102 -0.0352  0.2415
   27MOL   C53715149   7.019   3.520   4.214 -0.1733 -0.2668  0.4553
   27MOL   C53815150   7.005   3.439   4.326 -0.2096  0.5546 -0.1507
   27MOL   C53915151   6.964   3.504   4.455  0.1177  0.2441  0.2003
   27MOL   N54015152   6.880   3.430   4.529 -0.3062  0.4741  0.3604
   27MOL   C54115153   6.809   3.471   4.645 -0.3415  0.5235 -0.2318
   27MOL   C54215154   6.758   3.601   4.661  0.6314 -0.4148 -0.5685
   27MOL   C54315155   6.676   3.628   4.771  0.1086 -0.7562 -0.1063
   27MOL   C54415156   6.642   3.520   4.861 -0.5543  0.2699 -0.0644
   27MOL   N54515157   6.544   3.538   4.959 -0.2867  0.0335  0.0895
   27MOL   C54615158   6.714   3.398   4.853 -0.1386 -0.8510 -0.0463
   27MOL   C54715159   6.799   3.377   4.746  0.0584  0.3017 -0.1012
   27MOL   O54815160   6.998   3.624   4.477  0.2347 -0.6028 -0.5475
   27MOL   C54915161   7.024   3.300   4.313 -0.5383 -0.0721 -0.1461
   27MOL   C55015162   7.071   3.250   4.196  0.0294 -0.1087 -0.2159
   27MOL   O55115163   7.083   3.327   3.845  0.0943 -0.1187 -0.8059
   27MOL   H55215164   7.060   3.527   4.004  0.6636 -0.4757 -0.0534
   27MOL   H55315165   6.991   3.624   4.222  1.0150  0.0735  0.2843
   27MOL   H55415166   6.856   3.339   4.493 -0.6784  1.7370 -2.7526
   27MOL   H55515167   6.773   3.679   4.587 -1.9829  0.7744  0.1082
   27MOL   H55615168   6.630   3.725   4.780  4.0145  1.1601  0.1038
   27MOL   H55715169   6.565   3.489   5.045  2.0606  1.2675  0.2369
   27MOL   H55815170   6.700   3.319   4.925  1.4960  0.2540  1.5356
   27MOL   H55915171   6.857   3.286   4.740  1.1496  0.9535  0.2503
   27MOL   H56015172   7.013   3.237   4.399  1.4105  0.7117  0.7074
   27MOL   H56115173   7.084   3.143   4.201  0.6348 -0.0626 -0.7008
   27MOL   H56215174   6.541   3.635   4.987  1.8395 -0.2787  1.5169
   28MOL     C115175   8.010   7.001   7.747  0.7698  0.0155  0.0295
   28MOL     C215176   8.096   6.912   7.673 -0.7112 -0.6027 -0.2013
   28MOL     C315177   8.083   6.903   7.534 -0.3488 -0.2945  0.8057
   28MOL     C415178   0.020   6.823   7.458  0.5718 -0.2963 -0.1680
   28MOL     C515179   0.111   6.740   7.526 -0.2355 -0.1630  0.4214
   28MOL     C615180   0.200   6.654   7.444 -0.8130 -0.1739 -0.5519
   28MOL     N715181   0.142   6.591   7.347  0.0712  0.6644 -0.3426
   28MOL     C815182   0.215   6.505   7.259 -0.2230 -0.1122  0.4411
   28MOL     C915183   0.224   6.537   7.122 -0.3805  0.0144  0.0169
   28MOL    C1015184   0.300   6.464   7.026  0.4578 -0.2603 -0.3999
   28MOL    C1115185   0.368   6.347   7.072  0.3596  0.0426 -0.0029
   28MOL    N1215186   0.436   6.254   6.991 -0.3621  0.8453 -0.4506
   28MOL    C1315187   0.353   6.310   7.210 -0.6595 -1.3518 -0.0969
   28MOL    C1415188   0.283   6.388   7.298 -0.9546  0.0404 -0.3364
   28MOL    O1515189   0.318   6.637   7.481 -0.2004 -0.5062  0.3350
   28MOL    C1615190   0.127   6.747   7.666  0.1025 -0.6860  0.1671
   28MOL    C1715191   0.040   6.831   7.738 -0.7524 -0.1655 -0.0952
   28MOL    O1815192   7.969   7.109   7.702 -0.1459  0.8087 -0.2183
   28MOL    H1915193   8.013   6.962   7.477 -0.3325 -1.1043 -0.0555
   28MOL    H2015194   0.008   6.822   7.351  0.6456  1.8674 -0.2296
   28MOL    H2115195   0.046   6.611   7.321  0.2385  0.5899 -1.0312
   28MOL    H2215196   0.192   6.631   7.081 -2.8470 -0.5899  0.4782
   28MOL    H2315197   0.323   6.494   6.925 -1.0883 -1.3822 -1.1012
   28MOL    H2415198   0.514   6.204   7.032 -1.5816 -1.3889 -0.7766
   28MOL    H2515199   0.412   6.225   7.243  0.2795 -1.4168 -1.8699
   28MOL    H2615200   0.285   6.354   7.401  0.5875 -3.0114 -1.3308
   28MOL    H2715201   0.196   6.683   7.718 -0.8266 -0.6628  1.4396
   28MOL    H2815202   0.053   6.837   7.845 -0.0333  0.0468 -0.1929
   28MOL    H2915203   7.991   6.959   7.846 -1.2301  1.8095  0.4439
   28MOL    C3015204   0.422   6.234   6.857 -0.1588 -0.0439 -0.1847
   28MOL    C3115205   0.518   6.135   6.798  0.4929  0.2205  0.4010
   28MOL    C3215206   0.586   6.042   6.882 -0.0690 -0.4133  0.6043
   28MOL    C3315207   0.683   5.957   6.814  0.0908 -0.5532 -0.1662
   28MOL    C3415208   0.689   5.946   6.674 -0.1416 -1.0068  0.0414
   28MOL    C3515209   0.785   5.852   6.602  0.5400  0.4684  0.5070
   28MOL    N3615210   0.736   5.806   6.480 -0.2675  0.3994 -0.0267
   28MOL    C3715211   0.800   5.714   6.389 -0.1675  0.6826 -0.1748
   28MOL    C3815212   0.937   5.669   6.403  0.4834 -0.2442  0.5508
   28MOL    C3915213   0.993   5.588   6.302  0.1050 -0.3011 -0.1703
   28MOL    C4015214   0.922   5.557   6.185 -0.1830  0.4542  0.1128
   28MOL    N4115215   0.990   5.487   6.086  0.7858  0.0343  0.7837
   28MOL    C4215216   0.786   5.597   6.177 -0.9451  0.2890 -0.6499
   28MOL    C4315217   0.727   5.670   6.280  0.4042 -0.3945 -0.2692
   28MOL    O4415218   0.882   5.807   6.656 -0.1608  0.0998  0.1605
   28MOL    C4515219   0.617   6.038   6.594 -0.3539  0.4511 -0.2492
   28MOL    C4615220   0.536   6.131   6.658 -0.3364  0.0251 -0.7763
   28MOL    O4715221   0.333   6.281   6.793  0.2691 -0.2954 -0.3474
   28MOL    H4815222   0.575   6.054   6.989  0.1486  0.6956  0.5026
   28MOL    H4915223   0.737   5.890   6.879 -0.0613  0.2406  0.7839
   28MOL    H5015224   0.653   5.857   6.455 -0.2122 -0.0846 -1.2223
   28MOL    H5115225   1.008   5.699   6.479  0.4157  0.8980  0.1688
   28MOL    H5215226   1.095   5.551   6.308 -0.9386 -2.9212  1.8035
   28MOL    H5315227   1.080   5.450   6.113  0.5945 -1.3113 -0.3446
   28MOL    H5415228   0.727   5.564   6.092 -0.9348 -0.7517 -0.2593
   28MOL    H5515229   0.622   5.695   6.274  0.4883  0.1075  0.3350
   28MOL    H5615230   0.624   6.049   6.486 -1.7319 -0.1882 -0.4198
   28MOL    H5715231   0.486   6.207   6.600  1.4925  1.3160 -0.7109
   28MOL    C5815232   0.967   5.495   5.950  0.2272  0.5174 -0.7132
   28MOL    C5915233   1.030   5.386   5.876 -0.0838 -0.0922  0.3080
   28MOL    C6015234   0.991   5.371   5.742 -0.0721  0.1851  0.3556
   28MOL    C6115235   1.052   5.264   5.663  0.0569  0.0111  0.0081
   28MOL    C6215236   1.146   5.178   5.728  0.6334  0.0063 -0.4229
   28MOL    C6315237   1.197   5.053   5.654  0.3722 -0.4006 -0.2627
   28MOL    N6415238   1.171   4.936   5.707  0.2584  0.4693  0.3760
   28MOL    C6515239   1.063   4.895   5.800 -0.4691  0.2864 -0.0950
   28MOL    C6615240   1.099   4.786   5.880 -0.4567  0.3391  0.6007
   28MOL    C6715241   1.000   4.731   5.966 -0.0241  0.4630 -0.1401
   28MOL    C6815242   0.868   4.779   5.975  0.6142  0.5741  0.1975
   28MOL    N6915243   0.781   4.718   6.067  0.2444  0.0230  0.1822
   28MOL    C7015244   0.837   4.893   5.900 -0.1112 -0.2947  0.4466
   28MOL    C7115245   0.929   4.939   5.806  0.2953  0.0619  0.1432
   28MOL    O7215246   1.279   5.062   5.558  0.3623 -0.5876  0.0137
   28MOL    C7315247   1.168   5.187   5.862  0.1445  0.1966 -0.0058
   28MOL    C7415248   1.116   5.298   5.934  0.7260 -0.7130  0.5059
   28MOL    O7515249   0.904   5.584   5.900 -0.2655  0.0075 -0.1829
   28MOL    H7615250   0.928   5.441   5.689  0.6185 -0.7921 -1.8518
   28MOL    H7715251   1.008   5.249   5.565 -1.1562 -0.4830  0.6227
   28MOL    H7815252   1.220   4.856   5.668  0.2567  0.7873 -0.2832
   28MOL    H7915253   1.199   4.746   5.878 -0.6115 -0.0001 -1.2792
   28MOL    H8015254   1.033   4.649   6.028  2.0350  1.5733  0.3071
   28MOL    H8115255   0.802   4.620   6.083 -0.8281 -0.1746  0.4683
   28MOL    H8215256   0.738   4.935   5.893  0.2630  0.4580 -0.4459
   28MOL    H8315257   0.897   5.018   5.740  0.7005  0.6474  0.6308
   28MOL    H8415258   1.241   5.122   5.908 -0.3935  0.3362  1.0409
   28MOL    H8515259   1.139   5.305   6.039 -2.2618 -0.1445  1.1547
   28MOL    C8615260   0.660   4.755   6.107  0.2714  0.4440  0.3244
   28MOL    C8715261   0.579   4.641   6.169 -0.3048  0.0120  0.1130
   28MOL    C8815262   0.568   4.525   6.094 -0.1350 -0.4253 -0.4838
   28MOL    C8915263   0.485   4.421   6.137 -0.0383 -0.2675 -1.0374
   28MOL    C9015264   0.422   4.430   6.267  0.3455 -0.4199  0.5437
   28MOL    C9115265   0.359   4.313   6.334  0.1821  0.7270 -0.1861
   28MOL    N9215266   0.221   4.321   6.348  0.3156  0.0143  0.2379
   28MOL    C9315267   0.128   4.223   6.400 -0.3467 -0.5130  1.1673
   28MOL    C9415268   8.137   4.254   6.379  0.3549 -0.2358  0.6164
   28MOL    C9515269   8.033   4.162   6.422  0.1321  0.1164  0.5297
   28MOL    C9615270   8.074   4.038   6.485 -0.4182  0.3322  0.1869
   28MOL    N9715271   7.986   3.941   6.534 -0.0315 -0.6615 -0.9613
   28MOL    C9815272   0.062   4.017   6.522 -0.1338  0.4891 -0.3200
   28MOL    C9915273   0.155   4.111   6.477 -0.8789  0.4219  0.1552
   28MOL   O10015274   0.429   4.217   6.381  0.2274 -0.0597  0.2445
   28MOL   C10115275   0.432   4.550   6.336  0.1631  0.1436  0.8234
   28MOL   C10215276   0.512   4.660   6.290  0.5860 -0.1143  0.5577
   28MOL   O10315277   0.611   4.865   6.097 -0.3924 -0.2694  0.1427
   28MOL   H10415278   0.610   4.514   5.995 -0.3094  0.5754 -0.6706
   28MOL   H10515279   0.484   4.332   6.075  0.3897 -0.2846 -1.0189
   28MOL   H10615280   0.185   4.410   6.316  1.3960  0.3782  0.0126
   28MOL   H10715281   8.104   4.349   6.341  0.8211 -0.1549  0.4097
   28MOL   H10815282   7.929   4.190   6.422 -0.0383 -0.4727 -1.6253
   28MOL   H10915283   8.017   3.899   6.620 -1.2309 -1.6084 -0.9863
   28MOL   H11015284   0.089   3.942   6.594 -2.8400 -1.5835 -1.3646
   28MOL   H11115285   0.258   4.096   6.507 -0.8373  1.3366  0.4846
   28MOL   H11215286   0.375   4.551   6.428 -0.5263 -0.7887  0.4105
   28MOL   H11315287   0.510   4.754   6.344 -2.6585  0.6989 -0.8456
   28MOL   C11415288   7.907   3.865   6.455  0.4312 -0.3250  0.3158
   28MOL   C11515289   7.865   3.739   6.519  0.3548  0.0505 -0.5463
   28MOL   C11615290   7.949   3.668   6.606 -0.6598  0.0114 -0.1715
   28MOL   C11715291   7.912   3.551   6.671 -0.1524 -0.2096  0.5057
   28MOL   C11815292   7.786   3.500   6.647  0.0830  0.0194  0.2781
   28MOL   C11915293   7.741   3.368   6.707 -0.0085 -0.2348 -0.4381
   28MOL   N12015294   7.609   3.349   6.693 -0.4479 -0.6025  0.1718
   28MOL   C12115295   7.539   3.233   6.725 -0.3489  0.8478 -0.0837
   28MOL   C12215296   7.605   3.107   6.746  0.3668 -0.1226 -0.0409
   28MOL   C12315297   7.534   2.994   6.785 -0.6679  0.7027 -0.0469
   28MOL   C12415298   7.394   2.996   6.780 -0.2491  0.3539  0.4484
   28MOL   N12515299   7.309   2.885   6.822 -0.0474 -0.2226  0.4524
   28MOL   C12615300   7.324   3.117   6.750  0.0911 -0.1181  0.2318
   28MOL   C12715301   7.404   3.239   6.732 -0.0956  0.9277  0.4609
   28MOL   O12815302   7.821   3.303   6.768 -0.3198  0.0248  0.4325
   28MOL   C12915303   7.706   3.558   6.549  0.3401  0.0293 -0.0239
   28MOL   C13015304   7.740   3.682   6.487 -0.0176 -0.2699  0.1882
   28MOL   O13115305   7.852   3.903   6.357 -0.5841  0.7054  0.0547
   28MOL   H13215306   8.050   3.704   6.623 -0.7052  0.4841 -0.8609
   28MOL   H13315307   7.981   3.507   6.741  0.0136 -0.0753  0.4243
   28MOL   H13415308   7.552   3.419   6.648 -1.3596 -0.7983  1.0113
   28MOL   H13515309   7.713   3.099   6.739  0.3796  1.6032 -2.5659
   28MOL   H13615310   7.587   2.902   6.804 -0.4592  0.5698 -1.2426
   28MOL   H13715311   7.221   2.920   6.856 -0.5669  0.1016 -1.1546
   28MOL   H13815312   7.216   3.115   6.746  0.0961  0.9548 -0.5879
   28MOL   H13915313   7.360   3.336   6.709 -1.4930 -0.0135 -0.9440
   28MOL   H14015314   7.613   3.514   6.514 -0.3518  1.7666 -0.4334
   28MOL   H14115315   7.675   3.730   6.415 -1.9081  0.4036  2.2657
   28MOL   C14215316   7.322   2.752   6.804  0.8694 -0.8402  0.2336
   28MOL   C14315317   7.434   2.709   6.721 -0.6069 -0.2606 -0.4929
   28MOL   C14415318   7.430   2.734   6.581  0.1217  0.0547  0.1323
   28MOL   C14515319   7.538   2.705   6.495 -0.3114  0.0629 -0.0313
   28MOL   C14615320   7.651   2.645   6.554  0.9015  0.5565  1.0619
   28MOL   C14715321   7.775   2.622   6.478 -0.3797  0.2772  0.1942
   28MOL   N14815322   7.819   2.709   6.389  0.0257 -0.2261  0.1625
   28MOL   C14915323   7.949   2.740   6.341  0.7492 -0.4558  0.1664
   28MOL   C15015324   8.044   2.798   6.435  0.2884  0.0886  0.5577
   28MOL   C15115325   0.016   2.851   6.384  0.1117  0.2394  0.0346
   28MOL   C15215326   0.050   2.846   6.251  0.6800 -0.1488  0.7256
   28MOL   N15315327   0.168   2.912   6.198  0.0219 -0.2746  0.4596
   28MOL   C15415328   8.106   2.780   6.163  0.5591  0.4448  0.0231
   28MOL   C15515329   7.985   2.728   6.205  1.0468  0.0385 -0.6800
   28MOL   O15615330   7.842   2.520   6.499 -0.1260  0.3942  0.1935
   28MOL   C15715331   7.647   2.592   6.685 -0.3040 -0.2726 -0.1994
   28MOL   C15815332   7.541   2.631   6.773 -0.1605  0.0192 -0.2895
   28MOL   O15915333   7.251   2.671   6.859 -0.0826  0.3005  0.0629
   28MOL   H16015334   7.353   2.795   6.537  1.0126  2.4428  1.7482
   28MOL   H16115335   7.538   2.741   6.393 -1.0676 -0.8559 -0.3530
   28MOL   H16215336   7.748   2.777   6.363 -1.1839 -1.1901  0.8571
   28MOL   H16315337   8.028   2.808   6.542  2.2017 -0.8332  0.9435
   28MOL   H16415338   0.075   2.909   6.454 -0.2264 -0.2632  0.7368
   28MOL   H16515339   0.203   2.879   6.109 -2.0125 -0.1337 -0.4222
   28MOL   H16615340   8.128   2.773   6.058  0.8942  1.5184  0.0197
   28MOL   H16715341   7.913   2.682   6.139 -1.0917  0.7084  1.1333
   28MOL   H16815342   7.733   2.535   6.718 -1.5594 -0.8382  2.1897
   28MOL   H16915343   7.545   2.593   6.874  0.3247  0.2771 -0.2116
   28MOL   C17015344   0.243   3.003   6.252  0.4719 -0.0870 -0.1565
   28MOL   C17115345   0.381   3.033   6.195 -0.7574  0.3095 -0.2519
   28MOL   C17215346   0.434   2.977   6.079  0.0974  0.3301  0.2444
   28MOL   C17315347   0.564   3.003   6.034 -1.1421 -0.1089  0.0157
   28MOL   C17415348   0.639   3.104   6.095  0.2271 -0.8236 -0.0960
   28MOL   C17515349   0.769   3.149   6.033 -0.0183 -0.6203 -1.0957
   28MOL   N17615350   0.873   3.149   6.110  0.3007  0.4658 -0.2252
   28MOL   C17715351   1.005   3.161   6.061 -0.1831  0.8209  0.0214
   28MOL   C17815352   1.082   3.041   6.058  0.1215  0.0795 -0.0358
   28MOL   C17915353   1.216   3.050   6.013 -0.3204  0.4354 -0.3448
   28MOL   C18015354   1.270   3.175   5.972 -0.5524  0.3771  0.2617
   28MOL   N18115355   1.401   3.197   5.922  0.0724 -0.0145  0.4794
   28MOL   C18215356   1.192   3.288   5.985 -0.3994  0.3398 -0.1781
   28MOL   C18315357   1.062   3.282   6.030  0.1519  0.0105  0.0479
   28MOL   O18415358   0.763   3.187   5.915  0.1515 -0.2174 -0.8495
   28MOL   C18515359   0.583   3.173   6.203  0.0482 -0.0437 -0.0704
   28MOL   C18615360   0.460   3.135   6.257 -0.5872  0.5454 -0.1375
   28MOL   O18715361   0.203   3.066   6.351 -0.2810 -0.4688  0.2338
   28MOL   H18815362   0.381   2.896   6.031  0.0419  0.7339 -0.3830
   28MOL   H18915363   0.605   2.961   5.943  1.8259 -0.0564  1.2490
   28MOL   H19015364   0.851   3.118   6.204  2.0292  2.2824  0.8228
   28MOL   H19115365   1.039   2.942   6.061  0.8734 -0.2671 -0.4677
   28MOL   H19215366   1.280   2.963   6.006 -1.7459 -0.3766 -5.0726
   28MOL   H19315367   1.457   3.263   5.975  0.3269 -0.0341  0.2365
   28MOL   H19415368   1.243   3.383   5.980  0.6097 -0.2370 -1.1788
   28MOL   H19515369   1.008   3.372   6.056  1.3244  0.0618  2.4956
   28MOL   H19615370   0.634   3.255   6.250 -0.8468  0.9064 -0.7435
   28MOL   H19715371   0.407   3.194   6.330 -2.7938 -1.9885  0.3743
   28MOL   C19815372   1.473   3.135   5.828  0.3960 -0.2336 -0.3269
   28MOL   C19915373   1.404   3.038   5.738  0.5804  0.1882  0.3223
   28MOL   C20015374   1.477   2.924   5.693  0.7056 -0.2077 -0.2633
   28MOL   C20115375   1.405   2.821   5.626 -0.0026 -0.2888 -0.1227
   28MOL   C20215376   1.266   2.828   5.601  0.0419 -0.3531 -0.3273
   28MOL   C20315377   1.187   2.720   5.538  0.6694  0.1830 -0.3207
   28MOL   N20415378   1.247   2.639   5.446  0.1425 -0.7894 -0.1223
   28MOL   C20515379   1.195   2.532   5.376  0.4953 -0.0235  0.0565
   28MOL   C20615380   1.058   2.488   5.378  0.2908  0.4550  0.1042
   28MOL   C20715381   1.025   2.368   5.325  0.1201  0.2907 -0.2400
   28MOL   C20815382   1.115   2.291   5.243 -0.4136  0.4557  0.3031
   28MOL   N20915383   1.068   2.173   5.182  0.2501  0.5437 -0.0472
   28MOL   C21015384   1.249   2.339   5.228 -0.4920 -0.0922  0.4616
   28MOL   C21115385   1.283   2.460   5.297 -0.0827 -0.0211  0.2646
   28MOL   O21215386   1.066   2.703   5.572  0.2227  0.2754 -0.7709
   28MOL   C21315387   1.198   2.952   5.631  0.3631 -0.5819  0.0179
   28MOL   C21415388   1.266   3.052   5.704 -0.5819  0.0916 -0.1342
   28MOL   O21515389   1.590   3.161   5.807 -0.0165  0.5508  0.1161
   28MOL   H21615390   1.581   2.916   5.723  0.0857  0.6637  2.3062
   28MOL   H21715391   1.465   2.735   5.600 -0.4145 -0.2266 -1.3101
   28MOL   H21815392   1.347   2.653   5.444 -0.0854  0.7719 -2.5286
   28MOL   H21915393   0.981   2.531   5.440  0.9353  1.3576  0.2876
   28MOL   H22015394   0.923   2.335   5.331  0.7083 -1.3073  1.1697
   28MOL   H22115395   0.968   2.158   5.187  0.4114 -0.5403  0.0739
   28MOL   H22215396   1.326   2.289   5.171  0.6829  0.5524  1.4486
   28MOL   H22315397   1.386   2.489   5.291 -0.2508  0.7634  1.2381
   28MOL   H22415398   1.091   2.963   5.620  0.2649  1.4236  2.5527
   28MOL   H22515399   1.210   3.137   5.741 -0.5400 -0.1432  0.4708
   28MOL   C22615400   1.123   2.072   5.103 -0.9535 -0.4020 -0.5142
   28MOL   C22715401   1.035   1.952   5.079 -0.1980 -0.3923 -0.0349
   28MOL   C22815402   0.910   1.933   5.144  0.5156  0.4149 -0.1763
   28MOL   C22915403   0.843   1.807   5.146 -0.4864  0.2063  0.0978
   28MOL   C23015404   0.904   1.702   5.064  0.0866 -0.6410  0.3681
   28MOL   C23115405   0.844   1.560   5.052  1.0044  0.4829  0.8269
   28MOL   N23215406   0.747   1.535   5.138 -0.0366  0.2630  0.1920
   28MOL   C23315407   0.665   1.419   5.151 -1.2726 -0.0681  0.6751
   28MOL   C23415408   0.681   1.299   5.076 -0.4471  0.5289 -0.7275
   28MOL   C23515409   0.595   1.191   5.102  0.0352  0.1886 -0.2940
   28MOL   C23615410   0.489   1.206   5.197  0.4472 -0.0619 -0.0896
   28MOL   N23715411   0.410   1.095   5.230  0.1512  0.2303  0.2471
   28MOL   C23815412   0.475   1.322   5.264  0.7163 -0.2743 -0.2370
   28MOL   C23915413   0.567   1.432   5.246 -0.0689  0.1445 -0.3910
   28MOL   O24015414   0.890   1.475   4.970  0.0857  0.9609  0.8720
   28MOL   C24115415   1.021   1.728   4.983 -0.3869 -0.1100  0.3895
   28MOL   C24215416   1.091   1.851   4.995 -0.2361 -0.0760 -0.4011
   28MOL   O24315417   1.239   2.081   5.051 -0.5980  0.2570  0.0688
   28MOL   H24415418   0.868   2.012   5.205 -1.9189 -2.4859  2.0703
   28MOL   H24515419   0.753   1.789   5.203 -0.8603  0.3564 -0.4452
   28MOL   H24615420   0.719   1.613   5.196 -0.2026  0.8578 -0.6730
   28MOL   H24715421   0.765   1.288   5.009 -0.3716 -0.5926 -0.4653
   28MOL   H24815422   0.608   1.100   5.045  1.5943 -0.7741  1.5500
   28MOL   H24915423   0.314   1.114   5.253  0.4900  0.5968  1.4005
   28MOL   H25015424   0.404   1.338   5.344  1.6538  1.6290  0.2522
   28MOL   H25115425   0.548   1.524   5.299  0.5632 -0.6941  1.3301
   28MOL   H25215426   1.063   1.654   4.916  0.0369  0.7803 -0.3456
   28MOL   H25315427   1.179   1.871   4.936 -0.7223 -0.9925 -1.4537
   28MOL   C25415428   0.433   0.967   5.235 -0.2828  0.8251  0.1110
   28MOL   C25515429   0.328   0.892   5.315 -0.2599  0.3669 -0.0286
   28MOL   C25615430   0.303   0.912   5.445  0.4352  0.4140 -0.3749
   28MOL   C25715431   0.227   0.819   5.518 -0.0186  0.5826  0.7855
   28MOL   C25815432   0.149   0.718   5.448  1.1600 -0.1424  0.7459
   28MOL   C25915433   0.060   0.622   5.532  0.5780 -0.5860  0.4161
   28MOL   N26015434   8.106   0.558   5.461  0.7514 -0.1815 -0.0176
   28MOL   C26115435   8.003   0.484   5.517  0.3873 -0.4836  0.2935
   28MOL   C26215436   7.942   0.522   5.642 -0.8543  0.7629 -0.2219
   28MOL   C26315437   7.848   0.442   5.703 -0.2900  0.0858 -0.5187
   28MOL   C26415438   7.822   0.315   5.643 -0.4268  0.6443  0.7600
   28MOL   N26515439   7.746   0.220   5.715 -0.5607  0.4509 -0.5036
   28MOL   C26615440   7.882   0.280   5.518  0.0685 -0.1634  0.3823
   28MOL   C26715441   7.961   0.372   5.445  0.1506 -0.5247 -0.4504
   28MOL   O26815442   0.084   0.601   5.653  0.7296  0.1546 -0.0540
   28MOL   C26915443   0.170   0.703   5.312  0.3940 -0.7308  0.5473
   28MOL   C27015444   0.251   0.794   5.245 -0.1770 -0.2332  0.0069
   28MOL   O27115445   0.514   0.897   5.171 -0.1238 -0.3986 -0.8368
   28MOL   H27215446   0.360   0.991   5.493 -2.5127  3.2520 -1.3455
   28MOL   H27315447   0.211   0.831   5.624 -2.0722 -1.4513  0.7453
   28MOL   H27415448   8.114   0.568   5.361 -2.3164  1.2936 -0.1792
   28MOL   H27515449   7.978   0.612   5.689 -0.3230  0.6171 -0.3434
   28MOL   H27615450   7.801   0.467   5.798  0.8640  2.1810 -0.4742
   28MOL   H27715451   7.650   0.205   5.689 -1.0488  0.6398  1.1242
   28MOL   H27815452   7.863   0.180   5.483 -2.0213 -0.3981  2.0763
   28MOL   H27915453   8.016   0.343   5.357  0.0252 -3.8107  0.5075
   28MOL   H28015454   0.119   0.624   5.258  2.8851 -1.5455 -0.6435
   28MOL   H28115455   0.270   0.766   5.142  1.0620 -1.6859  0.6057
   28MOL   C28215456   7.802   0.131   5.802 -0.2087  0.8902 -0.2666
   28MOL   C28315457   7.950   0.137   5.809 -1.1248  0.0377 -0.3746
   28MOL   C28415458   8.008   0.236   5.892 -0.0635  0.0318 -0.0646
   28MOL   C28515459   8.145   0.245   5.907 -0.0990  0.0152  0.3827
   28MOL   C28615460   0.088   0.169   5.828 -0.1461 -0.1475 -1.1633
   28MOL   C28715461   0.232   0.187   5.835 -0.4362  0.4292  0.9318
   28MOL   N28815462   0.272   0.313   5.846  0.5981  0.7052  0.0227
   28MOL   C28915463   0.399   0.378   5.853  0.5085  0.7476  0.1615
   28MOL   C29015464   0.401   0.513   5.894 -0.0403 -0.1347 -0.0626
   28MOL   C29115465   0.519   0.589   5.904 -0.3608  0.0802  0.6468
   28MOL   C29215466   0.637   0.527   5.877 -0.7541 -0.2778 -0.1155
   28MOL   N29315467   0.754   0.618   5.872 -0.0590  0.3140 -0.2236
   28MOL   C29415468   0.644   0.388   5.858 -0.0959 -0.1106 -0.0777
   28MOL   C29515469   0.522   0.311   5.856  0.1590 -0.0744  0.6229
   28MOL   O29615470   0.302   0.086   5.834 -0.1172 -0.5758 -0.3134
   28MOL   C29715471   0.033   0.067   5.744 -0.0905 -0.6054  0.1454
   28MOL   C29815472   8.038   0.054   5.732 -0.1526  0.0470 -0.1525
   28MOL   O29915473   7.739   0.036   5.860 -0.0396  0.0052 -0.0600
   28MOL   H30015474   7.943   0.303   5.945  0.6916  0.6494  0.0893
   28MOL   H30115475   0.035   0.324   5.972  1.0710 -0.2385  0.0531
   28MOL   H30215476   0.196   0.379   5.852  0.6539  0.7764 -0.0341
   28MOL   H30315477   0.311   0.560   5.929 -0.5836 -1.1642 -0.0424
   28MOL   H30415478   0.521   0.696   5.924  0.7919  0.0399  0.7822
   28MOL   H30515479   0.730   0.706   5.915 -1.9033 -0.5927  0.6899
   28MOL   H30615480   0.738   0.338   5.843  0.6771  0.7323  1.7520
   28MOL   H30715481   0.535   0.204   5.852  2.6707  0.1237  2.0642
   28MOL   H30815482   0.098   8.143   5.695  0.7586 -0.3037  0.8193
   28MOL   H30915483   8.007   8.110   5.680 -1.5775 -1.0618  2.5046
   28MOL   C31015484   0.883   0.588   5.860  0.2507  0.1218  1.3359
   28MOL   C31115485   0.973   0.704   5.896 -0.1335 -0.2418 -0.3099
   28MOL   C31215486   0.972   0.763   6.027  0.7673 -0.2713  0.4798
   28MOL   C31315487   1.062   0.868   6.051  0.0154 -0.4005 -0.0084
   28MOL   C31415488   1.145   0.920   5.946 -1.0143  0.6985  0.5197
   28MOL   C31515489   1.225   1.050   5.966 -0.4662  0.1117 -0.4174
   28MOL   N31615490   1.193   1.123   6.071  0.3806  0.1808  0.0862
   28MOL   C31715491   1.234   1.250   6.119  0.1156 -0.2742  0.3105
   28MOL   C31815492   1.349   1.309   6.066  0.2397 -0.3408  0.1563
   28MOL   C31915493   1.398   1.432   6.113  0.6211 -0.1383 -0.0402
   28MOL   C32015494   1.328   1.495   6.218 -0.2947 -0.3107  0.3661
   28MOL   N32115495   1.388   1.613   6.277 -0.1215 -0.2887  0.3497
   28MOL   C32215496   1.212   1.435   6.274  0.1746  0.4798  0.1158
   28MOL   C32315497   1.158   1.316   6.222  0.2181 -1.0007 -0.1550
   28MOL   O32415498   1.308   1.085   5.882 -0.4380  0.1557  0.2094
   28MOL   C32515499   1.144   0.863   5.819 -0.1698 -0.3171 -0.0267
   28MOL   C32615500   1.066   0.748   5.800  0.3741 -0.3293 -0.3142
   28MOL   O32715501   0.931   0.482   5.817  0.5839  0.2396 -0.3373
   28MOL   H32815502   0.901   0.722   6.097 -0.0161 -0.3781 -0.3713
   28MOL   H32915503   1.079   0.908   6.150  2.4816  2.5000 -1.5013
   28MOL   H33015504   1.123   1.077   6.127 -1.0809 -1.0592 -2.6471
   28MOL   H33115505   1.415   1.247   6.007 -0.1480 -3.6887  3.0874
   28MOL   H33215506   1.487   1.477   6.072  0.8642 -0.1967  0.4167
   28MOL   H33315507   1.483   1.625   6.243  0.1340 -1.4462  0.6011
   28MOL   H33415508   1.162   1.467   6.364 -2.5709  0.1545 -1.2518
   28MOL   H33515509   1.079   1.268   6.277 -0.1365  0.4077  0.5756
   28MOL   H33615510   1.207   0.888   5.736  0.0625 -1.5710 -0.2439
   28MOL   H33715511   1.076   0.689   5.711  2.5800 -0.3389 -0.0803
   28MOL   C33815512   1.343   1.709   6.358  0.0381  0.5493  0.8640
   28MOL   C33915513   1.449   1.803   6.399  0.5149  0.6594 -0.0742
   28MOL   C34015514   1.587   1.760   6.400 -1.2019 -0.1055 -0.0744
   28MOL   C34115515   1.695   1.835   6.443  0.1512 -0.3397  0.5002
   28MOL   C34215516   1.656   1.960   6.508 -0.4610  0.0365 -0.1002
   28MOL   C34315517   1.775   2.041   6.560 -0.6260  0.3153 -0.1806
   28MOL   N34415518   1.881   1.965   6.598  0.5515 -0.4817 -0.4159
   28MOL   C34515519   2.009   1.998   6.635  0.2743 -0.1052 -0.2020
   28MOL   C34615520   2.050   2.121   6.681  0.1705 -0.2069  0.8180
   28MOL   C34715521   2.186   2.144   6.705  0.0376  0.8592 -1.0182
   28MOL   C34815522   2.282   2.038   6.718  0.6068  0.1621  0.6537
   28MOL   N34915523   2.414   2.047   6.777 -0.8093  0.0581 -0.2896
   28MOL   C35015524   2.239   1.911   6.675 -0.4526  0.4251  0.3706
   28MOL   C35115525   2.110   1.891   6.622 -0.3200 -0.4186  0.8829
   28MOL   O35215526   1.766   2.163   6.570  0.0872  0.1502  0.2846
   28MOL   C35315527   1.529   2.011   6.494 -0.1240  0.1361 -1.0509
   28MOL   C35415528   1.419   1.938   6.442 -0.2931 -0.3404  0.0065
   28MOL   O35515529   1.225   1.732   6.398  0.4455 -0.4954  0.3134
   28MOL   H35615530   1.617   1.661   6.370  0.9744 -0.0549  1.8723
   28MOL   H35715531   1.795   1.794   6.436  0.6953  0.7669  1.6538
   28MOL   H35815532   1.864   1.867   6.585 -0.2908 -0.2869 -0.8291
   28MOL   H35915533   1.987   2.207   6.695  0.3743 -0.0366  0.6808
   28MOL   H36015534   2.208   2.247   6.728 -0.4883  0.5396  1.0837
   28MOL   H36115535   2.466   1.967   6.811  1.4749  1.8156  0.4078
   28MOL   H36215536   2.315   1.835   6.669  0.2812  1.1108  0.7506
   28MOL   H36315537   2.091   1.793   6.582 -2.0012 -0.4749  1.7518
   28MOL   H36415538   1.505   2.112   6.520  2.1979  0.2803  0.6711
   28MOL   H36515539   1.318   1.974   6.433 -0.4885 -0.6869  0.7698
   28MOL   C36615540   2.478   2.164   6.796 -0.7024 -0.1435 -0.5169
   28MOL   C36715541   2.601   2.169   6.881  0.3510 -0.6054 -0.6289
   28MOL   C36815542   2.682   2.285   6.874 -0.5230 -0.0731 -0.4588
   28MOL   C36915543   2.800   2.296   6.952 -0.2507 -0.2279  0.7297
   28MOL   C37015544   2.829   2.197   7.047 -0.1630  0.4631 -0.4289
   28MOL   C37115545   2.939   2.218   7.147  0.9916  0.2222 -0.2345
   28MOL   N37215546   2.939   2.337   7.209 -0.7784  0.1456  0.7112
   28MOL   C37315547   3.036   2.405   7.283  0.5786 -0.1681  0.0665
   28MOL   C37415548   3.030   2.546   7.290  0.2127  0.0116  0.0484
   28MOL   C37515549   3.134   2.614   7.355  0.6648 -0.7055 -0.3082
   28MOL   C37615550   3.231   2.549   7.429 -0.4077 -0.3623  0.0951
   28MOL   N37715551   3.338   2.615   7.504 -0.1396  0.3576 -0.0069
   28MOL   C37815552   3.236   2.404   7.414 -0.8677 -0.5186  0.4764
   28MOL   C37915553   3.135   2.334   7.351  0.2747  0.6462  0.5369
   28MOL   O38015554   3.017   2.129   7.177  0.1064  0.1465 -0.5099
   28MOL   C38115555   2.755   2.079   7.058  0.4958 -0.2548  0.3407
   28MOL   C38215556   2.634   2.067   6.977  0.3345 -0.7333 -0.2205
   28MOL   O38315557   2.441   2.269   6.747 -0.2007  0.0682 -0.1961
   28MOL   H38415558   2.666   2.371   6.811  1.6462  1.4697  1.0130
   28MOL   H38515559   2.872   2.376   6.938 -1.2181  0.2449 -1.9678
   28MOL   H38615560   2.863   2.396   7.177 -1.0166  0.5763  2.0223
   28MOL   H38715561   2.951   2.609   7.253  1.5649  2.2020  0.7886
   28MOL   H38815562   3.140   2.722   7.361 -0.5779 -0.5614 -1.5219
   28MOL   H38915563   3.394   2.554   7.562  0.5261  0.7340 -0.2500
   28MOL   H39015564   3.309   2.341   7.462 -0.5670 -0.8924 -0.4559
   28MOL   H39115565   3.128   2.226   7.351 -1.4012  0.7375  1.7484
   28MOL   H39215566   2.796   2.004   7.123  2.3622 -0.4108 -0.9958
   28MOL   H39315567   2.568   1.981   6.975  0.4511 -0.8037 -1.3150
   28MOL   C39415568   3.395   2.734   7.491 -0.0114 -0.0238  0.2055
   28MOL   C39515569   3.513   2.746   7.585 -0.0495  0.0142  0.2784
   28MOL   C39615570   3.493   2.708   7.716 -0.4453  0.8003  0.2245
   28MOL   C39715571   3.601   2.720   7.810  0.5218  0.0229  0.5585
   28MOL   C39815572   3.727   2.777   7.772 -0.7184  0.2642  0.0246
   28MOL   C39915573   3.830   2.814   7.878 -0.1634 -0.4671 -0.6870
   28MOL   N40015574   3.955   2.851   7.833 -0.2920  0.0608 -0.0497
   28MOL   C40115575   4.044   2.943   7.893 -0.8553 -0.2136  0.6392
   28MOL   C40215576   4.154   2.977   7.822  0.7709 -0.0573 -0.0148
   28MOL   C40315577   4.260   3.053   7.871  0.1488 -0.7426 -0.8499
   28MOL   C40415578   4.242   3.112   7.997 -0.3171  0.0398  0.4552
   28MOL   N40515579   4.343   3.194   8.054  0.7856 -0.1574  0.3687
   28MOL   C40615580   4.123   3.089   8.075  0.1208  0.2826  0.2689
   28MOL   C40715581   4.023   3.007   8.021 -0.3955 -0.2078 -0.5830
   28MOL   O40815582   3.807   2.803   7.999  0.0664 -1.1759 -0.7968
   28MOL   C40915583   3.740   2.818   7.638  0.4949  0.0821 -0.2991
   28MOL   C41015584   3.636   2.799   7.541 -0.2432  0.2083  0.4751
   28MOL   O41115585   3.371   2.814   7.399  0.1331  0.0941  0.2567
   28MOL   H41215586   3.397   2.669   7.748 -1.0687  1.6051 -0.6196
   28MOL   H41315587   3.576   2.689   7.911  0.5437 -2.0824 -0.0598
   28MOL   H41415588   3.979   2.844   7.735  1.1934  1.1231  0.2099
   28MOL   H41515589   4.155   2.936   7.722  0.6915  1.1571 -0.5186
   28MOL   H41615590   4.342   3.076   7.804  0.2389  0.3114 -0.3939
   28MOL   H41715591   4.336   3.222   0.006  1.0599 -1.8548  0.8839
   28MOL   H41815592   4.098   3.148   0.017 -0.1275  1.4166 -0.5599
   28MOL   H41915593   3.932   2.984   8.076  0.8528  0.3149  1.7860
   28MOL   H42015594   3.815   2.884   7.597 -0.5826  1.1566 -0.5691
   28MOL   H42115595   3.659   2.824   7.439 -2.4295  0.3528 -0.0163
   28MOL   C42215596   4.433   3.273   7.997 -0.3620  0.0748  0.5646
   28MOL   C42315597   4.479   3.372   8.102 -0.1184 -1.3179  0.3900
   28MOL   C42415598   4.596   3.443   8.079  0.0504  0.2029 -0.5778
   28MOL   C42515599   4.630   3.549   0.024 -0.4320  0.3467  0.1552
   28MOL   C42615600   4.554   3.587   0.137 -0.2333 -0.3028  0.2472
   28MOL   C42715601   4.588   3.697   0.232 -0.6217 -0.0174 -0.1354
   28MOL   N42815602   4.718   3.715   0.252  0.2588 -1.0304 -0.1906
   28MOL   C42915603   4.789   3.804   0.329  0.4841  0.4724  0.2405
   28MOL   C43015604   4.928   3.808   0.308 -0.2900  0.0238 -0.1019
   28MOL   C43115605   5.007   3.908   0.377  0.1491  0.1120 -0.3557
   28MOL   C43215606   4.945   4.002   0.460  0.3041 -0.1578 -0.3024
   28MOL   N43315607   5.017   4.098   0.528  0.0882  0.2557  0.6615
   28MOL   C43415608   4.808   3.998   0.487  0.1627  0.0950 -0.4536
   28MOL   C43515609   4.733   3.899   0.420 -0.0573  0.0635 -0.1961
   28MOL   O43615610   4.500   3.760   0.286 -0.6512 -0.0696 -0.4231
   28MOL   C43715611   4.435   3.516   0.157 -0.4550  0.2460 -0.4817
   28MOL   C43815612   4.399   3.409   0.069  0.2856  0.0358 -0.6259
   28MOL   O43915613   4.475   3.272   7.880 -0.4688 -0.5162 -0.1701
   28MOL   H44015614   4.650   3.435   7.986 -0.0576 -0.1186 -0.6114
   28MOL   H44115615   4.716   3.607   8.141  3.3212 -3.6974  2.4136
   28MOL   H44215616   4.780   3.656   0.198  0.3395 -0.7265 -0.4296
   28MOL   H44315617   4.981   3.742   0.241 -0.6213 -1.2887  0.9018
   28MOL   H44415618   5.115   3.909   0.367  0.2761  1.5460  0.9827
   28MOL   H44515619   4.992   4.117   0.624 -2.3751  0.5231  0.0074
   28MOL   H44615620   4.754   4.069   0.548 -1.4470 -0.9821 -0.5987
   28MOL   H44715621   4.628   3.894   0.442 -0.0524  2.7222  0.6247
   28MOL   H44815622   4.370   3.536   0.241  1.0202  2.7658  0.1379
   28MOL   H44915623   4.300   3.367   0.081 -0.2679  1.2102 -1.0095
   28MOL   C45015624   5.111   4.173   0.464 -0.5220 -0.5741  0.1485
   28MOL   C45115625   5.197   4.260   0.555 -0.7817  0.1795  0.5264
   28MOL   C45215626   5.329   4.225   0.585  0.5527 -0.1808 -0.6467
   28MOL   C45315627   5.414   4.308   0.663  0.0471  0.1484  0.0951
   28MOL   C45415628   5.365   4.428   0.715  0.3816 -0.3824  0.1163
   28MOL   C45515629   5.463   4.503   0.797 -0.0055 -0.4540 -0.2845
   28MOL   N45615630   5.424   4.628   0.823 -0.2002 -0.4608  0.8091
   28MOL   C45715631   5.513   4.730   0.875  0.2558  0.4024 -0.6074
   28MOL   C45815632   5.554   4.727   1.014 -0.0293 -0.3845 -0.0236
   28MOL   C45915633   5.639   4.831   1.058  0.1962 -0.1507 -0.7573
   28MOL   C46015634   5.691   4.933   0.969 -0.0001 -0.0347  0.2556
   28MOL   N46115635   5.771   5.041   1.002 -0.3895 -0.2560 -0.0975
   28MOL   C46215636   5.641   4.927   0.834 -0.0300  0.1091 -0.1184
   28MOL   C46315637   5.549   4.832   0.789  0.2768  0.4092 -0.3075
   28MOL   O46415638   5.567   4.454   0.846  0.1666 -0.4750  0.1601
   28MOL   C46515639   5.229   4.463   0.694  0.2774  0.2528 -0.3543
   28MOL   C46615640   5.147   4.376   0.621 -0.5237 -0.1253  1.0168
   28MOL   O46715641   5.124   4.188   0.340  1.0757  0.9053  0.4127
   28MOL   H46815642   5.380   4.141   0.542  2.1225  0.2563  0.3446
   28MOL   H46915643   5.514   4.273   0.683  0.2799 -0.3929 -1.9387
   28MOL   H47015644   5.335   4.647   0.779 -1.8256 -0.0999  4.0254
   28MOL   H47115645   5.511   4.644   1.068 -1.9361  0.3448 -0.3685
   28MOL   H47215646   5.670   4.834   1.162  1.3989 -0.5379 -1.0948
   28MOL   H47315647   5.774   5.120   0.939 -1.3344  0.5530  0.8459
   28MOL   H47415648   5.677   4.993   0.756 -0.3953 -2.3629 -2.4408
   28MOL   H47515649   5.515   4.835   0.686  1.6502 -1.4544 -0.8489
   28MOL   H47615650   5.188   4.558   0.725 -0.3225 -0.0363 -0.2555
   28MOL   H47715651   5.045   4.407   0.609 -0.3831  0.2941  0.9122
   28MOL   C47815652   5.845   5.061   1.112  0.0459  0.3310 -0.1261
   28MOL   C47915653   5.898   5.200   1.124 -0.0548 -0.0767  0.4136
   28MOL   C48015654   5.831   5.316   1.080 -0.5832  0.5298  0.7346
   28MOL   C48115655   5.878   5.445   1.088  0.3100 -0.2638  0.7863
   28MOL   C48215656   6.013   5.460   1.138  0.4526  0.1239  0.1070
   28MOL   C48315657   6.075   5.596   1.140  0.0133 -0.9228 -0.9076
   28MOL   N48415658   6.180   5.606   1.056  0.4404 -0.2635  0.1687
   28MOL   C48515659   6.174   5.553   0.928 -0.1262  0.2612  0.1968
   28MOL   C48615660   6.251   5.435   0.898  0.1680  0.1614 -0.4167
   28MOL   C48715661   6.232   5.368   0.781 -0.0263 -0.0277 -0.6321
   28MOL   C48815662   6.162   5.426   0.676  0.3446 -0.4185  0.2296
   28MOL   N48915663   6.139   5.381   0.543 -0.0764  0.4913  0.5017
   28MOL   C49015664   6.086   5.540   0.706  0.1213 -1.2228  0.2646
   28MOL   C49115665   6.082   5.604   0.829  0.0428 -0.5304  0.0485
   28MOL   O49215666   6.028   5.689   1.200  0.1358 -0.2134  0.1632
   28MOL   C49315667   6.087   5.346   1.187  0.6585  0.0116  0.0719
   28MOL   C49415668   6.026   5.214   1.182  0.0057 -0.1132  0.5015
   28MOL   O49515669   5.863   4.981   1.202 -0.2505  0.1669  0.0942
   28MOL   H49615670   5.732   5.310   1.039  0.2035 -0.6883 -1.0705
   28MOL   H49715671   5.821   5.533   1.065  0.4444  0.2168  2.1922
   28MOL   H49815672   6.222   5.698   1.062  0.9030 -0.4234 -0.6199
   28MOL   H49915673   6.306   5.387   0.978  1.8739  1.4094 -0.8004
   28MOL   H50015674   6.294   5.283   0.756  0.0535  0.0545 -0.7146
   28MOL   H50115675   6.099   5.443   0.474  1.1177  3.2079  2.1972
   28MOL   H50215676   6.028   5.580   0.624 -0.5488 -2.2724  0.2161
   28MOL   H50315677   6.015   5.683   0.858  0.4973 -0.7713  1.8574
   28MOL   H50415678   6.192   5.351   1.211  0.7046  0.4466 -0.2175
   28MOL   H50515679   6.082   5.122   1.192  0.8459  0.1953 -1.2336
   28MOL   C50615680   6.157   5.255   0.500 -0.3961  0.2666  0.2133
   28MOL   C50715681   6.133   5.226   0.356  0.0725 -0.8637 -0.1208
   28MOL   C50815682   6.177   5.323   0.258 -0.7558  0.0041 -0.1057
   28MOL   C50915683   6.159   5.290   0.126  0.1004 -0.3374 -0.1119
   28MOL   C51015684   6.105   5.167   0.084 -0.2733 -0.7407  0.3409
   28MOL   C51115685   6.108   5.137   8.081 -0.2927  0.4430 -0.9187
   28MOL   N51215686   6.017   5.040   8.053  0.4260  0.3975  0.7403
   28MOL   C51315687   5.991   4.971   7.933 -0.2272 -0.0402  0.4213
   28MOL   C51415688   5.872   4.894   7.928  0.1289 -0.5787 -0.4165
   28MOL   C51515689   5.839   4.820   7.816  0.5932 -0.0835  0.0500
   28MOL   C51615690   5.909   4.837   7.700 -0.0767 -0.1288  0.3319
   28MOL   N51715691   5.866   4.762   7.590 -0.5349  0.6093 -0.2145
   28MOL   C51815692   6.026   4.922   7.697 -0.4388 -0.3669  0.8040
   28MOL   C51915693   6.069   4.988   7.814  0.7590 -0.0287  0.3142
   28MOL   O52015694   6.177   5.200   8.004 -0.2037  0.0132 -0.0949
   28MOL   C52115695   6.065   5.073   0.183  0.6112  0.4305 -0.5115
   28MOL   C52215696   6.068   5.103   0.322 -0.8347  1.0414  1.2347
   28MOL   O52315697   6.177   5.156   0.574  0.0628 -0.1442  1.0323
   28MOL   H52415698   6.218   5.418   0.288  0.2495 -0.2026 -0.8107
   28MOL   H52515699   6.195   5.352   0.045  2.0681 -1.0478  0.1747
   28MOL   H52615700   5.950   5.033   8.129  1.2906 -0.2860  1.4472
   28MOL   H52715701   5.806   4.875   8.011  1.5675 -0.8333  0.6896
   28MOL   H52815702   5.755   4.753   7.826 -0.4426  0.9762 -1.4649
   28MOL   H52915703   5.767   4.743   7.600 -0.3692  0.1562  0.6439
   28MOL   H53015704   6.075   4.942   7.603 -1.4383 -2.3162 -0.1732
   28MOL   H53115705   6.157   5.050   7.806  2.2286 -1.7006  2.9021
   28MOL   H53215706   6.032   4.973   0.157  1.0442  0.5433 -1.5177
   28MOL   H53315707   6.035   5.027   0.391  2.6543 -0.9215  0.8754
   28MOL   C53415708   5.935   4.694   7.494  0.0439 -0.1830 -0.3348
   28MOL   C53515709   5.849   4.610   7.404  0.3033  0.7881  0.1869
   28MOL   C53615710   5.740   4.536   7.452 -0.1094  0.2295  0.6396
   28MOL   C53715711   5.681   4.440   7.366  0.9753  0.5415  0.2395
   28MOL   C53815712   5.727   4.409   7.237 -0.3831  0.1050  0.1804
   28MOL   C53915713   5.691   4.293   7.156  0.7611  0.0539 -0.2861
   28MOL   N54015714   5.617   4.195   7.216  0.0673 -0.0163  0.5876
   28MOL   C54115715   5.588   4.067   7.163 -0.4319 -0.2062  0.0056
   28MOL   C54215716   5.542   3.975   7.257 -0.1312  0.6395 -0.8620
   28MOL   C54315717   5.503   3.846   7.222 -0.2518 -0.7535 -0.4938
   28MOL   C54415718   5.496   3.811   7.084 -0.0938  0.3640  0.0729
   28MOL   N54515719   5.456   3.685   7.043 -0.1361  0.0609  0.0028
   28MOL   C54615720   5.532   3.904   6.984 -0.0598  0.5445 -0.0052
   28MOL   C54715721   5.568   4.037   7.025 -0.0105 -0.0611 -0.9317
   28MOL   O54815722   5.739   4.285   7.040  0.3021 -0.4943 -0.3778
   28MOL   C54915723   5.829   4.498   7.193 -0.9406 -0.8001 -0.3414
   28MOL   C55015724   5.896   4.596   7.271  0.4716 -0.0882  0.2284
   28MOL   O55115725   6.055   4.704   7.475  0.0933  0.5785 -0.1394
   28MOL   H55215726   5.714   4.537   7.557 -0.6561 -1.6468  0.5362
   28MOL   H55315727   5.591   4.386   7.393  0.5627  1.6508  1.1314
   28MOL   H55415728   5.589   4.217   7.310 -0.5839  0.5463  0.2771
   28MOL   H55515729   5.565   3.991   7.361 -2.1071 -0.6856 -0.2015
   28MOL   H55615730   5.483   3.775   7.301 -4.4943  1.5833  0.7083
   28MOL   H55715731   5.452   3.673   6.943  0.5138  0.4849 -0.0781
   28MOL   H55815732   5.518   3.882   6.879 -1.6008 -0.3248  0.3634
   28MOL   H55915733   5.591   4.110   6.950 -0.3527 -0.4381 -1.4023
   28MOL   H56015734   5.874   4.496   7.094  2.2056 -2.0663  1.0481
   28MOL   H56115735   5.985   4.650   7.242  2.2092 -3.2629 -0.5795
   28MOL   H56215736   5.464   3.602   7.100  2.8950  0.2529 -0.0701
   29MOL     C115737   1.464   6.249   0.419 -0.0159 -0.4228  0.3610
   29MOL     C215738   1.540   6.238   0.542  0.0111  0.0633  0.8287
   29MOL     C315739   1.554   6.350   0.619 -0.3843  0.3221 -0.2238
   29MOL     C415740   1.625   6.345   0.741 -0.3566 -0.1453 -1.3993
   29MOL     C515741   1.677   6.220   0.785 -0.6192 -0.3693  0.0074
   29MOL     C615742   1.734   6.212   0.921  0.3477  1.4090  0.7141
   29MOL     N715743   1.746   6.091   0.982 -0.8563 -0.5683 -0.0569
   29MOL     C815744   1.775   6.057   1.113 -0.0014  0.0284  0.3255
   29MOL     C915745   1.873   5.958   1.133  0.6828 -0.6069  0.3162
   29MOL    C1015746   1.907   5.917   1.263  1.1574 -0.1456  0.6422
   29MOL    C1115747   1.855   5.994   1.367 -0.0551  0.1035 -0.0792
   29MOL    N1215748   1.910   5.965   1.490 -0.1706 -0.4624 -0.2345
   29MOL    C1315749   1.769   6.108   1.350  0.2871 -0.0879 -0.2418
   29MOL    C1415750   1.727   6.130   1.220 -0.2778  0.5775  0.3479
   29MOL    O1515751   1.776   6.315   0.978 -0.3381 -0.8414 -0.2123
   29MOL    C1615752   1.671   6.106   0.697  0.5358  0.5961 -0.0961
   29MOL    C1715753   1.594   6.115   0.575 -0.5484  0.1184 -0.4201
   29MOL    O1815754   1.439   6.159   0.346  0.1097  0.1473  0.4226
   29MOL    H1915755   1.507   6.443   0.590 -0.7814  0.1208 -0.2224
   29MOL    H2015756   1.635   6.431   0.805  1.6220 -1.4864  0.1641
   29MOL    H2115757   1.714   6.013   0.927 -1.5842 -1.6731  1.9353
   29MOL    H2215758   1.915   5.907   1.048 -4.3484 -1.7890 -1.6709
   29MOL    H2315759   1.972   5.831   1.270 -0.9972 -1.7272  2.0223
   29MOL    H2415760   2.011   5.965   1.481 -0.2155  0.4554 -0.8949
   29MOL    H2515761   1.737   6.174   1.429  2.1811 -1.1462  1.4807
   29MOL    H2615762   1.667   6.218   1.200  1.4260  1.6280 -0.2656
   29MOL    H2715763   1.712   6.014   0.736  1.5875  0.6662 -1.0209
   29MOL    H2815764   1.580   6.034   0.505  1.1997 -0.0282 -0.6173
   29MOL    H2915765   1.441   6.353   0.394  2.8316  0.0919 -0.2313
   29MOL    C3015766   1.843   5.940   1.604 -0.9751 -0.1769  0.1192
   29MOL    C3115767   1.932   5.914   1.725 -0.4656 -0.9246 -0.5454
   29MOL    C3215768   1.998   6.019   1.783  0.1109  0.3633  0.2944
   29MOL    C3315769   2.080   5.998   1.895 -0.8470 -0.1181 -0.6540
   29MOL    C3415770   2.099   5.864   1.939 -0.0111 -0.2202  0.1407
   29MOL    C3515771   2.196   5.843   2.055 -0.3004 -0.0255 -0.4051
   29MOL    N3615772   2.270   5.738   2.055  0.4448  0.8896  0.3610
   29MOL    C3715773   2.371   5.709   2.156  0.8419 -0.1854  0.1530
   29MOL    C3815774   2.458   5.807   2.220 -0.2605  0.1673  0.2056
   29MOL    C3915775   2.557   5.769   2.312 -0.5998  0.4649 -0.6207
   29MOL    C4015776   2.572   5.634   2.343  0.0428 -0.3210 -0.2503
   29MOL    N4115777   2.674   5.598   2.436 -0.5537  0.4171 -0.3294
   29MOL    C4215778   2.486   5.538   2.293 -0.3332  0.2622  0.5510
   29MOL    C4315779   2.388   5.576   2.196 -0.1833 -0.2642  0.3028
   29MOL    O4415780   2.200   5.926   2.149  0.4550 -0.2696 -0.2240
   29MOL    C4515781   2.027   5.760   1.883  0.5188  0.5935  0.2748
   29MOL    C4615782   1.945   5.782   1.771 -0.2808  0.1453 -0.6380
   29MOL    O4715783   1.722   5.940   1.610 -0.5347 -0.1534 -0.1839
   29MOL    H4815784   1.993   6.119   1.744 -1.2736  0.5520  0.9307
   29MOL    H4915785   2.130   6.084   1.937  0.2925 -1.0900  0.0273
   29MOL    H5015786   2.250   5.677   1.977 -0.0819 -2.0676  2.7166
   29MOL    H5115787   2.451   5.910   2.187  0.1853  0.7075  1.7288
   29MOL    H5215788   2.623   5.846   2.351  2.0699 -2.0878  0.1284
   29MOL    H5315789   2.679   5.498   2.452  1.9238  0.8309  1.7612
   29MOL    H5415790   2.504   5.435   2.319  0.8471  0.3670  0.1502
   29MOL    H5515791   2.316   5.504   2.161 -0.5486 -0.1220  0.7497
   29MOL    H5615792   2.035   5.658   1.920  1.7795  0.5008 -0.2414
   29MOL    H5715793   1.882   5.699   1.742 -1.3258  0.3284  1.0425
   29MOL    C5815794   2.776   5.667   2.492  0.4263  0.3615 -0.3807
   29MOL    C5915795   2.870   5.581   2.571  0.0511 -0.2268  0.1314
   29MOL    C6015796   2.824   5.471   2.647 -0.2663  0.3778  0.5820
   29MOL    C6115797   2.919   5.377   2.700  0.5601 -0.2126 -0.9731
   29MOL    C6215798   3.052   5.393   2.683 -0.4617 -0.3074 -0.0019
   29MOL    C6315799   3.143   5.286   2.735 -0.5275 -0.3832  0.0614
   29MOL    N6415800   3.273   5.308   2.748  0.3009  0.3848  0.4880
   29MOL    C6515801   3.378   5.206   2.768 -0.1659  0.4880  0.1647
   29MOL    C6615802   3.357   5.076   2.824 -0.0121 -0.1702  0.0932
   29MOL    C6715803   3.459   4.978   2.812  0.3869  0.4321  0.3087
   29MOL    C6815804   3.586   5.016   2.761 -0.5951 -0.0471  0.1968
   29MOL    N6915805   3.689   4.925   2.741  0.0535  0.0099 -0.5570
   29MOL    C7015806   3.609   5.149   2.719 -0.0062 -0.3423  0.2070
   29MOL    C7115807   3.509   5.245   2.718  0.5596  0.6241 -0.7385
   29MOL    O7215808   3.088   5.177   2.765 -0.1412 -0.4030 -0.0099
   29MOL    C7315809   3.105   5.510   2.617 -0.1695  0.2283  0.2511
   29MOL    C7415810   3.009   5.593   2.555 -0.1498 -0.0776  0.5591
   29MOL    O7515811   2.807   5.788   2.488  0.2285  0.3058 -0.5364
   29MOL    H7615812   2.718   5.451   2.650  0.0442 -1.6704 -0.8524
   29MOL    H7715813   2.872   5.288   2.740  1.7458 -0.5491 -0.3294
   29MOL    H7815814   3.303   5.403   2.733  0.1536  0.2078 -0.9254
   29MOL    H7915815   3.263   5.052   2.871  0.5594 -1.5232  0.5877
   29MOL    H8015816   3.444   4.874   2.835 -1.6175  0.8738  1.0958
   29MOL    H8115817   3.781   4.958   2.767 -1.2549  1.1279  2.9534
   29MOL    H8215818   3.705   5.174   2.676 -0.4905  2.5544  0.7494
   29MOL    H8315819   3.546   5.333   2.667  1.8400  0.3667 -0.2771
   29MOL    H8415820   3.210   5.519   2.596 -0.5024  1.5998 -0.9322
   29MOL    H8515821   3.055   5.656   2.481  1.6135 -2.8137 -0.7521
   29MOL    C8615822   3.683   4.801   2.686  0.7571 -0.4353  0.1803
   29MOL    C8715823   3.817   4.745   2.667  0.0558 -0.6726  0.3993
   29MOL    C8815824   3.928   4.828   2.660 -0.0526  0.3749  0.1231
   29MOL    C8915825   4.056   4.774   2.634 -0.0995  0.3350 -0.2876
   29MOL    C9015826   4.077   4.638   2.624  0.8011 -0.6917  0.4257
   29MOL    C9115827   4.218   4.587   2.600  0.2126 -0.6598  0.1866
   29MOL    N9215828   4.245   4.456   2.613  0.3536  0.7737  0.4252
   29MOL    C9315829   4.369   4.399   2.647 -0.3258  0.3877  0.4496
   29MOL    C9415830   4.468   4.473   2.717  0.1770  0.5564 -0.1704
   29MOL    C9515831   4.571   4.404   2.783 -0.0359  0.7327  0.2133
   29MOL    C9615832   4.590   4.265   2.764 -0.2022  0.3718  0.6263
   29MOL    N9715833   4.699   4.193   2.819 -0.0270 -0.3545  0.1720
   29MOL    C9815834   4.500   4.197   2.679 -0.5447 -0.3216 -0.0158
   29MOL    C9915835   4.386   4.264   2.623  0.2359  0.4017  0.3162
   29MOL   O10015836   4.301   4.670   2.567 -0.3239 -0.4739 -0.0191
   29MOL   C10115837   3.966   4.550   2.630 -0.7617 -0.1558  0.4367
   29MOL   C10215838   3.837   4.602   2.655  0.1476 -0.3731  0.3203
   29MOL   O10315839   3.588   4.734   2.643  0.2623 -0.1372  0.6799
   29MOL   H10415840   3.926   4.935   2.674  0.7157  0.3967  0.0724
   29MOL   H10515841   4.143   4.835   2.623  0.6684 -0.2996  2.0032
   29MOL   H10615842   4.164   4.395   2.613  1.2658 -0.4565  1.2924
   29MOL   H10715843   4.456   4.577   2.745 -1.3562  0.7009 -1.2623
   29MOL   H10815844   4.641   4.457   2.845  0.4889 -0.5767  0.7668
   29MOL   H10915845   4.720   4.103   2.777 -1.0613 -1.3909  1.8239
   29MOL   H11015846   4.517   4.093   2.656 -0.9078 -0.4932  0.4854
   29MOL   H11115847   4.309   4.208   2.573  0.2246  0.1868  0.5758
   29MOL   H11215848   3.982   4.445   2.615 -1.2261 -0.2937  0.9142
   29MOL   H11315849   3.756   4.531   2.654  0.4733 -0.7657  2.0729
   29MOL   C11415850   4.789   4.231   2.912 -0.0726  0.4440 -0.7824
   29MOL   C11515851   4.874   4.118   2.952 -0.6079  0.1784 -0.2087
   29MOL   C11615852   4.844   4.044   3.066 -0.4270 -0.0552 -0.5107
   29MOL   C11715853   4.936   3.952   3.110 -0.2384 -0.1234  0.3499
   29MOL   C11815854   5.056   3.921   3.038  0.1408  0.5613 -0.2165
   29MOL   C11915855   5.151   3.817   3.093  0.2939  0.8283  0.8031
   29MOL   N12015856   5.279   3.845   3.072 -0.3563 -0.3162  0.4478
   29MOL   C12115857   5.391   3.769   3.122  0.4091  0.3883 -0.6826
   29MOL   C12215858   5.388   3.626   3.144  0.7281 -0.2856 -0.3523
   29MOL   C12315859   5.505   3.553   3.165 -0.1121 -0.6388  0.2590
   29MOL   C12415860   5.627   3.622   3.169  0.3960 -0.0300  0.6227
   29MOL   N12515861   5.750   3.546   3.188 -0.3844  0.1463  0.6756
   29MOL   C12615862   5.635   3.760   3.157  0.0521 -0.7898  0.1239
   29MOL   C12715863   5.514   3.837   3.134 -1.0700  0.2791  0.0346
   29MOL   O12815864   5.107   3.721   3.156  0.1834  0.0287  0.0959
   29MOL   C12915865   5.073   3.987   2.910  0.1299 -0.9049 -0.2702
   29MOL   C13015866   4.985   4.089   2.873  0.7868  0.1984  0.0191
   29MOL   O13115867   4.783   4.330   2.987  0.1759 -0.2459  0.2216
   29MOL   H13215868   4.762   4.070   3.131  1.7350 -1.1682  2.7347
   29MOL   H13315869   4.912   3.896   3.200 -2.0636  0.1884  0.0812
   29MOL   H13415870   5.307   3.937   3.038  0.7334 -0.2664  1.4397
   29MOL   H13515871   5.304   3.564   3.118  0.5852  0.1371 -0.9423
   29MOL   H13615872   5.505   3.445   3.171  0.3163 -0.7567 -1.4233
   29MOL   H13715873   5.764   3.472   3.120 -0.1413  0.3892  0.4585
   29MOL   H13815874   5.734   3.802   3.151 -0.1608 -0.3482 -0.3139
   29MOL   H13915875   5.531   3.944   3.136  2.4973 -0.1740 -1.4974
   29MOL   H14015876   5.158   3.960   2.849  0.5399 -0.5681  0.1528
   29MOL   H14115877   5.007   4.139   2.780  0.4683 -0.2843 -0.3164
   29MOL   C14215878   5.866   3.581   3.246 -0.2127 -0.1353 -0.8158
   29MOL   C14315879   5.860   3.679   3.359  0.7180 -0.1044  0.0066
   29MOL   C14415880   5.781   3.661   3.472 -0.0561 -0.1062  0.0865
   29MOL   C14515881   5.777   3.746   3.583 -0.3749  0.0091  0.0769
   29MOL   C14615882   5.869   3.854   3.578 -0.1650  0.1574 -0.3897
   29MOL   C14715883   5.892   3.937   3.705 -0.9086 -0.0157  0.0277
   29MOL   N14815884   5.922   4.066   3.687  0.3144 -0.4334 -0.6704
   29MOL   C14915885   5.929   4.164   3.788  0.0830  0.5620 -0.7144
   29MOL   C15015886   5.994   4.279   3.753 -0.6187 -0.4897 -0.3180
   29MOL   C15115887   5.989   4.391   3.837 -0.0640  0.3926 -0.5089
   29MOL   C15215888   5.916   4.385   3.956 -0.0534 -0.0584  0.1605
   29MOL   N15315889   5.914   4.496   4.035 -0.1697 -1.0676 -0.1304
   29MOL   C15415890   5.846   4.266   3.989  0.1457  0.4843 -0.4503
   29MOL   C15515891   5.856   4.152   3.910  0.4585 -0.3057  0.8803
   29MOL   O15615892   5.884   3.880   3.816 -0.5893  0.0056 -0.3546
   29MOL   C15715893   5.950   3.874   3.462 -0.3993 -0.5007  0.1799
   29MOL   C15815894   5.949   3.786   3.357 -0.2244  0.4165  0.2371
   29MOL   O15915895   5.970   3.521   3.216 -0.3601  0.0036  0.3277
   29MOL   H16015896   5.706   3.583   3.468  0.3737 -0.5655  0.7291
   29MOL   H16115897   5.734   3.719   3.678 -0.3557  1.3003  0.4674
   29MOL   H16215898   5.929   4.086   3.588  2.3002  0.7512 -0.3229
   29MOL   H16315899   6.057   4.281   3.665 -1.1711  0.0423 -0.7058
   29MOL   H16415900   6.051   4.479   3.823  1.7121 -0.4474  1.8184
   29MOL   H16515901   5.934   4.585   3.991 -0.3179  1.0359  3.8115
   29MOL   H16615902   5.791   4.258   4.082  1.1715 -0.0854  0.1178
   29MOL   H16715903   5.793   4.067   3.931  2.4032 -1.6340  1.4414
   29MOL   H16815904   6.011   3.963   3.465  0.3236 -0.9512 -0.7763
   29MOL   H16915905   6.016   3.810   3.275 -1.0398 -1.4292 -1.0128
   29MOL   C17015906   5.875   4.515   4.165  0.7578  0.3275  0.2760
   29MOL   C17115907   5.850   4.660   4.208 -0.6224 -0.6521  0.2445
   29MOL   C17215908   5.941   4.761   4.189  0.3049  0.0847 -0.1674
   29MOL   C17315909   5.914   4.899   4.218 -0.0119 -0.2997  0.4099
   29MOL   C17415910   5.783   4.931   4.260 -0.0705  0.5925  0.2156
   29MOL   C17515911   5.736   5.072   4.282  0.5144  0.6322  0.8018
   29MOL   N17615912   5.646   5.094   4.380 -0.0169 -0.6187  0.2229
   29MOL   C17715913   5.566   5.202   4.395  0.7766  0.1276 -0.4026
   29MOL   C17815914   5.605   5.333   4.403  0.4505  0.6436 -1.0074
   29MOL   C17915915   5.509   5.434   4.430  0.1487 -0.1644  0.6043
   29MOL   C18015916   5.376   5.397   4.434  0.4542 -0.5504 -0.4643
   29MOL   N18115917   5.280   5.492   4.477  0.1204 -0.6387  0.2898
   29MOL   C18215918   5.334   5.265   4.407 -0.3830  0.0197  0.8418
   29MOL   C18315919   5.431   5.166   4.397  0.3719 -0.4047  0.1583
   29MOL   O18415920   5.769   5.157   4.195 -0.2096 -0.2402 -0.6712
   29MOL   C18515921   5.683   4.824   4.274  0.5915 -0.3318  0.5702
   29MOL   C18615922   5.724   4.689   4.261  0.9614 -0.2574 -0.1723
   29MOL   O18715923   5.859   4.426   4.248 -0.5208 -0.1284 -0.3882
   29MOL   H18815924   6.037   4.737   4.145  1.7323 -0.0981  2.9225
   29MOL   H18915925   5.988   4.977   4.210 -0.7739  0.6521  2.4225
   29MOL   H19015926   5.622   5.008   4.429  0.6597 -0.9966 -0.0961
   29MOL   H19115927   5.708   5.363   4.391  0.7392  0.2084  0.2797
   29MOL   H19215928   5.538   5.538   4.431 -1.4841  0.4110 -3.3328
   29MOL   H19315929   5.217   5.527   4.406  0.3522 -0.2020  0.2986
   29MOL   H19415930   5.231   5.236   4.420 -0.4416  0.1149  0.5907
   29MOL   H19515931   5.408   5.061   4.384  0.4690 -0.1388 -2.5004
   29MOL   H19615932   5.580   4.847   4.297 -0.5243 -2.6218 -1.9051
   29MOL   H19715933   5.648   4.613   4.257  0.5703  0.0646  0.9453
   29MOL   C19815934   5.263   5.537   4.601 -0.4903  0.3728  0.9019
   29MOL   C19915935   5.348   5.468   4.700 -0.5143 -0.2091 -0.5882
   29MOL   C20015936   5.325   5.333   4.728  0.7816  0.8703 -0.6589
   29MOL   C20115937   5.400   5.269   4.827  0.0440 -0.2711  0.4747
   29MOL   C20215938   5.497   5.343   4.900  0.8253  0.6224 -0.4980
   29MOL   C20315939   5.568   5.276   5.018  0.4756 -0.3595 -0.2356
   29MOL   N20415940   5.695   5.311   5.029 -0.0122 -0.3726  0.5292
   29MOL   C20515941   5.779   5.260   5.130 -0.4365 -0.0189 -0.2413
   29MOL   C20615942   5.741   5.241   5.263 -0.1540  0.7716  0.0403
   29MOL   C20715943   5.838   5.199   5.355 -0.0516  0.1229  0.2428
   29MOL   C20815944   5.960   5.156   5.317  0.4196 -0.5841 -0.4579
   29MOL   N20915945   6.043   5.094   5.410  0.4409 -0.7093  0.3318
   29MOL   C21015946   6.004   5.176   5.182 -0.0641  0.1831  0.6835
   29MOL   C21115947   5.914   5.237   5.093 -0.9488 -0.3068  0.5256
   29MOL   O21215948   5.515   5.186   5.083  0.1288  0.3319 -0.4261
   29MOL   C21315949   5.526   5.475   4.868  0.4023  0.1103  1.0167
   29MOL   C21415950   5.447   5.538   4.776 -0.3584 -0.4763 -0.0175
   29MOL   O21515951   5.183   5.625   4.630 -0.5506  0.0386  0.1758
   29MOL   H21615952   5.247   5.285   4.670  1.0342 -1.3158  0.7556
   29MOL   H21715953   5.376   5.166   4.847  0.7290 -0.6449 -0.6301
   29MOL   H21815954   5.734   5.375   4.961 -0.0056 -0.9384  0.0040
   29MOL   H21915955   5.638   5.267   5.282 -0.7089  0.0057 -1.8732
   29MOL   H22015956   5.798   5.186   5.455 -1.5652  1.5153 -0.1647
   29MOL   H22115957   6.004   5.102   5.503 -1.1538 -2.0398 -0.1955
   29MOL   H22215958   6.102   5.147   5.146  0.9963  0.5832  3.1387
   29MOL   H22315959   5.961   5.283   5.008  0.6985 -0.4805  1.3214
   29MOL   H22415960   5.593   5.529   4.934  1.0564  0.9799 -0.3508
   29MOL   H22515961   5.456   5.644   4.756  0.9783 -0.9017 -1.6894
   29MOL   C22615962   6.165   5.041   5.398 -0.4663  0.1370 -1.1033
   29MOL   C22715963   6.243   5.034   5.524  0.6130 -0.4548 -0.0858
   29MOL   C22815964   6.186   4.971   5.645  0.1462 -0.7670  0.2900
   29MOL   C22915965   6.268   4.952   5.757 -0.1928 -0.1534 -0.0100
   29MOL   C23015966   6.401   4.995   5.753 -0.9682 -0.2972 -0.1228
   29MOL   C23115967   6.486   4.961   5.870 -0.4106 -0.2346  0.7244
   29MOL   N23215968   6.434   4.965   5.993  0.9705 -0.0715 -0.0225
   29MOL   C23315969   6.503   4.930   6.111 -0.0308 -0.4272  0.2485
   29MOL   C23415970   6.439   4.841   6.197 -0.1622 -0.8797 -0.6135
   29MOL   C23515971   6.515   4.785   6.300  0.7650 -0.4893  0.0084
   29MOL   C23615972   6.653   4.813   6.313  0.8585 -0.4595  0.4550
   29MOL   N23715973   6.730   4.730   6.397  0.6402 -0.4546  0.3631
   29MOL   C23815974   6.713   4.917   6.232  0.3193 -0.1503 -0.2032
   29MOL   C23915975   6.635   4.974   6.131 -0.6722  0.6442 -0.0017
   29MOL   O24015976   6.600   4.920   5.845 -0.7059 -0.2988  0.3662
   29MOL   C24115977   6.455   5.059   5.642 -0.0486 -0.0603  0.3178
   29MOL   C24215978   6.372   5.086   5.532 -0.5993  0.1614  0.3237
   29MOL   O24315979   6.218   5.008   5.292  0.4258 -0.0627 -0.0750
   29MOL   H24415980   6.090   4.924   5.629 -0.7892  0.6151  1.6990
   29MOL   H24515981   6.221   4.892   5.834  0.1410 -0.5206 -0.0934
   29MOL   H24615982   6.335   4.975   6.007  1.1456  0.7437  0.6541
   29MOL   H24715983   6.338   4.813   6.175 -0.8215  2.8276 -2.6143
   29MOL   H24815984   6.484   4.699   6.357 -2.2978 -0.0759 -0.9749
   29MOL   H24915985   6.702   4.722   6.493 -1.4134  0.7665 -0.1043
   29MOL   H25015986   6.816   4.942   6.251 -0.4173  1.0003  2.6490
   29MOL   H25115987   6.668   5.051   6.063  0.8163 -0.3288 -0.3773
   29MOL   H25215988   6.556   5.093   5.655 -0.4103  0.6399  1.3572
   29MOL   H25315989   6.417   5.128   5.443 -0.4797 -0.2223  0.2039
   29MOL   C25415990   6.830   4.650   6.357 -0.1421 -0.7667  0.1890
   29MOL   C25515991   6.844   4.628   6.206 -0.1814  0.5959 -0.1348
   29MOL   C25615992   6.967   4.658   6.140 -0.6231  0.5717 -0.8237
   29MOL   C25715993   6.971   4.667   6.002 -0.1215 -0.7001  0.1062
   29MOL   C25815994   6.861   4.633   5.927 -0.7692 -0.6505  1.1337
   29MOL   C25915995   6.871   4.655   5.783  0.0523 -0.1924 -0.2733
   29MOL   N26015996   6.826   4.775   5.744 -0.4792  0.9536  0.3445
   29MOL   C26115997   6.813   4.829   5.606 -0.1496 -0.0288 -0.3083
   29MOL   C26215998   6.789   4.972   5.596 -0.4823  0.2815  0.1319
   29MOL   C26315999   6.765   5.031   5.469  0.3626 -0.3130  0.7972
   29MOL   C26416000   6.789   4.956   5.349 -0.1474 -0.3002 -0.5088
   29MOL   N26516001   6.799   5.021   5.230 -0.3697 -0.3301 -0.0495
   29MOL   C26616002   6.806   4.813   5.362  0.4602 -0.4170  0.0118
   29MOL   C26716003   6.824   4.754   5.487 -0.2545  0.5832 -0.9147
   29MOL   O26816004   6.927   4.570   5.711 -0.0115  0.1354  0.0702
   29MOL   C26916005   6.743   4.577   5.986  0.2072  0.1769 -0.0752
   29MOL   C27016006   6.736   4.577   6.127  0.3255  0.2502 -0.6421
   29MOL   O27116007   6.900   4.588   6.431 -0.3931 -0.3200 -0.2712
   29MOL   H27216008   7.054   4.687   6.197 -0.2260 -2.0073 -0.0841
   29MOL   H27316009   7.064   4.700   5.957  1.6111 -1.3315  3.1083
   29MOL   H27416010   6.776   4.819   5.820 -0.9928 -0.4727  0.8325
   29MOL   H27516011   6.775   5.030   5.686 -1.3356  0.1850  0.0578
   29MOL   H27616012   6.726   5.131   5.470  1.3981  0.1024  0.6166
   29MOL   H27716013   6.747   5.106   5.214 -0.0054 -0.1762 -0.4314
   29MOL   H27816014   6.805   4.749   5.274 -0.1342  0.9811 -1.0178
   29MOL   H27916015   6.837   4.647   5.494 -0.4184  0.5671 -0.8570
   29MOL   H28016016   6.672   4.527   5.922  0.2989 -0.2303  0.1387
   29MOL   H28116017   6.652   4.542   6.186 -0.1598  0.5945 -1.1153
   29MOL   C28216018   6.894   5.001   5.136 -0.5837  0.5851  0.5862
   29MOL   C28316019   6.912   5.118   5.054 -0.4319  0.1234 -0.2732
   29MOL   C28416020   6.808   5.191   5.000 -0.7057 -0.3004 -0.3209
   29MOL   C28516021   6.833   5.295   4.904  0.1075  0.5652 -0.2482
   29MOL   C28616022   6.963   5.332   4.862  0.1237 -0.1628  0.4961
   29MOL   C28716023   6.988   5.430   4.754  1.1034 -0.2123 -0.3925
   29MOL   N28816024   6.882   5.501   4.712 -0.4440 -0.4517  0.0942
   29MOL   C28916025   6.870   5.595   4.604  0.4488  0.1812  0.0412
   29MOL   C29016026   6.739   5.646   4.592 -0.7158 -0.3284  0.3497
   29MOL   C29116027   6.711   5.746   4.502 -0.9045  0.5800  0.2213
   29MOL   C29216028   6.813   5.794   4.418 -0.2398 -0.2835  0.0587
   29MOL   N29316029   6.776   5.889   4.327  0.1040 -0.3436  0.2359
   29MOL   C29416030   6.940   5.737   4.422 -0.1289 -0.3133 -0.1883
   29MOL   C29516031   6.977   5.644   4.521 -0.1944 -0.3010 -0.6918
   29MOL   O29616032   7.096   5.424   4.701  0.1489  0.3071  0.2003
   29MOL   C29716033   7.070   5.261   4.926 -0.1041 -0.6497  0.0832
   29MOL   C29816034   7.044   5.155   5.019 -0.2699  0.3431 -0.0061
   29MOL   O29916035   6.978   4.911   5.139  0.3814  0.0420 -0.2874
   29MOL   H30016036   6.708   5.162   5.028 -0.7706  0.5736  0.3846
   29MOL   H30116037   6.745   5.343   4.862  0.3253  0.9036 -0.3187
   29MOL   H30216038   6.797   5.490   4.766 -0.0801 -0.9549  0.5763
   29MOL   H30316039   6.667   5.615   4.666 -0.2743 -2.7353 -0.1847
   29MOL   H30416040   6.610   5.785   4.498 -0.0585  2.9921  1.4205
   29MOL   H30516041   6.678   5.912   4.320  0.0848 -0.9726 -1.8472
   29MOL   H30616042   7.019   5.763   4.354  0.5383  3.4408  1.8955
   29MOL   H30716043   7.071   5.591   4.528 -1.9131 -3.5893 -1.1747
   29MOL   H30816044   7.169   5.282   4.887  0.3274  1.3397  2.1876
   29MOL   H30916045   7.130   5.098   5.051 -0.1060  1.2519  1.2360
   29MOL   C31016046   6.869   5.975   4.270  0.2527  0.0443 -0.3896
   29MOL   C31116047   6.809   6.061   4.164 -0.5447 -0.0304  0.3096
   29MOL   C31216048   6.829   6.022   4.027 -0.4057 -0.8673 -0.1732
   29MOL   C31316049   6.800   6.119   3.924  0.1292 -0.0635  0.1889
   29MOL   C31416050   6.724   6.237   3.961  0.4183 -0.0069 -0.6196
   29MOL   C31516051   6.664   6.325   3.855  0.4672 -0.6418 -0.1511
   29MOL   N31616052   6.693   6.458   3.858  0.8632  0.4900  0.5250
   29MOL   C31716053   6.674   6.555   3.753 -0.5662  0.2737 -0.2349
   29MOL   C31816054   6.567   6.554   3.659 -0.2456  0.0092 -0.1442
   29MOL   C31916055   6.553   6.646   3.553 -0.4083  0.6558 -0.1731
   29MOL   C32016056   6.642   6.758   3.551 -0.1281 -0.1129 -0.1082
   29MOL   N32116057   6.631   6.867   3.459 -0.4197 -0.3707  0.5055
   29MOL   C32216058   6.748   6.762   3.651  0.2983 -0.0390  1.0333
   29MOL   C32316059   6.765   6.664   3.750  1.2627  0.1084 -0.7761
   29MOL   O32416060   6.594   6.277   3.769 -0.1654  0.9598  0.3524
   29MOL   C32516061   6.693   6.261   4.099 -0.1093 -0.0411  0.6053
   29MOL   C32616062   6.734   6.172   4.200  0.3248 -0.8373 -0.4256
   29MOL   O32716063   6.992   5.982   4.286 -0.2444 -0.6177 -0.4089
   29MOL   H32816064   6.861   5.922   4.001 -1.7917 -1.7071  1.2498
   29MOL   H32916065   6.814   6.094   3.820 -0.9206  2.0689 -0.4894
   29MOL   H33016066   6.758   6.482   3.932 -1.4898  1.0790  2.4692
   29MOL   H33116067   6.504   6.467   3.651  0.1667 -0.2525 -0.6291
   29MOL   H33216068   6.487   6.615   3.473  1.5255  0.4165 -1.7334
   29MOL   H33316069   6.624   6.961   3.496 -1.1953 -0.2858  0.1580
   29MOL   H33416070   6.809   6.849   3.661  0.4467 -0.3066  2.4842
   29MOL   H33516071   6.833   6.689   3.830 -0.1538  2.1851 -0.1909
   29MOL   H33616072   6.634   6.350   4.118  1.7193  1.3523 -0.0487
   29MOL   H33716073   6.707   6.199   4.301  1.3420  0.4553 -0.4828
   29MOL   C33816074   6.670   6.862   3.329  0.6380 -0.5095  0.2303
   29MOL   C33916075   6.683   6.728   3.268  0.5851 -0.1457 -0.1333
   29MOL   C34016076   6.583   6.676   3.183 -0.5007 -0.6075  0.2789
   29MOL   C34116077   6.593   6.543   3.136 -0.2261 -0.2119  0.2597
   29MOL   C34216078   6.703   6.462   3.169 -0.4249  0.8473 -0.4849
   29MOL   C34316079   6.714   6.320   3.131  0.4658 -0.0145 -0.5056
   29MOL   N34416080   6.837   6.266   3.117  0.1180 -0.1753  0.8602
   29MOL   C34516081   6.871   6.133   3.128  0.2139 -0.9743  0.0771
   29MOL   C34616082   7.003   6.107   3.170 -0.5986 -0.1092 -0.2379
   29MOL   C34716083   7.050   5.976   3.184 -0.8582  0.7043  0.3237
   29MOL   C34816084   6.960   5.872   3.170  0.6269  0.3553  0.3358
   29MOL   N34916085   7.006   5.753   3.217  0.0189  0.1151  0.2028
   29MOL   C35016086   6.826   5.887   3.135 -0.8404 -0.0641  0.9763
   29MOL   C35116087   6.789   6.024   3.102  0.6063 -0.3266  0.7659
   29MOL   O35216088   6.609   6.259   3.107  0.1864  0.0141  0.1536
   29MOL   C35316089   6.805   6.515   3.246 -0.5471 -0.5812 -0.5146
   29MOL   C35416090   6.797   6.647   3.298  0.1333 -0.4611 -0.4213
   29MOL   O35516091   6.697   6.957   3.260 -0.5740 -0.0638  0.4103
   29MOL   H35616092   6.495   6.732   3.158 -0.5687  0.0184  1.8288
   29MOL   H35716093   6.523   6.498   3.067  1.1802 -1.2042 -0.5529
   29MOL   H35816094   6.917   6.327   3.123 -1.2405  1.6029  1.8496
   29MOL   H35916095   7.071   6.183   3.204  0.3983 -2.1587  2.4636
   29MOL   H36016096   7.150   5.953   3.215 -0.5164 -1.8855 -2.5030
   29MOL   H36116097   7.071   5.759   3.294 -1.4829  1.7973  1.3723
   29MOL   H36216098   6.753   5.808   3.135 -1.9061  0.9110  1.7496
   29MOL   H36316099   6.687   6.042   3.071  0.6448 -1.7847 -0.2369
   29MOL   H36416100   6.888   6.459   3.287  0.4900  1.3114  0.0107
   29MOL   H36516101   6.867   6.682   3.372  0.2701 -3.1677  0.7927
   29MOL   C36616102   6.964   5.626   3.193  0.0185  0.3092  0.1550
   29MOL   C36716103   7.020   5.515   3.273 -0.6786  0.4968  0.0444
   29MOL   C36816104   7.154   5.470   3.252 -0.5250 -0.8074 -0.3885
   29MOL   C36916105   7.195   5.350   3.308  0.1228 -0.5352  0.5132
   29MOL   C37016106   7.109   5.272   3.387 -0.6300 -0.9260 -0.5363
   29MOL   C37116107   7.154   5.138   3.432 -0.2614  0.1805  0.0392
   29MOL   N37216108   7.241   5.070   3.356  0.0055  0.3040  0.1898
   29MOL   C37316109   7.276   4.935   3.361  0.0453  0.2931 -0.4086
   29MOL   C37416110   7.405   4.898   3.322 -0.0726 -0.2113  0.8624
   29MOL   C37516111   7.454   4.761   3.320  0.0295  0.1565  0.2612
   29MOL   C37616112   7.367   4.662   3.365 -0.1954  0.5823  0.7512
   29MOL   N37716113   7.405   4.524   3.357 -0.4552  0.0111 -0.1688
   29MOL   C37816114   7.240   4.697   3.411  0.5359  0.1676  0.9521
   29MOL   C37916115   7.192   4.831   3.415  0.1044 -0.1729 -0.2339
   29MOL   O38016116   7.096   5.080   3.522  0.1492  0.0475  0.5775
   29MOL   C38116117   6.981   5.320   3.421 -0.1645 -0.1201  0.3101
   29MOL   C38216118   6.938   5.440   3.362 -1.0307  0.0584  0.3667
   29MOL   O38316119   6.885   5.594   3.105  0.2945 -0.1521  0.0279
   29MOL   H38416120   7.227   5.521   3.191 -0.8954  1.4047  0.9345
   29MOL   H38516121   7.299   5.321   3.297  0.2608 -0.4596  1.6150
   29MOL   H38616122   7.277   5.115   3.273 -1.6747  2.1295  0.4245
   29MOL   H38716123   7.475   4.977   3.297  1.2831 -1.7990 -0.4802
   29MOL   H38816124   7.554   4.736   3.285  0.2565 -0.0103  1.0242
   29MOL   H38916125   7.423   4.480   3.268 -2.3195  0.2136 -0.6805
   29MOL   H39016126   7.175   4.614   3.436  0.9689  0.0187  1.5801
   29MOL   H39116127   7.087   4.842   3.435 -0.2310 -2.5802 -0.6015
   29MOL   H39216128   6.911   5.264   3.482  0.3839  0.1226  1.1693
   29MOL   H39316129   6.840   5.476   3.391 -0.3926  2.6080 -0.4841
   29MOL   C39416130   7.416   4.458   3.472  0.3205  0.7409  0.4923
   29MOL   C39516131   7.429   4.308   3.467  0.1075  0.0776 -0.3264
   29MOL   C39616132   7.358   4.232   3.565  0.1814  0.2803  0.5305
   29MOL   C39716133   7.373   4.094   3.577  0.3566 -0.1710 -0.4172
   29MOL   C39816134   7.472   4.034   3.501 -0.5696  0.2581 -0.7769
   29MOL   C39916135   7.508   3.882   3.518  0.7315 -0.0442  0.9585
   29MOL   N40016136   7.501   3.840   3.648  0.1471 -0.7463  0.2046
   29MOL   C40116137   7.485   3.706   3.697 -0.2318 -0.3614 -0.2445
   29MOL   C40216138   7.549   3.594   3.643  0.2237  0.1216  0.0833
   29MOL   C40316139   7.543   3.470   3.709 -0.4776 -0.4009  0.0535
   29MOL   C40416140   7.481   3.453   3.836  0.2159 -0.6524 -0.0138
   29MOL   N40516141   7.492   3.337   3.916  0.3788  0.2493 -0.2782
   29MOL   C40616142   7.412   3.564   3.890 -0.1873  0.4478 -0.1814
   29MOL   C40716143   7.419   3.687   3.822  0.2401  0.6065 -0.1511
   29MOL   O40816144   7.543   3.811   3.423  0.0762  0.1177  1.0510
   29MOL   C40916145   7.535   4.106   3.401  0.4058  0.0410 -0.5123
   29MOL   C41016146   7.507   4.240   3.378 -0.0631  0.0647 -0.2685
   29MOL   O41116147   7.411   4.509   3.584 -0.5735 -0.6738  0.0153
   29MOL   H41216148   7.283   4.289   3.618 -0.8204 -0.5816  0.0758
   29MOL   H41316149   7.319   4.029   3.644 -2.4278 -0.9291 -3.2631
   29MOL   H41416150   7.476   3.918   3.707 -1.8705 -0.6796 -0.6731
   29MOL   H41516151   7.599   3.602   3.548 -0.4628 -1.6024 -0.4478
   29MOL   H41616152   7.594   3.388   3.659  0.1756  0.2978 -0.4405
   29MOL   H41716153   7.480   3.347   4.016 -1.6555 -1.6664 -0.2879
   29MOL   H41816154   7.364   3.561   3.986  0.8874 -1.7817  0.3099
   29MOL   H41916155   7.368   3.771   3.866 -1.7066 -0.2096 -0.8151
   29MOL   H42016156   7.608   4.057   3.338  3.2648  2.7900  0.5374
   29MOL   H42116157   7.557   4.291   3.297 -1.8227  0.4084 -1.1583
   29MOL   C42216158   7.490   3.213   3.872 -0.5349 -0.1618 -0.5471
   29MOL   C42316159   7.518   3.105   3.972  0.3892  0.4562 -0.2663
   29MOL   C42416160   7.476   3.121   4.104  0.5734  0.1238  0.6630
   29MOL   C42516161   7.490   3.018   4.201  0.3543 -0.3873  0.8212
   29MOL   C42616162   7.545   2.893   4.164 -0.1107 -0.6497  0.0481
   29MOL   C42716163   7.557   2.785   4.268 -0.2495 -0.5662  0.2446
   29MOL   N42816164   7.620   2.818   4.385  0.5302 -0.6385  0.3683
   29MOL   C42916165   7.628   2.739   4.510 -0.4351  0.0665 -0.2777
   29MOL   C43016166   7.718   2.787   4.610  0.3233 -0.0876  0.1528
   29MOL   C43116167   7.725   2.730   4.738  0.1377  0.0810 -0.0448
   29MOL   C43216168   7.631   2.637   4.782  0.3517  0.7394  0.2784
   29MOL   N43316169   7.629   2.602   4.922 -0.3723  0.4164  0.4810
   29MOL   C43416170   7.540   2.590   4.691 -0.3898  0.5675  0.2531
   29MOL   C43516171   7.547   2.634   4.554  0.3138  0.0357  0.1475
   29MOL   O43616172   7.503   2.679   4.254  0.2674 -0.0606  0.3050
   29MOL   C43716173   7.591   2.872   4.033 -0.7348  0.4549 -0.4903
   29MOL   C43816174   7.572   2.977   3.934 -0.1127  0.6098  0.1413
   29MOL   O43916175   7.476   3.191   3.754  0.5095 -0.0384  0.1456
   29MOL   H44016176   7.431   3.215   4.134 -0.9022 -0.8234  1.4386
   29MOL   H44116177   7.464   3.031   4.305 -0.5804 -1.7220  0.7671
   29MOL   H44216178   7.669   2.906   4.378  0.0307 -0.3763  0.1566
   29MOL   H44316179   7.786   2.868   4.590  0.2015 -0.0326 -0.0489
   29MOL   H44416180   7.798   2.764   4.810 -1.8495 -0.2569  2.2112
   29MOL   H44516181   7.654   2.677   4.985  1.4691  0.4130 -0.2116
   29MOL   H44616182   7.471   2.509   4.709 -0.9322  1.1955  1.0400
   29MOL   H44716183   7.477   2.589   4.485 -0.1977  0.1612  0.5903
   29MOL   H44816184   7.644   2.786   3.995  0.6839  1.5171 -0.9336
   29MOL   H44916185   7.598   2.948   3.834  0.6203  0.6716  0.3091
   29MOL   C45016186   7.577   2.490   4.977  0.3802 -0.7291 -0.3622
   29MOL   C45116187   7.549   2.501   5.124  0.5435 -0.1058  0.3576
   29MOL   C45216188   7.483   2.610   5.175  0.4179 -0.3611 -0.2513
   29MOL   C45316189   7.473   2.635   5.311 -0.0264  0.0019  0.2808
   29MOL   C45416190   7.523   2.538   5.401  0.0550 -0.3935  0.3658
   29MOL   C45516191   7.514   2.553   5.545 -0.2991  0.7548  0.2032
   29MOL   N45616192   7.404   2.516   5.601 -0.5185 -0.5731  0.1059
   29MOL   C45716193   7.373   2.512   5.740  0.2424 -0.1587 -0.6173
   29MOL   C45816194   7.234   2.485   5.769  0.1406 -0.0567  0.5663
   29MOL   C45916195   7.189   2.488   5.898  0.5720 -0.1908 -0.2358
   29MOL   C46016196   7.270   2.528   6.004  0.0698  0.4260  0.2631
   29MOL   N46116197   7.216   2.565   6.132  0.2584 -0.4810  0.1905
   29MOL   C46216198   7.405   2.548   5.981  0.2900 -0.1036  0.0317
   29MOL   C46316199   7.457   2.550   5.854  0.1555  0.0561 -0.2347
   29MOL   O46416200   7.619   2.587   5.597 -0.4533  0.3558  0.0576
   29MOL   C46516201   7.577   2.420   5.353 -0.2093  0.1459 -0.1853
   29MOL   C46616202   7.593   2.405   5.215 -0.3559  0.3632 -0.5877
   29MOL   O46716203   7.557   2.383   4.922  0.0962  0.0404 -0.0984
   29MOL   H46816204   7.445   2.682   5.104  0.0734 -0.9719 -0.6854
   29MOL   H46916205   7.436   2.729   5.351 -1.0338 -0.1661 -0.2543
   29MOL   H47016206   7.334   2.506   5.530 -0.4181  0.0633 -0.0859
   29MOL   H47116207   7.159   2.468   5.693  0.4785 -1.9078  0.6403
   29MOL   H47216208   7.083   2.472   5.907  0.8695 -1.4468  1.3047
   29MOL   H47316209   7.136   2.626   6.134  0.5484 -0.0680 -0.4593
   29MOL   H47416210   7.481   2.580   6.052  1.4057  0.5026 -1.4064
   29MOL   H47516211   7.562   2.574   5.848  0.0699  0.4361 -0.2377
   29MOL   H47616212   7.600   2.340   5.422  0.0987 -1.6305 -2.2666
   29MOL   H47716213   7.633   2.310   5.183 -1.4571 -0.3210  0.0653
   29MOL   C47816214   7.243   2.519   6.249  0.4874  0.7678 -0.9115
   29MOL   C47916215   7.178   2.602   6.358  0.4778 -0.2270  0.6715
   29MOL   C48016216   7.153   2.547   6.483  0.0940  0.2999 -0.4988
   29MOL   C48116217   7.094   2.624   6.583  0.0783 -0.7484 -0.4449
   29MOL   C48216218   7.046   2.756   6.557 -0.5216 -0.0767 -1.0147
   29MOL   C48316219   6.987   2.841   6.664  0.4129  0.8302 -0.3770
   29MOL   N48416220   6.885   2.806   6.742  0.8571  0.2223  0.4397
   29MOL   C48516221   6.788   2.707   6.716  0.0968 -0.0498  0.1397
   29MOL   C48616222   6.735   2.678   6.585  0.4132  0.1258  0.6331
   29MOL   C48716223   6.637   2.573   6.572  0.1855  0.0869 -0.1463
   29MOL   C48816224   6.604   2.495   6.687  0.6649  0.4850 -0.6062
   29MOL   N48916225   6.511   2.384   6.679 -0.2086 -0.3860 -0.0929
   29MOL   C49016226   6.657   2.527   6.813 -0.2077  0.5718 -0.0115
   29MOL   C49116227   6.755   2.632   6.829 -0.1797 -0.2814  0.2092
   29MOL   O49216228   7.046   2.941   6.695  0.3457  0.2162  0.0501
   29MOL   C49316229   7.071   2.814   6.431 -0.9241 -0.5156  0.0282
   29MOL   C49416230   7.139   2.740   6.338  0.7053 -0.6095 -0.7524
   29MOL   O49516231   7.325   2.434   6.281 -0.3417 -0.2023 -0.0152
   29MOL   H49616232   7.185   2.445   6.500  0.1510  0.5521  1.0162
   29MOL   H49716233   7.074   2.584   6.681  0.3216  0.5501  0.1499
   29MOL   H49816234   6.883   2.858   6.828  1.3546 -0.7151  1.0289
   29MOL   H49916235   6.775   2.734   6.502  0.7175 -0.2349  0.5377
   29MOL   H50016236   6.590   2.552   6.476 -0.2037 -3.1437  0.6908
   29MOL   H50116237   6.456   2.369   6.763 -3.5475  2.8904 -1.5362
   29MOL   H50216238   6.638   2.460   6.896  3.3748  1.0770  1.3036
   29MOL   H50316239   6.807   2.635   6.923 -0.0205  0.2289  0.1055
   29MOL   H50416240   7.029   2.911   6.406 -2.0639 -0.9932  0.0421
   29MOL   H50516241   7.166   2.804   6.255  0.9020  0.2673 -0.0307
   29MOL   C50616242   6.496   2.282   6.594  0.1261 -0.1878 -0.1819
   29MOL   C50716243   6.588   2.275   6.475 -0.7239  0.2176 -0.0057
   29MOL   C50816244   6.728   2.288   6.498 -0.3918 -0.1373  0.3478
   29MOL   C50916245   6.811   2.295   6.387  0.0414  0.3694  1.0474
   29MOL   C51016246   6.766   2.284   6.249 -0.3606  0.5243  0.2851
   29MOL   C51116247   6.866   2.271   6.133 -0.1818 -0.2794 -0.1447
   29MOL   N51216248   6.827   2.293   6.006 -0.1145 -0.0518 -0.0829
   29MOL   C51316249   6.894   2.277   5.884  0.2475 -0.2921  0.3094
   29MOL   C51416250   6.857   2.355   5.767  0.6865  0.0250 -0.6864
   29MOL   C51516251   6.938   2.341   5.653 -0.0678 -0.6635 -0.3670
   29MOL   C51616252   7.032   2.241   5.644  0.4936  0.7122 -0.0783
   29MOL   N51716253   7.108   2.215   5.524  0.6849  0.1084  0.0031
   29MOL   C51816254   7.057   2.157   5.753 -0.3135  0.0895  0.2941
   29MOL   C51916255   6.990   2.175   5.876  0.4606 -0.8788  0.2021
   29MOL   O52016256   6.984   2.257   6.163  0.5024 -0.2818  0.1766
   29MOL   C52116257   6.628   2.267   6.234  0.2964  0.1503 -0.0121
   29MOL   C52216258   6.543   2.266   6.344  0.1126 -0.1550  0.5955
   29MOL   O52316259   6.408   2.199   6.603 -0.4434  0.4198 -0.2054
   29MOL   H52416260   6.762   2.295   6.600  0.0266  0.2454  0.1824
   29MOL   H52516261   6.915   2.291   6.414  0.1071  1.3610  0.9481
   29MOL   H52616262   6.736   2.336   5.996 -0.4585 -0.2706  1.8957
   29MOL   H52716263   6.778   2.429   5.768  0.7885  0.1201  0.4896
   29MOL   H52816264   6.927   2.410   5.571 -2.3439  0.3987  0.7990
   29MOL   H52916265   7.137   2.120   5.504  1.9364  0.1756  1.4915
   29MOL   H53016266   7.134   2.082   5.744 -2.8864 -2.2553 -3.2757
   29MOL   H53116267   7.007   2.113   5.963  1.1535  0.3090  0.9176
   29MOL   H53216268   6.596   2.270   6.131  0.2684  1.6299  0.0412
   29MOL   H53316269   6.440   2.244   6.319  0.2369 -1.9926  1.6261
   29MOL   C53416270   7.166   2.307   5.443 -0.4730 -0.6865 -0.6269
   29MOL   C53516271   7.254   2.243   5.339  0.4036  0.3036  0.7470
   29MOL   C53616272   7.255   2.284   5.203 -0.4928  0.2396  0.3327
   29MOL   C53716273   7.340   2.229   5.112  0.6443 -0.5025  0.0673
   29MOL   C53816274   7.423   2.123   5.150 -0.1665  0.1840 -0.2752
   29MOL   C53916275   7.506   2.045   5.058  0.0496  0.0231  0.0290
   29MOL   N54016276   7.569   2.119   4.973  0.4192  0.3075  0.1193
   29MOL   C54116277   7.631   2.069   4.848 -0.6248 -0.7730 -0.4807
   29MOL   C54216278   7.588   1.951   4.788 -0.4563  0.0079  0.5631
   29MOL   C54316279   7.654   1.911   4.668 -0.0842 -0.5050  0.7575
   29MOL   C54416280   7.759   1.989   4.614  0.4641  0.2569 -0.0360
   29MOL   N54516281   7.821   1.954   4.498  0.3737  0.3091  0.6330
   29MOL   C54616282   7.805   2.102   4.683  0.1442  0.0422  0.1886
   29MOL   C54716283   7.733   2.154   4.791 -0.6745 -0.0723 -0.3507
   29MOL   O54816284   7.505   1.925   5.064  0.4733  0.4289  0.3780
   29MOL   C54916285   7.421   2.078   5.280  0.8006  0.2944  0.3250
   29MOL   C55016286   7.340   2.135   5.381  0.1279  0.4614  1.1804
   29MOL   O55116287   7.159   2.433   5.446  0.0730 -0.1588  0.3723
   29MOL   H55216288   7.188   2.366   5.180 -0.8556  0.4010  1.9092
   29MOL   H55316289   7.342   2.268   5.011 -1.6742 -4.0435 -1.4699
   29MOL   H55416290   7.550   2.218   4.971 -1.0169  0.0231 -1.2710
   29MOL   H55516291   7.506   1.888   4.818 -1.3981  1.8138  1.8450
   29MOL   H55616292   7.615   1.824   4.618 -0.1002  0.2324 -0.5300
   29MOL   H55716293   7.806   1.867   4.450  0.6748  0.5172  0.1581
   29MOL   H55816294   7.895   2.143   4.640  0.5394 -1.1038 -0.0847
   29MOL   H55916295   7.752   2.251   4.834  0.2526 -0.0461 -0.8108
   29MOL   H56016296   7.477   1.992   5.314  1.0880  0.4990  0.3641
   29MOL   H56116297   7.350   2.102   5.483  0.4673  0.6587  1.2125
   29MOL   H56216298   7.903   2.002   4.465 -0.5081  1.6220  0.2849
   30MOL     C116299   7.406   2.397   0.753 -0.0501 -0.2724  0.1512
   30MOL     C216300   7.308   2.406   0.858  0.8493 -0.0217 -0.2542
   30MOL     C316301   7.293   2.310   0.959 -0.6143  0.7967 -0.2348
   30MOL     C416302   7.190   2.315   1.051  0.3889  0.1797 -0.7931
   30MOL     C516303   7.100   2.419   1.046 -0.2308 -0.2292 -0.3305
   30MOL     C616304   6.993   2.433   1.144 -0.3555 -0.0123 -0.2724
   30MOL     N716305   6.869   2.460   1.093  0.1498 -0.7156 -0.1790
   30MOL     C816306   6.737   2.472   1.158 -0.0577  0.2837 -0.0272
   30MOL     C916307   6.706   2.503   1.293 -0.3155 -0.3226 -0.3006
   30MOL    C1016308   6.572   2.507   1.339  0.1669 -0.1600 -0.0521
   30MOL    C1116309   6.467   2.484   1.246  0.5559 -0.7657 -0.0409
   30MOL    N1216310   6.332   2.493   1.281 -0.2628 -0.0831  0.3940
   30MOL    C1316311   6.496   2.453   1.113  0.5597  0.0696 -0.2373
   30MOL    C1416312   6.630   2.451   1.069  0.1381 -0.1833  0.3729
   30MOL    O1516313   7.022   2.417   1.266  0.5352  0.4146 -0.0459
   30MOL    C1616314   7.112   2.517   0.943  0.1577  0.1525 -0.7673
   30MOL    C1716315   7.216   2.514   0.851  0.1799 -0.4037  0.1948
   30MOL    O1816316   7.512   2.336   0.764 -0.3078 -0.3634  0.1472
   30MOL    H1916317   7.361   2.227   0.967  0.7811  1.5432 -3.5983
   30MOL    H2016318   7.185   2.231   1.119 -3.1267  2.3830  1.8210
   30MOL    H2116319   6.879   2.460   0.992  1.5786  0.4111 -0.0669
   30MOL    H2216320   6.791   2.508   1.360 -0.4986 -0.5383 -0.0540
   30MOL    H2316321   6.554   2.525   1.444 -0.3397 -0.4491 -0.0849
   30MOL    H2416322   6.271   2.423   1.240 -0.8845 -0.6157  2.1981
   30MOL    H2516323   6.423   2.425   1.039  0.1118  0.4556  0.0569
   30MOL    H2616324   6.650   2.438   0.964 -2.8637 -0.4062 -0.2228
   30MOL    H2716325   7.046   2.602   0.944  0.4813  0.4108 -1.3858
   30MOL    H2816326   7.221   2.590   0.774  0.1313 -1.0344 -0.4401
   30MOL    H2916327   7.380   2.440   0.656 -2.4366 -3.6160 -0.7590
   30MOL    C3016328   6.258   2.589   1.337  0.4658  0.1426 -0.1273
   30MOL    C3116329   6.118   2.560   1.326  0.2336  0.0653 -0.1467
   30MOL    C3216330   6.057   2.534   1.199 -0.3818 -0.1235 -0.0488
   30MOL    C3316331   5.912   2.517   1.191  0.1355  0.1848  0.4553
   30MOL    C3416332   5.833   2.521   1.305 -0.4926  0.6145 -0.1030
   30MOL    C3516333   5.684   2.505   1.306  0.0619  0.3506  0.0700
   30MOL    N3616334   5.630   2.506   1.188 -0.5142  0.1332 -0.4544
   30MOL    C3716335   5.496   2.505   1.156  0.5891 -0.1795  0.8586
   30MOL    C3816336   5.409   2.420   1.208  0.2817 -0.1093  0.2236
   30MOL    C3916337   5.277   2.419   1.155  0.0373  0.1314  0.4805
   30MOL    C4016338   5.229   2.520   1.066  0.1257 -0.1441 -0.6809
   30MOL    N4116339   5.091   2.514   1.025  0.5207 -0.0549 -0.4190
   30MOL    C4216340   5.329   2.610   1.015  0.2168 -0.2452  0.5181
   30MOL    C4316341   5.459   2.601   1.062 -0.5603 -0.9887 -0.0061
   30MOL    O4416342   5.621   2.502   1.410 -0.0284 -0.4709  0.6373
   30MOL    C4516343   5.898   2.539   1.430 -0.0415  0.0916 -0.8044
   30MOL    C4616344   6.036   2.559   1.436  0.8542  0.8102 -0.5360
   30MOL    O4716345   6.298   2.670   1.414  0.2522 -0.5226  0.6492
   30MOL    H4816346   6.101   2.543   1.101 -1.3648 -1.6124 -0.6459
   30MOL    H4916347   5.875   2.513   1.089  1.5231  2.3600 -0.1784
   30MOL    H5016348   5.703   2.522   1.120 -0.4278  0.8459 -0.2003
   30MOL    H5116349   5.444   2.353   1.286  2.2477 -1.1250 -1.4793
   30MOL    H5216350   5.206   2.345   1.190  0.0225 -0.5889 -1.0339
   30MOL    H5316351   5.044   2.425   1.031  1.8831 -0.7425  0.0946
   30MOL    H5416352   5.312   2.686   0.940  2.7222  1.4491  1.5959
   30MOL    H5516353   5.522   2.676   1.016  0.1889 -2.4481 -1.4278
   30MOL    H5616354   5.841   2.545   1.521  0.4524  1.1045 -0.5526
   30MOL    H5716355   6.071   2.569   1.538  1.5631 -0.4006 -0.6572
   30MOL    C5816356   5.019   2.608   0.960  0.2147 -0.0284  0.6945
   30MOL    C5916357   5.070   2.751   0.961  0.1403  0.4983 -0.4708
   30MOL    C6016358   5.102   2.817   1.084 -0.0566  0.2628  0.8472
   30MOL    C6116359   5.133   2.952   1.075 -0.8520  0.0037 -0.1388
   30MOL    C6216360   5.147   3.023   0.952 -0.1074 -0.0993  1.0782
   30MOL    C6316361   5.199   3.167   0.948  0.0977 -0.1426 -0.2721
   30MOL    N6416362   5.162   3.232   1.053 -0.3004  0.1158  0.2462
   30MOL    C6516363   5.214   3.356   1.098  0.6652  0.0848  0.0631
   30MOL    C6616364   5.122   3.452   1.146  0.7132 -0.4565  0.5172
   30MOL    C6716365   5.166   3.580   1.182 -0.1419  0.1868 -0.0360
   30MOL    C6816366   5.292   3.620   1.164 -0.4414  0.2112 -0.9701
   30MOL    N6916367   5.338   3.757   1.181 -0.7604 -0.3649  0.0732
   30MOL    C7016368   5.391   3.524   1.133 -0.5563  0.3378  0.2491
   30MOL    C7116369   5.356   3.394   1.105  0.3947 -0.7308  0.6781
   30MOL    O7216370   5.283   3.205   0.864 -0.5173  0.7789  0.4098
   30MOL    C7316371   5.114   2.960   0.830  0.4922 -0.5187 -0.0060
   30MOL    C7416372   5.077   2.825   0.837 -0.2256  0.3362 -0.4732
   30MOL    O7516373   4.923   2.577   0.889 -0.7486  0.5971 -0.0779
   30MOL    H7616374   5.086   2.777   1.182 -1.5988 -2.9170 -0.6355
   30MOL    H7716375   5.163   3.001   1.166  1.4017 -1.0245 -0.3156
   30MOL    H7816376   5.079   3.208   1.105  0.0556  0.5890  1.0635
   30MOL    H7916377   5.015   3.453   1.136  0.7015  1.5792  0.7067
   30MOL    H8016378   5.088   3.647   1.216  1.9939  1.0341  3.3683
   30MOL    H8116379   5.437   3.766   1.167 -0.8150 -1.0498 -0.7892
   30MOL    H8216380   5.495   3.551   1.123 -0.3615 -0.0902  1.0508
   30MOL    H8316381   5.438   3.330   1.074 -0.8652 -1.4836 -1.2000
   30MOL    H8416382   5.123   3.018   0.739 -0.6775  1.5645  1.1543
   30MOL    H8516383   5.060   2.776   0.743  1.5461  1.2178 -1.2586
   30MOL    C8616384   5.267   3.870   1.219  0.6922 -0.3266  0.8282
   30MOL    C8716385   5.348   3.995   1.235  0.1503 -0.3792  0.3466
   30MOL    C8816386   5.297   4.122   1.269 -0.5006  0.9739  0.2315
   30MOL    C8916387   5.368   4.235   1.297 -0.0057 -0.5503 -0.8694
   30MOL    C9016388   5.503   4.228   1.259  0.5508  0.1408 -0.3898
   30MOL    C9116389   5.576   4.355   1.270  0.3059  0.2107 -0.3391
   30MOL    N9216390   5.705   4.349   1.301  0.3383  0.1580  0.3530
   30MOL    C9316391   5.801   4.458   1.313 -0.2328  0.0819  0.3509
   30MOL    C9416392   5.767   4.589   1.353  0.3752 -0.6659 -0.1788
   30MOL    C9516393   5.869   4.689   1.349  0.2388 -0.4916  0.2888
   30MOL    C9616394   6.001   4.658   1.302  0.3079 -0.2141 -0.0771
   30MOL    N9716395   6.094   4.761   1.293 -0.6666  0.2974  0.4278
   30MOL    C9816396   6.032   4.524   1.275  0.4616  0.2501 -0.6655
   30MOL    C9916397   5.933   4.424   1.279  0.7889 -0.6894 -0.2105
   30MOL   O10016398   5.516   4.459   1.252 -0.5632 -0.1388  0.2425
   30MOL   C10116399   5.562   4.108   1.215  0.2604  0.0339  0.1612
   30MOL   C10216400   5.488   3.994   1.211  0.1022  0.6778 -0.1448
   30MOL   O10316401   5.145   3.879   1.220 -0.9484  0.0585  0.8552
   30MOL   H10416402   5.191   4.128   1.289 -0.1343  3.3114  1.6732
   30MOL   H10516403   5.317   4.325   1.325  0.9992 -0.2001 -0.1409
   30MOL   H10616404   5.740   4.254   1.298 -0.3824 -0.1322  0.8681
   30MOL   H10716405   5.672   4.634   1.374  0.4907  0.4132 -1.8612
   30MOL   H10816406   5.839   4.792   1.359 -2.0550 -1.0915 -0.0103
   30MOL   H10916407   6.079   4.852   1.334  0.1407  0.2331  0.8750
   30MOL   H11016408   6.134   4.496   1.255  0.8135  0.1509  1.1140
   30MOL   H11116409   5.962   4.325   1.248  1.0038 -0.4603 -0.7521
   30MOL   H11216410   5.666   4.115   1.187  0.4372 -2.2406  0.2295
   30MOL   H11316411   5.542   3.910   1.169 -0.1270  0.4014  0.1126
   30MOL   C11416412   6.222   4.761   1.249 -0.2049 -0.7467 -0.4009
   30MOL   C11516413   6.288   4.896   1.271  0.2358 -0.5884 -0.4319
   30MOL   C11616414   6.242   4.982   1.375  0.0234  0.7153  0.6268
   30MOL   C11716415   6.303   5.108   1.391 -0.0180  1.1300  0.1991
   30MOL   C11816416   6.414   5.146   1.314 -0.5659 -0.7540 -0.1535
   30MOL   C11916417   6.487   5.277   1.333  0.2355 -0.0454  0.1240
   30MOL   N12016418   6.536   5.298   1.454 -0.0330 -0.1040  0.0712
   30MOL   C12116419   6.603   5.407   1.502 -0.4410 -0.2089  0.5085
   30MOL   C12216420   6.617   5.536   1.440 -0.0349  0.5858 -0.8385
   30MOL   C12316421   6.674   5.643   1.518 -0.2626 -0.1595 -0.7502
   30MOL   C12416422   6.716   5.624   1.656 -0.2130 -0.6433  0.0800
   30MOL   N12516423   6.760   5.738   1.728  0.0010 -0.0221 -0.5224
   30MOL   C12616424   6.714   5.498   1.710  0.0618 -0.7230  0.3099
   30MOL   C12716425   6.659   5.394   1.633  0.0665 -0.1380  0.4728
   30MOL   O12816426   6.511   5.346   1.233  0.3351 -0.6467 -0.3469
   30MOL   C12916427   6.458   5.063   1.205  0.0420 -0.5247 -0.5514
   30MOL   C13016428   6.398   4.936   1.187  0.4862 -0.7249  0.1228
   30MOL   O13116429   6.270   4.662   1.198  0.2568  0.0990 -0.3123
   30MOL   H13216430   6.151   4.955   1.426  0.4063 -3.1413 -0.5940
   30MOL   H13316431   6.259   5.173   1.465  0.6146  1.9055 -0.1043
   30MOL   H13416432   6.523   5.223   1.521 -2.4222  0.4559  0.2792
   30MOL   H13516433   6.573   5.560   1.345 -2.1012  3.1901  0.7059
   30MOL   H13616434   6.674   5.744   1.479  1.1682  0.0603 -0.2132
   30MOL   H13716435   6.812   5.809   1.678  0.6818 -1.1485 -1.4301
   30MOL   H13816436   6.743   5.467   1.809 -1.2827  1.0079  1.2635
   30MOL   H13916437   6.659   5.298   1.682 -2.9788 -1.7070 -2.4433
   30MOL   H14016438   6.544   5.096   1.148 -0.7683 -0.3233 -1.7018
   30MOL   H14116439   6.435   4.864   1.114  0.3097 -0.0516 -0.6366
   30MOL   C14216440   6.732   5.770   1.857 -0.3779  0.7372  0.2743
   30MOL   C14316441   6.765   5.914   1.892  0.1761 -0.1037 -0.6241
   30MOL   C14416442   6.867   5.988   1.828 -0.3029 -0.1023 -1.2209
   30MOL   C14516443   6.887   6.124   1.866 -0.4876 -0.5631 -0.4432
   30MOL   C14616444   6.811   6.179   1.971  0.1812  0.0512  0.4639
   30MOL   C14716445   6.826   6.329   2.004 -0.0193 -0.3369 -0.1326
   30MOL   N14816446   6.754   6.380   2.112 -0.6121 -0.1898 -0.7680
   30MOL   C14916447   6.768   6.518   2.167  0.6440 -0.1758  0.1669
   30MOL   C15016448   6.708   6.545   2.291 -0.1230 -0.1611 -0.3854
   30MOL   C15116449   6.707   6.664   2.362  0.2783  0.5777 -0.1634
   30MOL   C15216450   6.750   6.778   2.291  0.1151 -0.4238 -0.3583
   30MOL   N15316451   6.738   6.914   2.337 -0.5244 -0.9971 -0.3499
   30MOL   C15416452   6.809   6.756   2.164  0.2659 -0.4174 -0.2508
   30MOL   C15516453   6.827   6.630   2.108 -0.4899 -0.0337 -0.0698
   30MOL   O15616454   6.904   6.398   1.937 -0.1318 -0.2273  0.2197
   30MOL   C15716455   6.712   6.104   2.039 -0.3877 -0.1676 -0.1543
   30MOL   C15816456   6.695   5.967   2.006 -0.5910  0.4199 -0.4928
   30MOL   O15916457   6.674   5.690   1.935  0.5879  0.8412  0.4070
   30MOL   H16016458   6.923   5.938   1.750  0.5217 -0.6815 -0.2705
   30MOL   H16116459   6.961   6.184   1.816 -0.7792 -1.4192 -1.9399
   30MOL   H16216460   6.696   6.318   2.166 -0.4576 -1.1061 -1.6493
   30MOL   H16316461   6.655   6.461   2.335  0.1061  0.1509  0.5015
   30MOL   H16416462   6.660   6.667   2.459  2.1545 -1.8741  0.8868
   30MOL   H16516463   6.768   6.987   2.273 -2.8957  1.6632  1.4694
   30MOL   H16616464   6.854   6.838   2.111 -0.8534  0.5935  0.3676
   30MOL   H16716465   6.876   6.617   2.013  2.5383  0.4619  1.3595
   30MOL   H16816466   6.663   6.138   2.129  0.7205 -0.8770  0.7292
   30MOL   H16916467   6.624   5.902   2.056 -1.2224  1.6337  0.2431
   30MOL   C17016468   6.692   6.959   2.456  0.4200  0.0417 -0.0080
   30MOL   C17116469   6.673   7.103   2.460 -0.3617 -0.3904 -0.0304
   30MOL   C17216470   6.773   7.186   2.403  0.3006  0.2804 -0.0162
   30MOL   C17316471   6.753   7.326   2.390 -0.1490  0.5722  0.1892
   30MOL   C17416472   6.623   7.376   2.414  0.3975 -0.8554 -0.6609
   30MOL   C17516473   6.593   7.518   2.373  0.2411  0.0116 -0.2441
   30MOL   N17616474   6.570   7.528   2.239 -0.5696 -0.4063  0.1047
   30MOL   C17716475   6.520   7.643   2.169 -0.2060 -0.5239  0.5098
   30MOL   C17816476   6.440   7.746   2.226 -0.4611  0.1702 -0.4289
   30MOL   C17916477   6.387   7.841   2.133 -0.0244  0.4132 -0.2474
   30MOL   C18016478   6.417   7.844   1.995  0.6027 -0.0609  0.5900
   30MOL   N18116479   6.355   7.932   1.903  0.1428 -0.2335 -0.0334
   30MOL   C18216480   6.504   7.747   1.945  0.3798 -0.4448  0.0691
   30MOL   C18316481   6.549   7.645   2.031  0.5335  0.3609 -0.0030
   30MOL   O18416482   6.605   7.612   2.449  0.7052  0.9937 -0.4761
   30MOL   C18516483   6.531   7.298   2.480 -0.5107  0.1159  0.2405
   30MOL   C18616484   6.554   7.162   2.507 -0.6027  0.2130  0.5418
   30MOL   O18716485   6.657   6.891   2.560  0.0247 -0.0756  0.1513
   30MOL   H18816486   6.869   7.151   2.369 -0.4462 -0.9691 -0.8420
   30MOL   H18916487   6.829   7.392   2.353  0.4800 -0.4078 -0.3048
   30MOL   H19016488   6.591   7.441   2.192  0.6513 -0.4385  0.7008
   30MOL   H19116489   6.410   7.743   2.330  1.2854 -0.3058  0.0832
   30MOL   H19216490   6.323   7.920   2.170  0.7078  0.5842  0.6772
   30MOL   H19316491   6.410   7.986   1.837  1.4523 -0.9950  0.4204
   30MOL   H19416492   6.531   7.754   1.840  2.3056 -1.4370  0.4818
   30MOL   H19516493   6.609   7.574   1.976 -1.2905 -2.4358  1.4350
   30MOL   H19616494   6.433   7.334   2.507 -0.5835  1.9460 -2.2364
   30MOL   H19716495   6.476   7.105   2.556  0.0631 -1.1657  0.0236
   30MOL   C19816496   6.223   7.927   1.870 -0.0880 -0.5657  0.0074
   30MOL   C19916497   6.126   7.831   1.936  0.0506 -0.5178 -0.7316
   30MOL   C20016498   6.161   7.691   1.931 -0.0108 -0.0752 -0.3002
   30MOL   C20116499   6.078   7.603   2.008 -0.3475  0.1071  0.3709
   30MOL   C20216500   5.965   7.648   2.075  0.2330 -0.0273  0.0639
   30MOL   C20316501   5.860   7.547   2.126  0.2931  0.2846 -0.2533
   30MOL   N20416502   5.897   7.421   2.148 -0.4408  0.2336 -0.7855
   30MOL   C20516503   5.815   7.304   2.167  0.3859  0.6730 -0.0368
   30MOL   C20616504   5.849   7.188   2.097  0.5412 -0.0114 -0.4151
   30MOL   C20716505   5.767   7.073   2.105  0.3766 -0.1540 -1.0169
   30MOL   C20816506   5.638   7.091   2.168 -0.1350  0.1869  0.1594
   30MOL   N20916507   5.546   6.984   2.164 -0.1796 -0.0808  0.3254
   30MOL   C21016508   5.602   7.212   2.234 -0.1895 -0.2512  0.6478
   30MOL   C21116509   5.697   7.312   2.241  1.0538  0.0883 -0.1873
   30MOL   O21216510   5.738   7.580   2.141  0.1240  0.8678 -0.2321
   30MOL   C21316511   5.930   7.784   2.076 -0.2065 -0.1493  0.2658
   30MOL   C21416512   6.016   7.883   2.014 -1.1693  0.4560 -0.7553
   30MOL   O21516513   6.174   8.000   1.782  0.5737  0.1043  0.0443
   30MOL   H21616514   6.243   7.660   1.868 -0.4507  0.1854 -1.0103
   30MOL   H21716515   6.094   7.497   1.999  1.5779  0.4878 -0.9227
   30MOL   H21816516   5.994   7.397   2.135 -0.0792  0.4906  1.2087
   30MOL   H21916517   5.938   7.178   2.037  1.4974 -1.5572  1.1933
   30MOL   H22016518   5.809   6.980   2.070 -0.8467 -1.2313  0.2898
   30MOL   H22116519   5.447   7.004   2.156 -0.6604 -2.0736  1.0468
   30MOL   H22216520   5.508   7.228   2.285 -1.1457  2.1533 -1.7579
   30MOL   H22316521   5.666   7.402   2.291  1.9703  0.6896 -0.6855
   30MOL   H22416522   5.844   7.825   2.127 -0.9734  0.5360 -1.5485
   30MOL   H22516523   5.992   7.988   2.020 -0.2207  0.6163  0.2931
   30MOL   C22616524   5.574   6.855   2.192 -0.6636 -0.2769  0.8379
   30MOL   C22716525   5.463   6.761   2.147 -1.0230  0.1612  0.5920
   30MOL   C22816526   5.372   6.802   2.044  0.6793 -0.7957 -0.3568
   30MOL   C22916527   5.283   6.703   1.987 -0.0279 -1.3973  0.2729
   30MOL   C23016528   5.291   6.567   2.015  0.4088  0.5196  0.5610
   30MOL   C23116529   5.212   6.466   1.929  0.0719 -0.1964 -0.3963
   30MOL   N23216530   5.199   6.349   1.996  0.7109  0.3216  0.4438
   30MOL   C23316531   5.163   6.225   1.937  0.3513 -0.4384  0.5773
   30MOL   C23416532   5.125   6.206   1.803 -0.3249 -0.1798 -0.2458
   30MOL   C23516533   5.083   6.087   1.751 -0.7615  0.5694  0.2295
   30MOL   C23616534   5.091   5.964   1.822 -1.1992 -0.3032 -0.0824
   30MOL   N23716535   5.053   5.841   1.761 -0.2327 -0.4188  0.4945
   30MOL   C23816536   5.150   5.979   1.958  0.4360  0.4504  0.3122
   30MOL   C23916537   5.182   6.108   2.016  0.0226  0.1056 -0.0820
   30MOL   O24016538   5.168   6.498   1.818  0.4632 -0.4477  0.4061
   30MOL   C24116539   5.382   6.528   2.119 -0.8384  0.4298 -0.4901
   30MOL   C24216540   5.460   6.625   2.189 -0.2079 -0.6005  0.0984
   30MOL   O24316541   5.677   6.815   2.249 -0.0206  0.3985  0.3840
   30MOL   H24416542   5.356   6.905   2.014  0.6507 -0.4026  0.9527
   30MOL   H24516543   5.213   6.735   1.912  0.6101  2.1035  1.0840
   30MOL   H24616544   5.226   6.346   2.093  0.7366  0.6323  0.4464
   30MOL   H24716545   5.112   6.287   1.732  0.3767  1.4582  1.4412
   30MOL   H24816546   5.043   6.088   1.650 -0.9235  1.1114  0.2937
   30MOL   H24916547   5.008   5.848   1.671  0.3813  0.5660  0.2586
   30MOL   H25016548   5.173   5.894   2.019 -1.1876 -0.3396 -0.1362
   30MOL   H25116549   5.203   6.115   2.121  0.6205  2.1333 -0.3069
   30MOL   H25216550   5.392   6.425   2.149 -2.2743 -0.1115 -1.8065
   30MOL   H25316551   5.536   6.602   2.262  0.8945  0.4490 -0.7177
   30MOL   C25416552   5.066   5.719   1.810  0.0586  0.5321 -0.4645
   30MOL   C25516553   5.019   5.604   1.720  0.4448 -0.5481  0.8563
   30MOL   C25616554   4.973   5.487   1.775 -0.0897 -0.0227 -0.0112
   30MOL   C25716555   4.924   5.389   1.695 -0.1724  0.3548  0.5711
   30MOL   C25816556   4.932   5.397   1.553  0.0225  0.4824  0.3350
   30MOL   C25916557   4.884   5.282   1.465 -0.7123 -0.5538  0.1720
   30MOL   N26016558   4.938   5.283   1.345  0.5346 -0.4654  0.5585
   30MOL   C26116559   4.898   5.209   1.230 -1.0390 -0.0520  0.1491
   30MOL   C26216560   4.896   5.269   1.105 -0.3276 -1.0069  0.2182
   30MOL   C26316561   4.848   5.206   0.987  0.1287  0.2681  0.1388
   30MOL   C26416562   4.808   5.074   0.992  0.2330  0.2153  0.4344
   30MOL   N26516563   4.757   4.994   0.883 -0.5554  0.1841  0.2154
   30MOL   C26616564   4.811   5.006   1.113 -0.4337 -0.3602  0.2630
   30MOL   C26716565   4.855   5.072   1.231  0.4677  0.2072  0.1350
   30MOL   O26816566   4.794   5.211   1.499  0.2252 -0.0249 -0.4137
   30MOL   C26916567   4.973   5.522   1.497 -0.1822  1.7106 -0.3052
   30MOL   C27016568   5.015   5.626   1.578 -0.7272  0.4390  0.2514
   30MOL   O27116569   5.108   5.688   1.921 -0.4224  0.2801 -0.1931
   30MOL   H27216570   4.980   5.463   1.880 -2.3686  1.5472  0.5483
   30MOL   H27316571   4.904   5.293   1.739  0.3800  1.1448  2.5890
   30MOL   H27416572   5.008   5.349   1.315 -1.0775  1.0013 -0.0948
   30MOL   H27516573   4.938   5.369   1.104 -0.8291 -0.8071 -1.1672
   30MOL   H27616574   4.853   5.257   0.892 -0.0330  0.3900  0.1953
   30MOL   H27716575   4.668   4.951   0.900 -1.4845  1.4267 -1.3662
   30MOL   H27816576   4.766   4.908   1.114 -1.1872 -0.0198  0.8695
   30MOL   H27916577   4.841   5.017   1.323  1.4218  1.6360  1.1514
   30MOL   H28016578   4.980   5.534   1.390 -1.6322 -0.3370 -0.6526
   30MOL   H28116579   5.041   5.718   1.527 -0.4592 -0.4097 -1.1821
   30MOL   C28216580   4.799   4.995   0.754 -0.2531  0.8109 -0.1965
   30MOL   C28316581   4.938   5.034   0.721  0.1994 -0.0031  0.5606
   30MOL   C28416582   4.967   5.076   0.593 -0.6674 -0.2776 -0.2720
   30MOL   C28516583   5.102   5.121   0.555  0.2155 -0.3675  0.0023
   30MOL   C28616584   5.203   5.104   0.647 -0.6219  0.3868  0.5544
   30MOL   C28716585   5.344   5.148   0.612 -0.7726 -0.3950 -0.1496
   30MOL   N28816586   5.416   5.222   0.700  0.3061 -0.0888  0.6346
   30MOL   C28916587   5.382   5.277   0.828 -0.2952 -0.1343 -0.9806
   30MOL   C29016588   5.269   5.355   0.845  1.1061 -0.1079  0.2469
   30MOL   C29116589   5.249   5.425   0.964  0.3379 -1.0393  0.6557
   30MOL   C29216590   5.355   5.428   1.063 -0.0925  0.6691  0.0501
   30MOL   N29316591   5.354   5.501   1.184  0.3300 -0.0810 -0.4382
   30MOL   C29416592   5.467   5.345   1.044 -0.2327 -0.7466  0.1207
   30MOL   C29516593   5.476   5.268   0.931 -0.1707  0.1972 -0.1974
   30MOL   O29616594   5.401   5.112   0.509  0.2027  0.3149  0.3543
   30MOL   C29716595   5.177   5.034   0.768 -0.6870  0.3816 -0.6531
   30MOL   C29816596   5.044   5.003   0.808 -0.5858  0.7170  0.1331
   30MOL   O29916597   4.718   4.971   0.662 -0.6648 -0.0239  0.2624
   30MOL   H30016598   4.889   5.092   0.520 -0.9145  1.8383  0.4235
   30MOL   H30116599   5.121   5.172   0.462  2.2610  0.0403  0.6394
   30MOL   H30216600   5.511   5.238   0.672 -0.1114  1.6630  0.1176
   30MOL   H30316601   5.193   5.362   0.768  0.8973 -0.2004  0.4455
   30MOL   H30416602   5.163   5.490   0.978 -0.4013 -2.2830  2.0224
   30MOL   H30516603   5.436   5.549   1.217 -0.3949  1.1968 -0.4729
   30MOL   H30616604   5.543   5.339   1.121 -1.8344  1.4824  1.9782
   30MOL   H30716605   5.559   5.200   0.919  0.9077  1.5129 -0.2942
   30MOL   H30816606   5.255   5.013   0.839 -0.0533  2.1128 -0.8308
   30MOL   H30916607   5.024   4.952   0.901  2.2146  0.6794  0.7358
   30MOL   C31016608   5.249   5.550   1.254 -0.2237  0.2442  0.3472
   30MOL   C31116609   5.290   5.636   1.365  0.2351 -0.3223  0.0882
   30MOL   C31216610   5.242   5.774   1.367 -0.3125  0.2530 -0.4189
   30MOL   C31316611   5.273   5.861   1.478  0.1575 -0.6716  0.2225
   30MOL   C31416612   5.362   5.813   1.579  0.2739 -0.9072 -0.7133
   30MOL   C31516613   5.401   5.904   1.696 -1.1456  0.3840  0.6417
   30MOL   N31616614   5.444   6.020   1.654 -0.2299  0.3807 -0.1004
   30MOL   C31716615   5.467   6.139   1.734  0.3850 -0.2410  0.5489
   30MOL   C31816616   5.490   6.142   1.873  0.3089 -0.6289  1.0470
   30MOL   C31916617   5.537   6.257   1.928  0.5740 -0.4976 -0.3258
   30MOL   C32016618   5.556   6.377   1.854 -1.0236 -0.7565  0.7135
   30MOL   N32116619   5.612   6.489   1.915 -0.0136  0.2164 -0.0980
   30MOL   C32216620   5.515   6.379   1.721  0.9422 -0.2900 -0.1111
   30MOL   C32316621   5.470   6.261   1.660 -0.0706 -0.0141 -0.3835
   30MOL   O32416622   5.416   5.863   1.814  0.8951 -0.4337  0.0149
   30MOL   C32516623   5.403   5.675   1.578  0.0788 -0.6711 -0.8038
   30MOL   C32616624   5.367   5.585   1.475  0.9082  0.2506 -0.0311
   30MOL   O32716625   5.129   5.540   1.228  0.7258 -0.1442 -0.3115
   30MOL   H32816626   5.182   5.806   1.283 -0.1985 -0.6095 -0.8398
   30MOL   H32916627   5.225   5.957   1.484 -1.9356 -1.6254 -0.8208
   30MOL   H33016628   5.449   6.025   1.553 -1.9496 -3.0459 -0.4209
   30MOL   H33116629   5.494   6.051   1.931  2.5122 -0.1842  1.6477
   30MOL   H33216630   5.566   6.248   2.032 -2.2613  0.0719  0.5489
   30MOL   H33316631   5.560   6.510   1.999  0.9529 -2.4319  1.2154
   30MOL   H33416632   5.514   6.474   1.670  1.2186 -0.1864  0.0708
   30MOL   H33516633   5.455   6.257   1.553 -0.3977 -0.9140 -0.3112
   30MOL   H33616634   5.462   5.646   1.663  0.9342  0.8797 -0.8593
   30MOL   H33716635   5.378   5.478   1.489  3.5205  0.6808  1.4706
   30MOL   C33816636   5.708   6.576   1.873  0.3368 -0.0887 -0.1978
   30MOL   C33916637   5.791   6.539   1.758  0.0151  0.1248  0.3208
   30MOL   C34016638   5.904   6.451   1.779 -0.3258 -0.2640  0.0116
   30MOL   C34116639   5.988   6.416   1.669  0.1872  0.2605  0.5249
   30MOL   C34216640   5.962   6.468   1.543  0.0329 -0.2180  1.0977
   30MOL   C34316641   6.055   6.449   1.425 -0.0822  0.2817 -0.6557
   30MOL   N34416642   6.097   6.323   1.410  0.0862  0.2068 -0.0361
   30MOL   C34516643   6.144   6.259   1.292  0.0120 -0.5445  0.3823
   30MOL   C34616644   6.214   6.331   1.189  0.3141  0.5876 -0.4481
   30MOL   C34716645   6.245   6.268   1.068 -0.4525 -0.3598 -0.0100
   30MOL   C34816646   6.210   6.132   1.047  0.0666  0.4202  0.7047
   30MOL   N34916647   6.216   6.067   0.920 -0.1833 -0.3635 -0.1013
   30MOL   C35016648   6.150   6.060   1.156  0.0528 -0.0818 -0.3985
   30MOL   C35116649   6.116   6.123   1.274 -0.3399  0.1427 -0.7781
   30MOL   O35216650   6.080   6.545   1.352 -0.0568 -0.0386 -0.9520
   30MOL   C35316651   5.853   6.556   1.525  0.4619 -0.1665  0.3884
   30MOL   C35416652   5.760   6.584   1.626  0.1915  0.1510 -0.2507
   30MOL   O35516653   5.724   6.685   1.926 -0.3078 -0.3336 -0.2277
   30MOL   H35616654   5.915   6.403   1.875 -1.2691 -0.7503 -0.1172
   30MOL   H35716655   6.076   6.360   1.695  0.3806  1.2203  1.9969
   30MOL   H35816656   6.068   6.259   1.483 -1.3364 -2.4324 -2.7994
   30MOL   H35916657   6.247   6.430   1.217  1.7998 -0.3933  1.3470
   30MOL   H36016658   6.301   6.323   0.993 -0.9492 -0.3112 -0.3414
   30MOL   H36116659   6.181   5.972   0.919  1.8768 -1.1643  1.1465
   30MOL   H36216660   6.128   5.955   1.144  0.1478 -0.1718  0.2050
   30MOL   H36316661   6.068   6.062   1.349 -0.4719 -1.0824 -1.8566
   30MOL   H36416662   5.828   6.604   1.432 -0.5612  0.6554  1.0636
   30MOL   H36516663   5.674   6.641   1.593  1.1175  1.7384  0.0217
   30MOL   C36616664   6.246   6.117   0.797 -0.0940 -0.1527 -0.3042
   30MOL   C36716665   6.227   6.017   0.691  0.0753 -0.2265  0.2390
   30MOL   C36816666   6.117   5.930   0.690  0.3088 -0.3264 -0.0882
   30MOL   C36916667   6.111   5.830   0.584  0.5350 -0.1237 -0.4951
   30MOL   C37016668   6.206   5.821   0.482 -0.3065 -0.5241 -0.7075
   30MOL   C37116669   6.174   5.736   0.364  0.1389 -0.7232 -0.5026
   30MOL   N37216670   6.257   5.754   0.258 -0.4871  0.4603  0.0938
   30MOL   C37316671   6.241   5.701   0.127 -0.3615 -0.6829  0.4155
   30MOL   C37416672   6.358   5.679   0.054  0.0782 -0.1137 -0.0389
   30MOL   C37516673   6.354   5.620   8.069  0.6274 -0.1146  0.4432
   30MOL   C37616674   6.231   5.583   8.009 -0.5875  0.2603 -0.1826
   30MOL   N37716675   6.218   5.523   7.885 -0.5243  0.3464  0.1412
   30MOL   C37816676   6.112   5.606   8.086  0.2359  0.0510  0.5256
   30MOL   C37916677   6.115   5.671   0.063 -0.0029 -0.6003 -0.3455
   30MOL   O38016678   6.083   5.652   0.363  0.0598  0.4889  0.3976
   30MOL   C38116679   6.319   5.906   0.487  0.2270 -0.2525  0.3000
   30MOL   C38216680   6.328   6.001   0.590  0.1272  0.2799 -0.0785
   30MOL   O38316681   6.282   6.230   0.780 -0.0075 -0.1638  0.0847
   30MOL   H38416682   6.044   5.949   0.767  0.9936 -0.4914  0.6134
   30MOL   H38516683   6.018   5.775   0.581  1.5039 -1.8803  0.6906
   30MOL   H38616684   6.336   5.816   0.269 -1.2610  1.4616  0.0700
   30MOL   H38716685   6.459   5.706   0.082 -0.0994  0.0844  0.4119
   30MOL   H38816686   6.452   5.614   8.024  1.5292 -3.9186  2.7440
   30MOL   H38916687   6.130   5.491   7.849  1.1950 -0.8912 -3.1651
   30MOL   H39016688   6.020   5.578   8.038  0.8564 -2.0582  0.5348
   30MOL   H39116689   6.020   5.685   0.114  0.9023  1.5994  0.8030
   30MOL   H39216690   6.389   5.899   0.405 -1.3061 -1.0530 -0.9687
   30MOL   H39316691   6.414   6.067   0.595 -0.4719  1.0528  0.1604
   30MOL   C39416692   6.313   5.493   7.796 -0.0488  0.4968 -0.1612
   30MOL   C39516693   6.263   5.428   7.675  0.4115 -0.7601 -0.4003
   30MOL   C39616694   6.156   5.342   7.683  0.1493  0.3330 -0.1672
   30MOL   C39716695   6.104   5.289   7.561  0.5309  0.4155 -0.1670
   30MOL   C39816696   6.163   5.325   7.435  0.4418  1.4906  0.0595
   30MOL   C39916697   6.100   5.272   7.308  0.1454  0.2891 -0.0690
   30MOL   N40016698   6.053   5.147   7.298  0.7375  0.6235  0.0099
   30MOL   C40116699   5.963   5.093   7.198  0.2212  0.1535  0.3081
   30MOL   C40216700   5.904   5.179   7.104 -0.2841  0.0939  1.1242
   30MOL   C40316701   5.807   5.125   7.017 -0.6687 -0.7174  0.0199
   30MOL   C40416702   5.785   4.987   7.010  0.0892 -0.3404  0.6111
   30MOL   N40516703   5.703   4.945   6.903  0.1649  0.4608 -0.3998
   30MOL   C40616704   5.848   4.901   7.104 -0.1161 -0.7773  0.8679
   30MOL   C40716705   5.936   4.960   7.196 -0.3477  0.6718  0.1081
   30MOL   O40816706   6.093   5.352   7.213 -0.3218  0.2534 -0.2074
   30MOL   C40916707   6.280   5.406   7.431 -0.6762 -0.2204 -0.7062
   30MOL   C41016708   6.318   5.459   7.553 -0.8217  0.2617  0.5802
   30MOL   O41116709   6.432   5.517   7.800 -0.3708 -0.5134  0.5255
   30MOL   H41216710   6.121   5.308   7.780  3.0277  0.4334  0.9692
   30MOL   H41316711   6.017   5.226   7.556  0.2664  0.6344  1.3795
   30MOL   H41416712   6.067   5.100   7.386 -0.4353 -1.1281 -0.7157
   30MOL   H41516713   5.915   5.286   7.105  2.3368 -0.1364  1.7450
   30MOL   H41616714   5.755   5.192   6.950 -2.3019  0.6540  2.5931
   30MOL   H41716715   5.643   5.016   6.864 -2.4512 -1.1286  0.6137
   30MOL   H41816716   5.826   4.795   7.117 -1.4085 -0.5812  0.3780
   30MOL   H41916717   5.985   4.894   7.266  0.2663 -0.0103 -0.9524
   30MOL   H42016718   6.327   5.445   7.342  0.7868 -0.8066 -0.1937
   30MOL   H42116719   6.399   5.531   7.545  1.2783 -1.8324  2.0785
   30MOL   C42216720   5.693   4.820   6.846  0.8185 -0.0386 -0.2327
   30MOL   C42316721   5.651   4.807   6.704 -0.3443 -0.8259 -0.4216
   30MOL   C42416722   5.644   4.925   6.625 -0.6096 -0.7083  0.1135
   30MOL   C42516723   5.611   4.909   6.486 -0.7158  0.0118 -0.6514
   30MOL   C42616724   5.586   4.782   6.433  0.4407 -0.2483  0.0646
   30MOL   C42716725   5.571   4.767   6.283  0.0015  0.2368 -0.5451
   30MOL   N42816726   5.500   4.659   6.243 -0.6910  0.1384  0.7330
   30MOL   C42916727   5.496   4.603   6.111 -0.4826 -0.3074 -0.1455
   30MOL   C43016728   5.470   4.686   5.996  0.3116 -0.2020  0.1637
   30MOL   C43116729   5.476   4.632   5.866 -0.1077  0.0136 -0.2834
   30MOL   C43216730   5.477   4.494   5.851 -0.2245 -0.3091  0.8837
   30MOL   N43316731   5.468   4.435   5.719  0.3301 -0.2545 -0.2276
   30MOL   C43416732   5.492   4.414   5.965  0.6921  0.5743 -0.3552
   30MOL   C43516733   5.507   4.466   6.095  0.6993 -0.7972 -0.1754
   30MOL   O43616734   5.627   4.845   6.200 -0.3029 -0.4959  0.6365
   30MOL   C43716735   5.597   4.668   6.513 -0.3948 -0.5454  0.2290
   30MOL   C43816736   5.630   4.681   6.647  0.1007  0.0388  0.5456
   30MOL   O43916737   5.715   4.718   6.903 -0.2017 -0.3187  0.0890
   30MOL   H44016738   5.655   5.024   6.667 -0.0594 -1.0196  0.7140
   30MOL   H44116739   5.607   5.003   6.432  1.0764 -0.2997 -1.3562
   30MOL   H44216740   5.445   4.603   6.307  0.2157 -0.8864  0.6460
   30MOL   H44316741   5.454   4.791   6.014 -1.5521 -0.5248  0.5302
   30MOL   H44416742   5.457   4.690   5.777 -0.1418 -1.5299 -1.3186
   30MOL   H44516743   5.544   4.454   5.655 -0.5743 -4.1054 -2.5922
   30MOL   H44616744   5.508   4.307   5.953 -1.3759  0.0750  1.0291
   30MOL   H44716745   5.533   4.403   6.179 -1.1835  0.9160  1.7356
   30MOL   H44816746   5.582   4.572   6.466 -1.5238  0.1681 -0.8982
   30MOL   H44916747   5.644   4.594   6.709  0.3714 -0.2807  0.0422
   30MOL   C45016748   5.370   4.346   5.691  0.1394 -0.6523 -0.5357
   30MOL   C45116749   5.389   4.272   5.560 -0.2576  0.4611  0.3712
   30MOL   C45216750   5.400   4.344   5.438  0.0473  0.3877  0.0794
   30MOL   C45316751   5.405   4.270   5.318 -0.1342  0.2535  0.6562
   30MOL   C45416752   5.424   4.131   5.324 -0.0842  0.2794  0.1464
   30MOL   C45516753   5.448   4.058   5.199 -0.9044  0.2740 -0.2231
   30MOL   N45616754   5.417   3.929   5.194 -0.3416  0.0473 -0.2446
   30MOL   C45716755   5.464   3.848   5.084 -0.6381  0.2851 -0.6571
   30MOL   C45816756   5.432   3.889   4.948  0.1880 -0.5204 -0.1981
   30MOL   C45916757   5.473   3.804   4.843 -0.1521 -0.7549 -0.0446
   30MOL   C46016758   5.537   3.683   4.868  0.3233  0.0706 -0.1686
   30MOL   N46116759   5.573   3.593   4.764  0.5873 -0.0336 -0.1841
   30MOL   C46216760   5.570   3.647   5.004 -0.2151  0.4808 -0.0009
   30MOL   C46316761   5.525   3.727   5.111  0.3887  0.0083 -0.1251
   30MOL   O46416762   5.496   4.117   5.104 -0.0313 -0.0628 -0.0092
   30MOL   C46516763   5.398   4.064   5.445 -1.1018 -0.8252 -0.7328
   30MOL   C46616764   5.375   4.133   5.562  0.0755 -0.6623  0.0073
   30MOL   O46716765   5.270   4.330   5.758  0.1646 -0.1079  0.3167
   30MOL   H46816766   5.410   4.451   5.447  2.4435  0.1001  0.9849
   30MOL   H46916767   5.427   4.316   5.222  1.2318 -1.6410  0.0213
   30MOL   H47016768   5.379   3.884   5.276 -1.5064  1.5097  0.0402
   30MOL   H47116769   5.377   3.979   4.925 -1.1645 -0.0691  4.1869
   30MOL   H47216770   5.432   3.838   4.748  0.5054 -0.6549 -0.2947
   30MOL   H47316771   5.595   3.498   4.792  0.8181  0.4618  1.3971
   30MOL   H47416772   5.622   3.553   5.017 -0.6950 -0.1202 -2.2219
   30MOL   H47516773   5.539   3.701   5.215  0.6744 -0.3779 -0.2583
   30MOL   H47616774   5.394   3.956   5.445  0.9313 -0.9259  0.4394
   30MOL   H47716775   5.355   4.076   5.651 -0.9359  0.6398  0.6441
   30MOL   C47816776   5.575   3.610   4.629 -0.1881 -0.1593 -0.0967
   30MOL   C47916777   5.592   3.486   4.544  0.2185  0.3842 -0.8668
   30MOL   C48016778   5.519   3.370   4.578  0.1776  0.3282  0.6810
   30MOL   C48116779   5.513   3.261   4.484 -0.3551 -0.1663  0.6921
   30MOL   C48216780   5.596   3.264   4.367  0.1199 -0.4497 -0.4514
   30MOL   C48316781   5.594   3.154   4.266  0.5362  0.1036 -0.5377
   30MOL   N48416782   5.590   3.032   4.319 -0.7537 -0.2055 -0.1260
   30MOL   C48516783   5.573   2.912   4.247  0.3635  0.8172 -0.0525
   30MOL   C48616784   5.493   2.902   4.136 -0.6007  0.1875 -0.4487
   30MOL   C48716785   5.445   2.778   4.089 -1.2252  0.6469 -0.0313
   30MOL   C48816786   5.490   2.663   4.155  0.6300 -0.2508  0.1843
   30MOL   N48916787   5.421   2.537   4.127 -0.2619  0.0964 -0.3235
   30MOL   C49016788   5.575   2.677   4.266  0.0637  0.3997  0.4657
   30MOL   C49116789   5.620   2.803   4.308 -0.6093 -0.1833  0.7699
   30MOL   O49216790   5.607   3.173   4.142 -0.0188  0.0678 -0.0106
   30MOL   C49316791   5.669   3.383   4.344  0.0255  0.6465  0.7671
   30MOL   C49416792   5.671   3.491   4.431 -0.0342  0.1865  0.2195
   30MOL   O49516793   5.575   3.720   4.578  0.5686 -0.1822 -0.0233
   30MOL   H49616794   5.464   3.372   4.671  1.0095  1.9066  1.1541
   30MOL   H49716795   5.455   3.175   4.514 -0.5411 -0.0637  0.6232
   30MOL   H49816796   5.614   3.029   4.418 -1.3468 -1.6785 -0.0236
   30MOL   H49916797   5.446   2.986   4.088  0.0131  0.6332 -0.2760
   30MOL   H50016798   5.355   2.776   4.030 -0.9083 -0.9398 -0.4911
   30MOL   H50116799   5.412   2.520   4.028 -1.1145 -0.2896 -0.1853
   30MOL   H50216800   5.601   2.589   4.324  2.0998 -2.1847 -4.0780
   30MOL   H50316801   5.694   2.814   4.386  0.5161 -0.9244 -0.1873
   30MOL   H50416802   5.721   3.396   4.250 -1.1419  1.0740  0.1775
   30MOL   H50516803   5.728   3.577   4.399 -1.3194  1.0571  0.2091
   30MOL   C50616804   5.341   2.455   4.201 -0.3903  0.1017  0.0827
   30MOL   C50716805   5.345   2.474   4.346  0.2099  0.2122 -0.6220
   30MOL   C50816806   5.390   2.365   4.422 -0.6491 -0.4335 -0.6955
   30MOL   C50916807   5.388   2.370   4.562 -0.0929  0.5860  0.4291
   30MOL   C51016808   5.336   2.483   4.628 -0.1020 -0.0194  0.5346
   30MOL   C51116809   5.305   2.474   4.772 -0.0919  0.5051  0.6277
   30MOL   N51216810   5.378   2.565   4.843  0.0882  0.4690  0.3696
   30MOL   C51316811   5.373   2.578   4.986 -0.6330 -0.0028 -0.4178
   30MOL   C51416812   5.480   2.562   5.071  0.1589  0.6500 -0.6388
   30MOL   C51516813   5.472   2.584   5.213 -0.0346 -0.0964  0.1532
   30MOL   C51616814   5.350   2.614   5.269  0.5584 -0.5766 -0.4618
   30MOL   N51716815   5.338   2.629   5.411  0.3360 -0.1204 -0.6208
   30MOL   C51816816   5.240   2.632   5.185 -0.5312  0.4303 -0.2152
   30MOL   C51916817   5.249   2.621   5.047 -0.0853  0.9386  0.2006
   30MOL   O52016818   5.233   2.392   4.823  0.0331 -0.4272 -0.0094
   30MOL   C52116819   5.302   2.598   4.553  0.2581 -0.2165  0.2554
   30MOL   C52216820   5.294   2.587   4.413 -0.3732  0.6787  0.3684
   30MOL   O52316821   5.273   2.362   4.151 -0.0444 -0.6431 -0.1122
   30MOL   H52416822   5.416   2.276   4.366  1.5855  0.6112 -1.3843
   30MOL   H52516823   5.430   2.291   4.624 -1.5480 -1.0963 -0.6756
   30MOL   H52616824   5.448   2.609   4.786 -0.4558 -0.0199 -0.6941
   30MOL   H52716825   5.576   2.534   5.029  0.3560  2.4109 -1.3989
   30MOL   H52816826   5.557   2.561   5.276 -0.5441 -1.0357  0.5145
   30MOL   H52916827   5.421   2.657   5.461  0.5295 -0.3634 -0.8034
   30MOL   H53016828   5.149   2.668   5.230 -0.3588  0.3545  0.1998
   30MOL   H53116829   5.157   2.638   4.993  0.4430  1.6546 -0.4784
   30MOL   H53216830   5.257   2.689   4.590 -0.3490 -0.2394 -0.4282
   30MOL   H53316831   5.260   2.670   4.354 -2.2015 -1.0468 -1.0855
   30MOL   C53416832   5.241   2.571   5.486 -0.9839  0.0029 -0.1781
   30MOL   C53516833   5.251   2.584   5.632  0.8575 -0.0894  0.8836
   30MOL   C53616834   5.188   2.494   5.725 -0.1108  0.6395 -0.4505
   30MOL   C53716835   5.196   2.507   5.863  0.1939  0.3442 -0.4612
   30MOL   C53816836   5.265   2.612   5.923  0.3625  0.2376 -0.6037
   30MOL   C53916837   5.270   2.626   6.073  0.2966 -0.0919 -1.0715
   30MOL   N54016838   5.307   2.510   6.127 -0.4956 -0.9408 -0.3414
   30MOL   C54116839   5.319   2.487   6.267 -0.0925 -0.2771 -0.2785
   30MOL   C54216840   5.439   2.425   6.317 -0.0157 -0.1284  0.3236
   30MOL   C54316841   5.463   2.419   6.454  0.1173  0.1629  0.1514
   30MOL   C54416842   5.361   2.447   6.543 -0.4709 -0.2783  0.6554
   30MOL   N54516843   5.377   2.412   6.672 -0.5945 -0.1363  0.3283
   30MOL   C54616844   5.237   2.489   6.489 -0.1426  0.2597 -0.7196
   30MOL   C54716845   5.220   2.532   6.358 -0.9846 -0.1658 -1.1701
   30MOL   O54816846   5.229   2.731   6.123 -0.2871 -0.2471 -0.1136
   30MOL   C54916847   5.330   2.701   5.838  0.2636 -0.7484  0.0630
   30MOL   C55016848   5.328   2.685   5.698  0.2804 -0.1422 -0.2716
   30MOL   O55116849   5.140   2.521   5.440  0.6069  0.5891 -1.0364
   30MOL   H55216850   5.134   2.407   5.690 -1.6741  0.9060  1.2078
   30MOL   H55316851   5.148   2.432   5.923 -1.9394  1.1894 -1.0719
   30MOL   H55416852   5.360   2.451   6.064  0.3534 -1.0696  0.4876
   30MOL   H55516853   5.522   2.391   6.258 -0.0202 -1.1449  0.8814
   30MOL   H55616854   5.557   2.378   6.488  0.5092  0.0440 -1.0240
   30MOL   H55716855   5.296   2.430   6.730 -1.2299  1.5787 -1.0389
   30MOL   H55816856   5.155   2.486   6.559 -0.1261 -1.9015 -0.7492
   30MOL   H55916857   5.125   2.567   6.323 -1.8284 -2.4587 -1.2954
   30MOL   H56016858   5.394   2.775   5.883 -0.2390  0.9262 -1.9296
   30MOL   H56116859   5.389   2.757   5.646  0.5102 -1.3962 -1.7740
   30MOL   H56216860   5.439   2.338   6.702 -0.0995 -0.0159 -0.4059
   31MOL     C116861   4.049   3.307   7.833 -0.0371 -0.7338  0.3704
   31MOL     C216862   4.110   3.316   7.696  0.2501  0.3267  0.0619
   31MOL     C316863   4.033   3.264   7.587 -0.8855  0.4532  0.5035
   31MOL     C416864   4.082   3.262   7.453 -0.1723  1.2843 -0.5348
   31MOL     C516865   4.212   3.314   7.429  0.3261  0.6240  0.2066
   31MOL     C616866   4.270   3.311   7.291 -0.1863 -0.2365  0.0559
   31MOL     N716867   4.385   3.247   7.290 -0.1762 -0.2796  0.4726
   31MOL     C816868   4.445   3.170   7.391 -0.6492  0.1721 -0.0490
   31MOL     C916869   4.586   3.188   7.403 -0.0511  0.4337 -0.0439
   31MOL    C1016870   4.656   3.113   7.503 -1.3455  0.4236  1.2825
   31MOL    C1116871   4.594   3.020   7.591  0.7810  0.4139  0.6041
   31MOL    N1216872   4.674   2.951   7.683 -0.2964  0.0193 -0.3278
   31MOL    C1316873   4.452   3.004   7.567 -0.8373 -0.0320 -1.1718
   31MOL    C1416874   4.376   3.072   7.467 -0.1076  0.1692 -0.2065
   31MOL    O1516875   4.214   3.358   7.196  0.5346 -0.0395 -0.6387
   31MOL    C1616876   4.278   3.377   7.539  0.1871  0.5932 -0.0069
   31MOL    C1716877   4.241   3.370   7.677  0.7944  0.2938 -0.2513
   31MOL    O1816878   4.092   3.365   7.934 -0.4400  0.8100 -0.0556
   31MOL    H1916879   3.933   3.229   7.609 -0.5832 -0.3157  0.6726
   31MOL    H2016880   4.022   3.223   7.372  0.5663 -0.5236 -0.2433
   31MOL    H2116881   4.435   3.241   7.202 -0.7525  0.4837  0.0777
   31MOL    H2216882   4.646   3.255   7.342  0.9043  0.0537  0.4709
   31MOL    H2316883   4.760   3.136   7.520 -0.5841 -0.4515 -1.8436
   31MOL    H2416884   4.774   2.949   7.668  0.0030  0.5766  1.4776
   31MOL    H2516885   4.396   2.927   7.618  0.1868  1.4432  2.3732
   31MOL    H2616886   4.274   3.045   7.442  0.0160 -0.4705 -0.0422
   31MOL    H2716887   4.369   3.427   7.508  0.5105 -0.4117 -0.7011
   31MOL    H2816888   4.293   3.420   7.757  3.5621 -2.1564 -0.4739
   31MOL    H2916889   3.956   3.252   7.834 -0.2085 -0.5107 -1.4493
   31MOL    C3016890   4.637   2.852   7.764  0.9438  0.1481 -0.0977
   31MOL    C3116891   4.744   2.778   7.836  0.6847  0.2593  0.5649
   31MOL    C3216892   4.703   2.690   7.936  0.4455 -0.0984 -0.5423
   31MOL    C3316893   4.806   2.622   8.008 -0.3054 -0.4855  0.5069
   31MOL    C3416894   4.936   2.638   7.974 -0.7036 -0.2882 -0.2933
   31MOL    C3516895   5.038   2.564   8.052 -0.0469  0.4307 -0.1941
   31MOL    N3616896   5.163   2.612   8.063  0.1223  0.3321  0.7082
   31MOL    C3716897   5.271   2.551   8.133 -0.0841 -0.1013  1.1912
   31MOL    C3816898   5.249   2.471   0.105 -0.4096  0.1014  0.4482
   31MOL    C3916899   5.357   2.406   0.167 -0.1264 -0.4457  0.5407
   31MOL    C4016900   5.490   2.437   0.127  0.2313 -0.5194  0.0832
   31MOL    N4116901   5.604   2.377   0.188  0.3805  0.3924 -0.0884
   31MOL    C4216902   5.514   2.518   0.014 -0.4889  0.3263 -0.1218
   31MOL    C4316903   5.402   2.566   8.087 -0.4850 -0.4056 -0.6341
   31MOL    O4416904   5.008   2.448   8.090 -0.1641 -0.7133 -0.7717
   31MOL    C4516905   4.975   2.723   7.874 -0.2902 -0.2430 -0.3029
   31MOL    C4616906   4.880   2.798   7.807  0.8447  0.8862 -0.3897
   31MOL    O4716907   4.520   2.826   7.785  0.6122  0.2130  0.1213
   31MOL    H4816908   4.599   2.664   7.943  0.2282  0.8645 -0.1523
   31MOL    H4916909   4.789   2.548   8.084 -1.6075 -1.7540 -1.0008
   31MOL    H5016910   5.182   2.692   8.005 -0.1583 -0.3015 -0.2901
   31MOL    H5116911   5.152   2.469   0.152 -1.2502  0.7778 -1.2009
   31MOL    H5216912   5.344   2.347   0.256  0.6061 -0.4824  0.6286
   31MOL    H5316913   5.693   2.382   0.142  0.4027  0.4944 -0.0348
   31MOL    H5416914   5.614   2.535   8.124 -1.6848  2.0699 -2.7410
   31MOL    H5516915   5.426   2.622   7.998 -0.5829  2.4798  1.1189
   31MOL    H5616916   5.080   2.742   7.854 -0.3599  1.0765  0.5352
   31MOL    H5716917   4.909   2.874   7.736  1.1753 -1.0034 -2.3281
   31MOL    C5816918   5.620   2.313   0.302 -0.2152 -0.2301 -0.4910
   31MOL    C5916919   5.765   2.269   0.328 -0.6435 -0.5100  0.3192
   31MOL    C6016920   5.798   2.229   0.456 -0.0350 -0.0741 -0.1687
   31MOL    C6116921   5.925   2.183   0.483 -0.2485  0.0821 -0.3347
   31MOL    C6216922   6.025   2.178   0.387  0.1924  0.1995 -0.3091
   31MOL    C6316923   6.154   2.117   0.414  0.0723  0.6142 -0.4438
   31MOL    N6416924   6.206   2.038   0.316 -0.4827  0.1679  0.2969
   31MOL    C6516925   6.336   1.973   0.306 -0.3739  0.0478 -0.2788
   31MOL    C6616926   6.452   2.045   0.344  0.5712 -0.3282 -0.1697
   31MOL    C6716927   6.571   1.994   0.311  0.4906 -0.0202  0.2005
   31MOL    C6816928   6.583   1.872   0.237 -0.3495  0.3346 -0.3880
   31MOL    N6916929   6.707   1.817   0.202 -0.8303 -0.1023  1.0479
   31MOL    C7016930   6.469   1.806   0.201  0.0558 -0.1177 -0.2160
   31MOL    C7116931   6.345   1.854   0.236 -0.3977 -0.2418  0.0772
   31MOL    O7216932   6.208   2.137   0.522  0.6231 -0.5853 -0.9849
   31MOL    C7316933   5.998   2.231   0.263  1.1759 -0.7746 -0.2436
   31MOL    C7416934   5.871   2.286   0.232 -0.0112  0.0193 -0.1107
   31MOL    O7516935   5.529   2.290   0.384 -0.3381  0.3066  0.5621
   31MOL    H7616936   5.721   2.223   0.531 -1.0757  0.2324 -1.2022
   31MOL    H7716937   5.943   2.150   0.584 -0.6846  1.2150  0.1351
   31MOL    H7816938   6.147   2.030   0.235  0.5240  0.7373 -0.5142
   31MOL    H7916939   6.438   2.144   0.385 -1.4321 -0.2820 -0.8859
   31MOL    H8016940   6.655   2.057   0.337 -0.0871  0.3867  1.0988
   31MOL    H8116941   6.720   1.719   0.220 -1.2037  0.2162  3.1220
   31MOL    H8216942   6.465   1.714   0.146  0.9587 -1.2700  1.5922
   31MOL    H8316943   6.264   1.786   0.214 -2.3550  1.9816  0.3117
   31MOL    H8416944   6.073   2.243   0.186 -0.0619 -0.8005 -1.4936
   31MOL    H8516945   5.850   2.317   0.131 -1.4843 -0.6954 -0.0390
   31MOL    C8616946   6.812   1.882   0.152 -0.1268 -0.1768  0.6182
   31MOL    C8716947   6.932   1.793   0.147 -0.0151  0.1767  1.0667
   31MOL    C8816948   6.949   1.683   0.235  0.3883  0.7498 -0.0996
   31MOL    C8916949   7.063   1.599   0.217 -0.2523  0.7779 -0.0275
   31MOL    C9016950   7.158   1.628   0.116 -0.7115  0.9853  1.0919
   31MOL    C9116951   7.274   1.536   0.095  0.0884  0.2480  0.5340
   31MOL    N9216952   7.375   1.574   0.013 -0.3625 -0.1741  0.0366
   31MOL    C9316953   7.508   1.516   0.002  0.0698 -0.9357  0.3462
   31MOL    C9416954   7.559   1.400   0.065 -0.0044  0.9079 -0.4947
   31MOL    C9516955   7.685   1.341   0.023  0.1133  0.3767  0.1682
   31MOL    C9616956   7.757   1.405   8.066  0.4630  0.5328 -1.3601
   31MOL    N9716957   7.883   1.345   8.041  0.3855  0.3304  0.3904
   31MOL    C9816958   7.717   1.525   8.017  0.1475  0.4072 -0.5910
   31MOL    C9916959   7.587   1.583   8.054  0.0722 -0.1775 -0.3317
   31MOL   O10016960   7.280   1.436   0.156  0.0675  0.4616  0.0252
   31MOL   C10116961   7.144   1.737   0.033  0.2091 -0.6660 -0.2528
   31MOL   C10216962   7.037   1.822   0.055  0.0668  0.1960  0.3821
   31MOL   O10316963   6.815   1.996   0.111 -0.2741 -0.0109  0.1628
   31MOL   H10416964   6.892   1.669   0.325  0.8206  2.7539  0.4919
   31MOL   H10516965   7.083   1.513   0.280  1.5231  1.5075  0.4371
   31MOL   H10616966   7.352   1.661   8.114  0.3887  1.5264  2.8137
   31MOL   H10716967   7.518   1.339   0.143  0.7751  0.3269 -0.5281
   31MOL   H10816968   7.722   1.250   0.068  0.3886 -0.0859 -0.9547
   31MOL   H10916969   7.913   1.266   8.095  0.8196  0.4278  0.2950
   31MOL   H11016970   7.783   1.571   7.945  1.3146  0.4036  0.4719
   31MOL   H11116971   7.540   1.661   7.996 -2.7906 -1.0020  0.7652
   31MOL   H11216972   7.215   1.769   8.105 -0.8267  0.5493 -0.7409
   31MOL   H11316973   7.036   1.911   8.140 -0.8624  0.3463  0.6052
   31MOL   C11416974   7.958   1.363   7.930 -0.3358 -0.0380 -0.1620
   31MOL   C11516975   8.081   1.276   7.947 -0.4363 -0.1175  0.0016
   31MOL   C11616976   0.007   1.295   8.064 -1.0567 -0.5090 -0.6188
   31MOL   C11716977   0.124   1.220   8.090  0.4917 -0.4977 -0.3326
   31MOL   C11816978   0.152   1.115   8.002  0.5277 -0.6059 -0.3340
   31MOL   C11916979   0.259   1.015   8.033  0.2220 -0.3319 -0.5836
   31MOL   N12016980   0.221   0.915   8.115 -0.0013 -0.2280 -0.3645
   31MOL   C12116981   0.094   0.900   0.027  0.6492 -0.5917 -0.8860
   31MOL   C12216982   8.130   0.848   8.101  0.6966  0.3663 -0.0202
   31MOL   C12316983   8.000   0.853   0.014 -0.4105  0.2456 -0.5621
   31MOL   C12416984   7.979   0.919   0.135 -0.2609  0.0560  0.2883
   31MOL   N12516985   7.852   0.962   0.192 -0.4202  0.0211  0.7096
   31MOL   C12616986   8.092   0.951   0.216  0.5850  0.0022  0.4478
   31MOL   C12716987   0.076   0.941   0.163  0.1380 -0.8621  0.2554
   31MOL   O12816988   0.374   1.021   7.987 -0.3874 -0.4089 -0.7938
   31MOL   C12916989   0.090   1.104   7.877  0.2505  0.5591 -0.6318
   31MOL   C13016990   8.119   1.182   7.852 -0.3312 -0.4513 -0.4073
   31MOL   O13116991   7.932   1.424   7.827 -0.1622 -0.0786 -0.5502
   31MOL   H13216992   8.125   1.369   8.137  0.2601  1.1773 -1.7836
   31MOL   H13316993   0.177   1.239   0.036 -0.6571 -1.3892  0.5325
   31MOL   H13416994   0.294   0.876   0.026 -1.6608  0.2533  2.1897
   31MOL   H13516995   0.004   0.818   7.999 -1.6266  1.1613 -0.7413
   31MOL   H13616996   7.922   0.823   8.091 -0.6657  2.1146 -1.1043
   31MOL   H13716997   7.858   1.018   0.276  0.2292  2.5179 -0.9606
   31MOL   H13816998   8.070   0.987   0.316  1.9381 -0.9378  1.0952
   31MOL   H13916999   0.159   0.965   0.227 -0.3322 -2.3497  1.4615
   31MOL   H14017000   0.118   1.026   7.809  0.8664  1.2800 -1.2143
   31MOL   H14117001   8.057   1.164   7.765 -2.4328  2.1601  0.5012
   31MOL   C14217002   7.732   0.921   0.152  0.1641 -0.6978 -0.4418
   31MOL   C14317003   7.619   1.004   0.212  0.3753  0.3806  0.6742
   31MOL   C14417004   7.490   0.951   0.212  0.0480 -0.4654 -0.1279
   31MOL   C14517005   7.382   1.014   0.277 -0.2328  0.3132  0.9942
   31MOL   C14617006   7.403   1.131   0.355 -0.7275  0.7585  0.7968
   31MOL   C14717007   7.292   1.219   0.400 -0.7452  0.5765 -0.2288
   31MOL   N14817008   7.176   1.219   0.337  0.0755  0.2230  0.4431
   31MOL   C14917009   7.048   1.265   0.378 -0.1423  0.0901 -0.4943
   31MOL   C15017010   6.951   1.297   0.277 -1.0297  0.1867  0.7223
   31MOL   C15117011   6.826   1.349   0.313  0.1553  0.6852  0.2687
   31MOL   C15217012   6.786   1.355   0.446 -0.2783 -0.1255  0.1717
   31MOL   N15317013   6.668   1.416   0.489  0.3323 -0.0777 -0.2416
   31MOL   C15417014   6.878   1.321   0.550 -0.2933 -0.6111  0.2795
   31MOL   C15517015   7.010   1.279   0.512 -0.4839  1.4789 -0.5731
   31MOL   O15617016   7.312   1.285   0.501  0.2649 -0.3034 -0.3141
   31MOL   C15717017   7.536   1.182   0.368  0.5001  0.3186  0.3046
   31MOL   C15817018   7.641   1.122   0.294 -0.4074  0.5919  0.1046
   31MOL   O15917019   7.710   0.822   0.078  0.6772  0.3841  0.5067
   31MOL   H16017020   7.481   0.856   0.160  1.9433  0.8235 -2.9688
   31MOL   H16117021   7.288   0.962   0.271  1.0443 -2.1738  1.5124
   31MOL   H16217022   7.178   1.189   0.240  1.1474 -2.5911  1.2805
   31MOL   H16317023   6.986   1.288   0.176 -1.0990  0.2806  0.6906
   31MOL   H16417024   6.759   1.381   0.235  0.9807  1.7727 -0.0063
   31MOL   H16517025   6.657   1.410   0.590 -1.1845  0.8572 -0.3174
   31MOL   H16617026   6.848   1.332   0.653 -0.3844  1.6922  0.0514
   31MOL   H16717027   7.082   1.255   0.588  0.2887  1.4964 -1.2909
   31MOL   H16817028   7.547   1.266   0.435 -0.3816 -0.4544  1.4475
   31MOL   H16917029   7.739   1.164   0.311 -0.2030 -0.2245  1.0208
   31MOL   C17017030   6.574   1.486   0.422  0.3625 -0.4826 -0.3342
   31MOL   C17117031   6.478   1.565   0.506  0.0341  0.1940  0.3169
   31MOL   C17217032   6.515   1.691   0.552  0.4188  0.0252  0.2880
   31MOL   C17317033   6.416   1.776   0.604  0.1172  0.2196 -0.4809
   31MOL   C17417034   6.294   1.727   0.635 -0.0974 -0.5325  0.4624
   31MOL   C17517035   6.203   1.814   0.720 -0.2178  0.0084 -0.1767
   31MOL   N17617036   6.072   1.799   0.705  0.4542 -0.0110 -0.2465
   31MOL   C17717037   5.969   1.851   0.788  0.2433 -0.3441  0.4950
   31MOL   C17817038   5.881   1.761   0.849  0.1514  0.0829  0.5179
   31MOL   C17917039   5.787   1.807   0.948 -0.7027 -0.2506 -0.3939
   31MOL   C18017040   5.789   1.949   0.982 -0.0116 -0.3305  0.0813
   31MOL   N18117041   5.720   2.004   1.093  0.0243 -0.1284 -0.1697
   31MOL   C18217042   5.876   2.039   0.908 -0.0462 -0.1034  0.2042
   31MOL   C18317043   5.968   1.990   0.813 -0.2184  0.1311  0.5442
   31MOL   O18417044   6.245   1.882   0.814  0.2314 -0.1781 -0.2388
   31MOL   C18517045   6.263   1.595   0.610 -1.2472 -0.8203 -0.3436
   31MOL   C18617046   6.355   1.510   0.544 -0.5466  0.7695  0.3322
   31MOL   O18717047   6.583   1.519   0.301  0.1007  0.3969 -0.2138
   31MOL   H18817048   6.603   1.737   0.511  0.6961 -0.3750  0.4295
   31MOL   H18917049   6.448   1.877   0.623  0.5516 -0.2061  1.1509
   31MOL   H19017050   6.047   1.735   0.631 -1.0991  0.0839  0.1862
   31MOL   H19117051   5.883   1.658   0.817  0.3243  0.6914 -1.5079
   31MOL   H19217052   5.724   1.735   1.000 -2.1372  1.3602  0.1637
   31MOL   H19317053   5.755   2.095   1.120  0.3583 -0.2268 -0.2712
   31MOL   H19417054   5.883   2.144   0.932  0.8420  0.2519 -1.5362
   31MOL   H19517055   6.039   2.062   0.776  0.0964 -1.3143 -1.7264
   31MOL   H19617056   6.175   1.545   0.648 -0.5524 -1.5406  0.3297
   31MOL   H19717057   6.335   1.408   0.515  0.4517  0.0911  1.9985
   31MOL   C19817058   5.651   1.941   1.188  0.2015 -0.9488  0.1070
   31MOL   C19917059   5.630   2.018   1.316 -0.3585  0.5874  0.0597
   31MOL   C20017060   5.715   2.117   1.364 -0.5269  0.3613 -0.3172
   31MOL   C20117061   5.681   2.180   1.485 -0.1872  0.4339  0.1217
   31MOL   C20217062   5.573   2.143   1.564  0.4263  0.0639 -0.1801
   31MOL   C20317063   5.557   2.193   1.706  0.2260  0.3954 -0.1683
   31MOL   N20417064   5.434   2.224   1.754 -0.5999 -0.3608 -0.1124
   31MOL   C20517065   5.325   2.281   1.685 -0.2132  0.4009  0.1940
   31MOL   C20617066   5.196   2.266   1.735 -0.2219 -0.0496 -0.0310
   31MOL   C20717067   5.085   2.326   1.672  0.5725 -0.0037  0.0492
   31MOL   C20817068   5.105   2.402   1.559 -0.2034  0.0037  0.2000
   31MOL   N20917069   4.996   2.447   1.485 -0.1880  0.4972 -0.1157
   31MOL   C21017070   5.236   2.418   1.508  0.3383  0.2622  0.1005
   31MOL   C21117071   5.346   2.356   1.563  0.0285  0.0097  0.2428
   31MOL   O21217072   5.657   2.216   1.766 -0.0116 -0.3902  0.1020
   31MOL   C21317073   5.484   2.050   1.506 -0.4821 -0.0288  1.2508
   31MOL   C21417074   5.510   1.990   1.386  0.1872 -1.1539 -0.1808
   31MOL   O21517075   5.585   1.844   1.155  0.4422 -0.6836  0.2926
   31MOL   H21617076   5.810   2.138   1.316  0.0405  0.0784  0.6810
   31MOL   H21717077   5.744   2.247   1.542 -1.3306  0.9361  0.8072
   31MOL   H21817078   5.427   2.229   1.854  1.5108  0.4927  0.0139
   31MOL   H21917079   5.177   2.205   1.822 -0.6950  1.0908  0.6775
   31MOL   H22017080   4.988   2.301   1.712 -0.5749  0.4619 -2.3189
   31MOL   H22117081   4.909   2.396   1.493  2.8783 -5.0280 -0.0342
   31MOL   H22217082   5.256   2.483   1.424 -0.6946  1.5404  0.8291
   31MOL   H22317083   5.438   2.356   1.506 -0.3646 -2.9447 -0.4819
   31MOL   H22417084   5.404   2.026   1.574 -0.0186 -1.2450  1.3827
   31MOL   H22517085   5.433   1.927   1.344 -1.5963 -1.4351  3.2605
   31MOL   C22617086   4.999   2.555   1.399 -0.1947  0.1209  0.0574
   31MOL   C22717087   4.884   2.577   1.306  0.2046 -0.0046 -0.2235
   31MOL   C22817088   4.824   2.469   1.236  0.5350 -0.8059  0.0625
   31MOL   C22917089   4.717   2.487   1.147  0.1901  0.2717  0.4957
   31MOL   C23017090   4.684   2.624   1.111 -0.6026 -0.2221  0.0697
   31MOL   C23117091   4.593   2.653   0.999  0.3217 -0.5427 -0.0996
   31MOL   N23217092   4.640   2.614   0.879  0.3143  0.0213 -0.2823
   31MOL   C23317093   4.588   2.619   0.753 -0.1499 -0.3261 -0.2468
   31MOL   C23417094   4.685   2.629   0.650 -0.0782  0.0578  0.3678
   31MOL   C23517095   4.639   2.663   0.527 -0.5946 -0.4017 -0.0892
   31MOL   C23617096   4.503   2.654   0.490 -0.1290  0.2362  0.2916
   31MOL   N23717097   4.462   2.652   0.352 -0.2856 -0.1247 -1.1296
   31MOL   C23817098   4.408   2.625   0.586  0.6796 -0.1851 -0.0546
   31MOL   C23917099   4.451   2.616   0.719  0.0803 -0.2335  0.1967
   31MOL   O24017100   4.476   2.697   1.025  0.2387  0.8711 -0.0073
   31MOL   C24117101   4.744   2.728   1.181  0.1284  0.3637 -0.4774
   31MOL   C24217102   4.844   2.709   1.275 -0.3509 -0.5078 -0.0735
   31MOL   O24317103   5.084   2.645   1.412  0.1949  0.5020 -0.3053
   31MOL   H24417104   4.849   2.366   1.258  0.9315 -0.6920  0.1441
   31MOL   H24517105   4.677   2.404   1.090  2.1450 -0.7703  0.5983
   31MOL   H24617106   4.732   2.571   0.886  0.9018  1.3122 -0.0449
   31MOL   H24717107   4.790   2.643   0.670  0.1993 -2.0981  0.4639
   31MOL   H24817108   4.715   2.686   0.454 -0.2955 -1.5799 -0.1531
   31MOL   H24917109   4.372   2.609   0.336  0.1922 -1.5222 -0.0876
   31MOL   H25017110   4.304   2.636   0.559  0.9659  1.0781 -0.7110
   31MOL   H25117111   4.372   2.608   0.792  0.9746  1.1919  1.3478
   31MOL   H25217112   4.725   2.832   1.158  2.3577  0.9819  0.3372
   31MOL   H25317113   4.891   2.788   1.332  1.2234 -0.6611 -1.1412
   31MOL   C25417114   4.532   2.673   0.239  0.8774 -0.0944 -0.8971
   31MOL   C25517115   4.445   2.661   0.115 -0.0472  0.7714 -0.3909
   31MOL   C25617116   4.448   2.751   0.016  0.3564 -0.2599  0.6146
   31MOL   C25717117   4.363   2.742   8.048  0.2416 -0.0931 -0.1324
   31MOL   C25817118   4.280   2.630   8.029 -0.5809  0.5378 -0.0756
   31MOL   C25917119   4.197   2.613   7.910  0.0293  0.1531  0.3452
   31MOL   N26017120   4.263   2.644   7.800 -0.2797 -0.0056 -0.2975
   31MOL   C26117121   4.215   2.643   7.666  0.3315  0.6067 -0.3144
   31MOL   C26217122   4.079   2.632   7.630 -0.3485 -0.1258  0.2369
   31MOL   C26317123   4.032   2.657   7.501  0.3851 -0.2726 -0.5176
   31MOL   C26417124   4.132   2.689   7.400  0.1872  0.4707 -0.3340
   31MOL   N26517125   4.101   2.727   7.271  0.6331 -0.7715  0.0436
   31MOL   C26617126   4.269   2.688   7.436  0.6097 -0.2387  0.5140
   31MOL   C26717127   4.306   2.666   7.567  0.0603  0.7950  0.3745
   31MOL   O26817128   4.095   2.551   7.916 -0.4537  0.3603 -0.0627
   31MOL   C26917129   4.281   2.524   8.127 -0.7233 -0.1977 -1.0305
   31MOL   C27017130   4.364   2.546   0.097 -0.0072 -0.1808 -0.6731
   31MOL   O27117131   4.647   2.714   0.234 -0.0433  0.3943  0.0182
   31MOL   H27217132   4.501   2.845   0.024  1.1896 -0.5762 -1.0656
   31MOL   H27317133   4.369   2.829   7.985 -2.7877 -1.4477 -2.4424
   31MOL   H27417134   4.353   2.682   7.825 -1.9166  3.0627  1.2899
   31MOL   H27517135   4.001   2.623   7.704 -0.6249 -1.9569 -0.2632
   31MOL   H27617136   3.928   2.675   7.476  0.0258 -1.3784  0.1317
   31MOL   H27717137   4.175   2.730   7.202 -0.2511 -3.3264 -1.1027
   31MOL   H27817138   4.345   2.710   7.363  0.2175 -1.1504 -0.1821
   31MOL   H27917139   4.413   2.666   7.579  0.2953 -3.6066 -0.8500
   31MOL   H28017140   4.228   2.431   8.114  0.0197 -0.7740 -0.0174
   31MOL   H28117141   4.376   2.466   0.168 -2.2587 -0.3789 -0.4813
   31MOL   C28217142   4.004   2.808   7.234  0.4337 -0.3602  0.5224
   31MOL   C28317143   4.052   2.915   7.141  0.5098 -0.8419 -0.2404
   31MOL   C28417144   4.184   2.973   7.137 -0.1172  0.0907 -0.6463
   31MOL   C28517145   4.208   3.075   7.047 -0.0213 -0.3510  0.0336
   31MOL   C28617146   4.106   3.135   6.969 -0.5645 -0.1657  0.3600
   31MOL   C28717147   4.135   3.244   6.865  0.5283  0.1935 -0.6764
   31MOL   N28817148   4.209   3.344   6.918 -0.8481 -0.0329  0.0693
   31MOL   C28917149   4.247   3.467   6.855 -0.0020 -0.7337  0.2451
   31MOL   C29017150   4.325   3.553   6.936 -0.5934 -0.3379 -0.2965
   31MOL   C29117151   4.365   3.682   6.893 -0.5063 -0.0519 -0.3819
   31MOL   C29217152   4.341   3.725   6.758 -0.2861 -0.1859  0.4347
   31MOL   N29317153   4.373   3.854   6.715 -1.1209 -0.9177  0.4444
   31MOL   C29417154   4.255   3.641   6.677  0.2250  0.3106  0.3874
   31MOL   C29517155   4.223   3.508   6.718 -0.2538  0.2377  0.1389
   31MOL   O29617156   4.084   3.242   6.752 -0.2841  0.0623 -0.3452
   31MOL   C29717157   3.973   3.088   6.977 -0.1098 -0.4634  1.0244
   31MOL   C29817158   3.950   2.986   7.072 -0.2921 -0.2323  0.0987
   31MOL   O29917159   3.889   2.799   7.278 -0.7060 -0.5495 -0.0345
   31MOL   H30017160   4.255   2.926   7.204  0.1044  1.4111  0.0672
   31MOL   H30117161   4.305   3.122   7.045  1.5517 -3.4639  0.8063
   31MOL   H30217162   4.235   3.331   7.015 -0.5319 -0.7077 -0.1080
   31MOL   H30317163   4.339   3.517   7.037  1.4350  0.2416 -0.3430
   31MOL   H30417164   4.426   3.739   6.961 -1.2719  2.2208 -1.5142
   31MOL   H30517165   4.322   3.893   6.637  0.6449  0.1930 -0.1780
   31MOL   H30617166   4.233   3.677   6.577  1.7807 -2.5106 -1.0318
   31MOL   H30717167   4.160   3.446   6.656 -1.6022  0.3910  1.3354
   31MOL   H30817168   3.893   3.136   6.924  0.7199  0.6191  0.7344
   31MOL   H30917169   3.848   2.957   7.094 -1.6085  3.2835 -1.0186
   31MOL   C31017170   4.457   3.941   6.768 -0.8540 -0.1195 -0.2501
   31MOL   C31117171   4.463   4.077   6.705 -1.0630 -0.2522  0.4158
   31MOL   C31217172   4.503   4.189   6.778  0.3960 -0.3265 -0.1949
   31MOL   C31317173   4.526   4.316   6.716 -0.4700  0.2714  0.2493
   31MOL   C31417174   4.505   4.324   6.574 -0.1994  0.1720 -0.4463
   31MOL   C31517175   4.521   4.457   6.499 -0.9135  0.2853 -0.3669
   31MOL   N31617176   4.483   4.455   6.368  0.3599  0.1306 -0.6317
   31MOL   C31717177   4.512   4.541   6.259  0.9108 -0.2209 -0.7622
   31MOL   C31817178   4.458   4.497   6.136 -0.4096 -0.5063 -0.4054
   31MOL   C31917179   4.480   4.566   6.013  0.1042 -0.6741 -0.1190
   31MOL   C32017180   4.583   4.670   6.021 -0.7274  0.7214 -0.7576
   31MOL   N32117181   4.607   4.736   5.900 -0.3043  0.1468 -0.2759
   31MOL   C32217182   4.633   4.714   6.145 -0.2698 -0.1190  0.0900
   31MOL   C32317183   4.598   4.653   6.265 -0.1931  0.2473 -0.0879
   31MOL   O32417184   4.567   4.557   6.563 -0.0908  0.4308  0.1120
   31MOL   C32517185   4.472   4.210   6.500  0.0405  0.2987 -0.0040
   31MOL   C32617186   4.454   4.091   6.563 -0.3420 -0.2624 -0.4777
   31MOL   O32717187   4.524   3.919   6.869  0.4058 -0.1002 -0.3999
   31MOL   H32817188   4.514   4.176   6.884 -2.2847  0.3816  0.1935
   31MOL   H32917189   4.555   4.402   6.774  1.5515 -0.0213 -0.2896
   31MOL   H33017190   4.432   4.369   6.353  0.6204  0.1821 -1.8438
   31MOL   H33117191   4.391   4.413   6.140  0.8252 -1.4876 -0.1315
   31MOL   H33217192   4.431   4.532   5.923  0.8804  0.3879 -0.9601
   31MOL   H33317193   4.541   4.732   5.824  0.7605  0.9923 -1.2590
   31MOL   H33417194   4.702   4.796   6.156  1.6137 -1.6902  0.2239
   31MOL   H33517195   4.650   4.678   6.356  1.7080 -3.2255 -0.1086
   31MOL   H33617196   4.464   4.228   6.394 -2.5882  2.0748  0.4556
   31MOL   H33717197   4.433   4.003   6.503 -1.4778 -0.0744 -0.3823
   31MOL   C33817198   4.727   4.789   5.870  0.6962  0.3021  0.1049
   31MOL   C33917199   4.728   4.832   5.728 -0.3309 -0.6513 -0.5014
   31MOL   C34017200   4.791   4.952   5.695 -0.1979  0.4443  0.5444
   31MOL   C34117201   4.797   4.991   5.560  0.3431  0.6221 -0.2722
   31MOL   C34217202   4.749   4.906   5.453 -1.0272 -0.0302  0.4351
   31MOL   C34317203   4.769   4.952   5.307 -0.5974 -0.9721  0.0752
   31MOL   N34417204   4.769   4.847   5.224 -0.0396 -0.1493  0.1736
   31MOL   C34517205   4.788   4.838   5.085 -0.4757  0.1509  0.1430
   31MOL   C34617206   4.785   4.948   5.001  0.0537  0.7553 -0.5310
   31MOL   C34717207   4.789   4.929   4.859  0.4495  0.6073  0.1669
   31MOL   C34817208   4.786   4.798   4.805 -0.1554  0.0438 -0.6255
   31MOL   N34917209   4.771   4.774   4.668  0.0629 -0.3414  0.3960
   31MOL   C35017210   4.783   4.687   4.896  0.1853  0.4409  0.0382
   31MOL   C35117211   4.784   4.706   5.037 -0.1027 -0.2166  0.3430
   31MOL   O35217212   4.761   5.078   5.284 -0.3022 -0.2610  0.6365
   31MOL   C35317213   4.700   4.779   5.488  0.4532  0.0404 -0.2667
   31MOL   C35417214   4.689   4.747   5.622  0.2988 -0.0230 -0.6566
   31MOL   O35517215   4.823   4.813   5.950 -0.1513 -0.0701 -0.2759
   31MOL   H35617216   4.818   5.017   5.777  0.7571  0.5582  0.1450
   31MOL   H35717217   4.835   5.090   5.537  3.8163 -0.6640 -0.3862
   31MOL   H35817218   4.763   4.756   5.269 -2.8415  0.0079  0.2248
   31MOL   H35917219   4.786   5.048   5.040  1.6586  0.6233 -0.2199
   31MOL   H36017220   4.787   5.010   4.788  1.9422 -1.5480 -2.4280
   31MOL   H36117221   4.704   4.836   4.624 -0.4667 -1.5043 -0.4834
   31MOL   H36217222   4.769   4.584   4.866  1.6311  1.0605 -2.9204
   31MOL   H36317223   4.767   4.621   5.101  0.6256  0.3431  1.2894
   31MOL   H36417224   4.635   4.720   5.424  0.1244 -1.6160  1.5663
   31MOL   H36517225   4.631   4.661   5.653 -0.3985  1.2067  1.5621
   31MOL   C36617226   4.848   4.687   4.604 -0.1027 -0.6091 -1.1497
   31MOL   C36717227   4.817   4.674   4.457  0.4094  0.4089  0.1371
   31MOL   C36817228   4.928   4.658   4.364  0.0103  0.1601 -0.1404
   31MOL   C36917229   4.905   4.651   4.223 -0.6877 -0.2175 -0.1084
   31MOL   C37017230   4.772   4.654   4.169 -0.1116  0.0288 -0.4692
   31MOL   C37117231   4.758   4.639   4.020  0.4357 -0.3405 -0.1554
   31MOL   N37217232   4.662   4.699   3.967  0.1238 -0.0467 -0.1568
   31MOL   C37317233   4.607   4.678   3.837 -0.0622  0.2005  0.0406
   31MOL   C37417234   4.522   4.768   3.780  0.0370 -0.1851  0.3077
   31MOL   C37517235   4.441   4.742   3.668 -0.6695  0.0246 -0.2116
   31MOL   C37617236   4.445   4.615   3.608  0.3216 -0.5667 -0.1730
   31MOL   N37717237   4.366   4.577   3.496 -0.4440  0.0534  0.3360
   31MOL   C37817238   4.548   4.533   3.656  0.1699  0.3025  0.2154
   31MOL   C37917239   4.612   4.550   3.777 -0.7406  0.3695  1.0199
   31MOL   O38017240   4.833   4.570   3.956  0.4392  0.4135  0.0697
   31MOL   C38117241   4.662   4.660   4.264 -0.1670  0.5077 -0.0481
   31MOL   C38217242   4.688   4.684   4.399  0.7615  1.0182 -0.0608
   31MOL   O38317243   4.946   4.627   4.656 -0.1172  0.1977 -0.1054
   31MOL   H38417244   5.022   4.637   4.412 -1.3021 -0.1006  2.4328
   31MOL   H38517245   4.991   4.630   4.161  0.8205  2.2108  1.0639
   31MOL   H38617246   4.609   4.762   4.025  0.9152  1.3600 -0.9518
   31MOL   H38717247   4.512   4.866   3.825 -0.3554  0.1652 -0.5403
   31MOL   H38817248   4.375   4.817   3.627  0.0803  0.6989 -0.1834
   31MOL   H38917249   4.383   4.480   3.474 -1.2161  0.1827 -0.8801
   31MOL   H39017250   4.570   4.442   3.602  0.5497  0.6243 -0.1708
   31MOL   H39117251   4.666   4.466   3.819  0.1117  1.5289  2.2361
   31MOL   H39217252   4.562   4.659   4.223  0.6123  0.4749 -1.9860
   31MOL   H39317253   4.605   4.707   4.463  0.7248  0.9558 -0.0856
   31MOL   C39417254   4.256   4.632   3.444  0.9617  0.2481 -0.3758
   31MOL   C39517255   4.161   4.535   3.392 -0.4492 -0.4042  0.2921
   31MOL   C39617256   4.188   4.399   3.371 -0.4365  0.1423  0.6609
   31MOL   C39717257   4.092   4.305   3.331 -0.1595  0.2363 -0.4376
   31MOL   C39817258   3.960   4.343   3.314  1.0502 -0.0402 -0.1453
   31MOL   C39917259   3.861   4.239   3.280  0.8420  1.1274 -0.0927
   31MOL   N40017260   3.743   4.242   3.351 -0.5742  0.5049 -0.1318
   31MOL   C40117261   3.704   4.326   3.458 -0.3739 -0.0233 -0.4159
   31MOL   C40217262   3.607   4.432   3.434  0.3796 -0.1653  1.1272
   31MOL   C40317263   3.561   4.512   3.547  0.7713  0.0115 -0.0058
   31MOL   C40417264   3.632   4.497   3.669  0.2300 -0.1421 -0.4766
   31MOL   N40517265   3.598   4.569   3.785 -0.2844 -1.0761  0.8304
   31MOL   C40617266   3.741   4.411   3.679 -1.0714  0.5137 -0.3096
   31MOL   C40717267   3.777   4.322   3.578 -0.3584  0.4840  0.3052
   31MOL   O40817268   3.892   4.153   3.204  0.0311 -0.0089 -0.1357
   31MOL   C40917269   3.925   4.481   3.321  0.6318 -0.1657 -0.3957
   31MOL   C41017270   4.027   4.573   3.354 -0.4036 -0.1558  0.3421
   31MOL   O41117271   4.239   4.753   3.449 -0.2740 -0.1521  0.8272
   31MOL   H41217272   4.285   4.359   3.396 -1.2122 -0.8054  2.2851
   31MOL   H41317273   4.121   4.203   3.310  1.0815  0.5332 -0.2038
   31MOL   H41417274   3.697   4.153   3.344 -0.1717  0.3576 -1.0579
   31MOL   H41517275   3.564   4.430   3.335 -0.3783  2.1745  1.3737
   31MOL   H41617276   3.477   4.578   3.530  1.0707  0.4650  0.2783
   31MOL   H41717277   3.647   4.542   3.869 -0.7200 -1.5713  0.9291
   31MOL   H41817278   3.783   4.396   3.777 -0.3703 -0.5045 -0.7580
   31MOL   H41917279   3.861   4.255   3.586  0.9559  1.9077 -0.9991
   31MOL   H42017280   3.826   4.511   3.288  0.5586 -0.7196 -0.6876
   31MOL   H42117281   3.997   4.677   3.358  1.1339  0.4104 -1.8677
   31MOL   C42217282   3.492   4.651   3.807 -0.3115  0.0793 -0.3985
   31MOL   C42317283   3.469   4.697   3.948 -0.5719 -0.2169 -0.1244
   31MOL   C42417284   3.345   4.710   4.005 -0.1199 -0.2827 -0.4309
   31MOL   C42517285   3.338   4.724   4.148 -0.6076  0.2155  0.0803
   31MOL   C42617286   3.453   4.747   4.226  0.3984 -0.2142  0.5632
   31MOL   C42717287   3.444   4.744   4.377 -0.6541  0.5543 -0.2014
   31MOL   N42817288   3.551   4.686   4.439 -0.5076 -0.4549 -0.5746
   31MOL   C42917289   3.560   4.635   4.575 -0.0134 -0.1937  0.7091
   31MOL   C43017290   3.446   4.584   4.647  0.3935  0.7287  0.3164
   31MOL   C43117291   3.465   4.551   4.783 -0.3324  0.6649 -0.7101
   31MOL   C43217292   3.593   4.546   4.843 -0.1549 -0.0966  0.2337
   31MOL   N43317293   3.614   4.495   4.975 -0.2498 -0.2362  0.1245
   31MOL   C43417294   3.707   4.576   4.767 -0.2233 -0.5961  1.0785
   31MOL   C43517295   3.687   4.623   4.633 -0.2308  0.2910  0.4403
   31MOL   O43617296   3.342   4.776   4.440  0.6751  0.1952 -0.0569
   31MOL   C43717297   3.576   4.762   4.162 -0.0788 -0.4717 -0.1012
   31MOL   C43817298   3.583   4.742   4.020 -0.0759 -0.2003 -0.6341
   31MOL   O43917299   3.421   4.685   3.718  0.2579  0.1691  0.1879
   31MOL   H44017300   3.256   4.683   3.950  0.0300 -0.3203 -0.6561
   31MOL   H44117301   3.244   4.701   4.196 -0.0078 -1.3537  0.5242
   31MOL   H44217302   3.625   4.647   4.381  0.3610 -0.5530  0.5934
   31MOL   H44317303   3.351   4.575   4.598  0.6430  0.6096 -0.1477
   31MOL   H44417304   3.379   4.525   4.843  1.3455 -1.8030  0.6746
   31MOL   H44517305   3.530   4.450   5.008 -1.1032  1.5372  0.4288
   31MOL   H44617306   3.808   4.565   4.803 -1.0223 -3.5752  2.5481
   31MOL   H44717307   3.774   4.660   4.582  0.3156  1.5911  2.2386
   31MOL   H44817308   3.662   4.782   4.224  0.4109 -1.3434 -0.4882
   31MOL   H44917309   3.683   4.752   3.981 -0.2358  3.2456 -0.2561
   31MOL   C45017310   3.717   4.504   5.061 -0.3880 -0.7237 -0.1630
   31MOL   C45117311   3.719   4.414   5.175  0.1637  0.0184  0.6791
   31MOL   C45217312   3.650   4.291   5.164 -0.1069  0.5252 -1.0391
   31MOL   C45317313   3.646   4.207   5.280  0.4604 -0.6214 -0.0048
   31MOL   C45417314   3.708   4.250   5.401 -0.8963 -0.0694 -0.5932
   31MOL   C45517315   3.705   4.155   5.521 -0.5598 -0.4816 -0.3765
   31MOL   N45617316   3.690   4.221   5.639  0.3374  0.2400  0.3088
   31MOL   C45717317   3.664   4.166   5.770  0.2957 -0.3204  0.6373
   31MOL   C45817318   3.594   4.247   5.865  0.9594  0.1530 -0.4112
   31MOL   C45917319   3.545   4.188   5.985  0.5935 -0.0510 -0.0488
   31MOL   C46017320   3.587   4.053   6.020  0.4310  0.5097 -0.3230
   31MOL   N46117321   3.527   3.976   6.128 -0.3630 -0.1264  0.3356
   31MOL   C46217322   3.667   3.979   5.930 -0.0250  0.2344  0.1283
   31MOL   C46317323   3.689   4.031   5.802  0.3615  0.0851 -0.5801
   31MOL   O46417324   3.720   4.035   5.504  0.2683 -0.4687 -0.4405
   31MOL   C46517325   3.774   4.376   5.411  0.0510  1.2780  0.6298
   31MOL   C46617326   3.775   4.456   5.298  0.0997 -0.0801 -0.4474
   31MOL   O46717327   3.817   4.579   5.049  0.5358 -0.3933  0.4329
   31MOL   H46817328   3.612   4.240   5.077 -3.1612  0.6623  0.1407
   31MOL   H46917329   3.596   4.111   5.273 -1.1816  0.0258  2.0586
   31MOL   H47017330   3.671   4.320   5.635  0.7342  0.3368  0.8709
   31MOL   H47117331   3.568   4.349   5.845 -2.5972 -0.9578 -1.9162
   31MOL   H47217332   3.497   4.252   6.058  1.4476  0.6619 -0.1018
   31MOL   H47317333   3.563   3.883   6.147 -3.7314 -1.4141  0.6544
   31MOL   H47417334   3.693   3.875   5.946 -0.4329  0.0323 -0.4636
   31MOL   H47517335   3.744   3.962   5.739  2.1560 -0.2558  1.3188
   31MOL   H47617336   3.825   4.395   5.504  0.1592 -2.2736  1.3781
   31MOL   H47717337   3.820   4.553   5.311  1.4148 -0.6228 -0.9207
   31MOL   C47817338   3.434   4.009   6.215  0.5227 -0.5986 -0.1528
   31MOL   C47917339   3.404   3.896   6.317 -0.0860 -0.1319  0.0316
   31MOL   C48017340   3.475   3.771   6.321  0.2721  0.1239  0.0995
   31MOL   C48117341   3.425   3.669   6.401 -0.1670 -0.0277  0.4903
   31MOL   C48217342   3.308   3.675   6.484  1.0485 -0.6750 -0.4554
   31MOL   C48317343   3.266   3.554   6.562 -0.3701 -0.0201 -0.3403
   31MOL   N48417344   3.206   3.572   6.683  0.3615  0.4115  0.2317
   31MOL   C48517345   3.164   3.468   6.777  0.0765 -0.2408 -0.2578
   31MOL   C48617346   3.067   3.509   6.868 -0.3866 -0.5190 -0.2187
   31MOL   C48717347   3.004   3.416   6.950  0.5548 -0.3546 -0.0162
   31MOL   C48817348   3.029   3.277   6.930 -0.1627  0.3522  0.3117
   31MOL   N48917349   2.964   3.181   7.007  0.6292  0.0692 -0.1900
   31MOL   C49017350   3.134   3.238   6.846  0.8637 -0.0350  0.9158
   31MOL   C49117351   3.208   3.334   6.777  0.5153  0.1580  1.0928
   31MOL   O49217352   3.292   3.438   6.526  0.2965 -1.0224 -0.1180
   31MOL   C49317353   3.232   3.792   6.476  0.4251 -0.4516  0.2278
   31MOL   C49417354   3.279   3.901   6.394  0.3237 -0.4672  0.0458
   31MOL   O49517355   3.365   4.112   6.217 -0.5418  0.3226  0.1504
   31MOL   H49617356   3.566   3.750   6.267 -0.2150 -1.6342 -0.0940
   31MOL   H49717357   3.473   3.572   6.402  0.7379  0.3400 -2.0590
   31MOL   H49817358   3.183   3.668   6.705  1.3105  0.2022  2.2470
   31MOL   H49917359   3.032   3.611   6.875  0.9602 -0.1866  1.8592
   31MOL   H50017360   2.933   3.446   7.025  2.2737 -1.7937  2.2380
   31MOL   H50117361   3.027   3.107   7.035 -1.1173 -0.7823  1.6191
   31MOL   H50217362   3.152   3.132   6.840 -3.4560 -0.6602 -4.0694
   31MOL   H50317363   3.282   3.300   6.706 -1.7391 -0.5162 -0.9979
   31MOL   H50417364   3.141   3.800   6.534 -0.7236 -0.1190 -1.6005
   31MOL   H50517365   3.214   3.986   6.376 -0.4548 -1.1334 -0.3416
   31MOL   C50617366   2.831   3.163   7.008 -0.0422 -0.3359  0.3438
   31MOL   C50717367   2.788   3.023   7.039  0.1118 -0.0552  0.4587
   31MOL   C50817368   2.864   2.912   7.000  0.2175  1.0772  0.1098
   31MOL   C50917369   2.816   2.781   7.022  0.0173 -0.0372  0.0426
   31MOL   C51017370   2.698   2.758   7.095 -0.1142  0.6200  0.7107
   31MOL   C51117371   2.653   2.618   7.119  0.1907 -0.2486 -0.2828
   31MOL   N51217372   2.522   2.609   7.091 -0.0052  0.0965 -0.0174
   31MOL   C51317373   2.435   2.492   7.089  0.1329 -0.0701  0.8415
   31MOL   C51417374   2.464   2.374   7.166 -0.5482 -0.0720 -1.2423
   31MOL   C51517375   2.390   2.259   7.163 -0.0525 -0.1914 -0.0712
   31MOL   C51617376   2.282   2.246   7.067 -0.0894  0.0405  0.8875
   31MOL   N51717377   2.200   2.130   7.054  0.0210  0.2474  0.2253
   31MOL   C51817378   2.252   2.361   6.989 -0.6504 -0.4738 -0.5661
   31MOL   C51917379   2.325   2.479   6.999 -0.0758 -0.5435  0.6806
   31MOL   O52017380   2.735   2.525   7.130  0.3242 -0.5087  0.1236
   31MOL   C52117381   2.626   2.870   7.136 -0.1819  0.0541 -0.6111
   31MOL   C52217382   2.667   3.000   7.102  0.0277  0.3342 -0.8539
   31MOL   O52317383   2.750   3.254   7.013  0.1414 -0.4189 -0.0724
   31MOL   H52417384   2.959   2.919   6.948  0.0638 -0.0541 -0.3536
   31MOL   H52517385   2.872   2.703   6.973 -0.8708  0.1352 -1.2720
   31MOL   H52617386   2.478   2.679   7.032  1.6040 -0.9204 -2.5377
   31MOL   H52717387   2.548   2.374   7.233 -1.2582  2.0264 -0.3201
   31MOL   H52817388   2.434   2.177   7.219  1.7227  0.8953  0.1764
   31MOL   H52917389   2.136   2.124   6.976  0.7246  0.4510 -0.3714
   31MOL   H53017390   2.169   2.362   6.920 -2.3574  0.3335  1.4573
   31MOL   H53117391   2.292   2.559   6.934  0.3743  0.3668  1.5524
   31MOL   H53217392   2.537   2.861   7.197  2.4989  0.9695  3.6072
   31MOL   H53317393   2.624   3.088   7.149 -0.9395 -0.8458  0.4841
   31MOL   C53417394   2.196   2.014   7.122  0.1809 -0.4832  0.2527
   31MOL   C53517395   2.096   1.919   7.065 -0.2884 -0.0802 -0.9679
   31MOL   C53617396   1.984   1.960   6.989 -0.0421 -0.2279 -0.4171
   31MOL   C53717397   1.893   1.876   6.924 -0.5868 -0.1734  0.0295
   31MOL   C53817398   1.914   1.737   6.932  0.2330 -0.2408 -0.0295
   31MOL   C53917399   1.824   1.645   6.862  0.1622  0.4558  0.3705
   31MOL   N54017400   1.790   1.535   6.927 -0.3632 -0.4197 -0.5103
   31MOL   C54117401   1.703   1.431   6.879 -0.8068  0.5675  0.2044
   31MOL   C54217402   1.603   1.386   6.970  0.0556 -0.4074  0.4765
   31MOL   C54317403   1.507   1.292   6.931  0.4131  0.2429  0.0650
   31MOL   C54417404   1.518   1.229   6.804 -0.1456 -0.1943 -0.5487
   31MOL   N54517405   1.425   1.129   6.782  0.2825 -0.0555 -0.2901
   31MOL   C54617406   1.617   1.268   6.714 -0.5092 -0.1023  0.1367
   31MOL   C54717407   1.704   1.369   6.748  0.2499 -0.8313  0.4715
   31MOL   O54817408   1.778   1.674   6.747  0.1369  0.6714  0.3830
   31MOL   C54917409   2.027   1.686   7.005  0.4228 -0.6325  0.8200
   31MOL   C55017410   2.110   1.779   7.076 -0.0745 -0.8340 -0.5242
   31MOL   O55117411   2.262   1.992   7.226  0.6262  0.1585  0.4276
   31MOL   H55217412   1.965   2.065   6.970  1.2973 -0.0198 -0.6641
   31MOL   H55317413   1.816   1.917   6.861 -2.0994 -1.5272  0.9568
   31MOL   H55417414   1.817   1.517   7.023 -0.8619 -2.1095 -0.6829
   31MOL   H55517415   1.588   1.430   7.068 -2.4102  0.3386 -0.1961
   31MOL   H55617416   1.429   1.260   6.998  1.6393  1.3575  2.0785
   31MOL   H55717417   1.462   1.057   6.721  1.5313 -0.6129  1.1020
   31MOL   H55817418   1.630   1.223   6.617 -2.2575 -1.4358  0.4933
   31MOL   H55917419   1.780   1.402   6.679  0.1803 -0.9565  0.3353
   31MOL   H56017420   2.061   1.585   6.992  2.5870  0.1648  0.0764
   31MOL   H56117421   2.201   1.739   7.119 -0.5662 -0.0109  1.3290
   31MOL   H56217422   1.389   1.083   6.864  1.3468  0.6705  0.5946
   32MOL     C117423   4.409   4.898   0.830  0.5026  0.1978  0.0090
   32MOL     C217424   4.430   5.031   0.892  0.3672 -0.2796 -0.7616
   32MOL     C317425   4.430   5.147   0.810  0.5730  0.3858 -0.3135
   32MOL     C417426   4.443   5.273   0.875  0.5498  0.1103 -0.6050
   32MOL     C517427   4.468   5.287   1.010  0.0010  0.7288  0.1102
   32MOL     C617428   4.466   5.419   1.076 -0.2892 -0.0319 -0.1589
   32MOL     N717429   4.561   5.439   1.172  0.6450 -0.6614  0.0832
   32MOL     C817430   4.566   5.543   1.263 -0.6873 -0.6844  0.6601
   32MOL     C917431   4.623   5.520   1.386 -0.0918  0.3929 -0.7124
   32MOL    C1017432   4.644   5.616   1.482  0.4591  0.1634  0.5184
   32MOL    C1117433   4.601   5.753   1.453 -0.6676  0.1614 -0.0402
   32MOL    N1217434   4.620   5.864   1.542  0.5211 -0.5398  0.1493
   32MOL    C1317435   4.535   5.777   1.330 -0.1985  0.6208 -0.8884
   32MOL    C1417436   4.527   5.678   1.233  0.1710 -0.4503  0.4708
   32MOL    O1517437   4.376   5.496   1.050  0.3684  0.3492 -0.4783
   32MOL    C1617438   4.489   5.169   1.090 -0.0865 -0.0947  0.1580
   32MOL    C1717439   4.465   5.043   1.030 -0.7835 -0.3818 -0.3084
   32MOL    O1817440   4.381   4.894   0.711  0.2259 -0.2471  0.0849
   32MOL    H1917441   4.412   5.138   0.704 -0.4180  1.0330 -0.2123
   32MOL    H2017442   4.420   5.366   0.825  2.8720  1.5312  0.8524
   32MOL    H2117443   4.618   5.358   1.191  2.0586  0.1885 -0.5232
   32MOL    H2217444   4.647   5.418   1.411  0.8344  1.0126  0.9665
   32MOL    H2317445   4.694   5.600   1.576 -0.8271  0.5161  1.2642
   32MOL    H2417446   4.571   5.950   1.520 -0.5939 -0.8978  1.1890
   32MOL    H2517447   4.477   5.867   1.318  1.8193  2.0735 -0.0331
   32MOL    H2617448   4.455   5.703   1.156  0.7243  2.6453  0.9012
   32MOL    H2717449   4.517   5.172   1.195 -1.3859  0.9348  0.4764
   32MOL    H2817450   4.468   4.960   1.098  0.0799 -0.9064 -0.9681
   32MOL    H2917451   4.421   4.821   0.906 -1.1780 -0.4571 -0.3865
   32MOL    C3017452   4.704   5.871   1.647 -0.0179 -0.2348 -0.6393
   32MOL    C3117453   4.712   6.003   1.722  0.7085  0.2862 -0.1353
   32MOL    C3217454   4.684   6.129   1.657  0.0200  0.3308 -0.2928
   32MOL    C3317455   4.704   6.250   1.730  0.2035  0.1678 -0.6065
   32MOL    C3417456   4.762   6.246   1.861 -0.5292 -0.1117 -0.2814
   32MOL    C3517457   4.793   6.366   1.940 -0.3427 -0.1839 -0.0505
   32MOL    N3617458   4.848   6.464   1.862 -0.3369  0.2836 -0.6936
   32MOL    C3717459   4.898   6.589   1.906 -0.2671  0.2658  0.2403
   32MOL    C3817460   4.929   6.681   1.809  0.5756 -0.0393  0.1923
   32MOL    C3917461   4.953   6.816   1.843 -0.3051 -1.1194  0.1665
   32MOL    C4017462   4.946   6.866   1.976  0.0651  0.1852 -0.0365
   32MOL    N4117463   4.961   7.004   2.007 -0.7552  0.5868 -0.5544
   32MOL    C4217464   4.934   6.764   2.077 -0.5815 -0.0838 -0.3348
   32MOL    C4317465   4.918   6.629   2.042 -0.5410  0.4244  0.8504
   32MOL    O4417466   4.794   6.364   2.061 -0.2213 -0.2728 -0.0924
   32MOL    C4517467   4.772   6.120   1.926 -0.2157  0.2901 -0.3485
   32MOL    C4617468   4.742   6.000   1.861 -0.4153 -0.2074  0.4379
   32MOL    O4717469   4.770   5.779   1.699 -0.2650 -0.1504  0.7833
   32MOL    H4817470   4.657   6.136   1.553 -0.7360  1.3961 -0.0301
   32MOL    H4917471   4.690   6.349   1.689  1.5075 -0.1979 -1.9777
   32MOL    H5017472   4.848   6.442   1.763  0.3599 -3.8432  0.1014
   32MOL    H5117473   4.926   6.666   1.702 -2.6053  0.2936  0.1864
   32MOL    H5217474   4.966   6.887   1.763 -0.0453 -1.0888  0.2356
   32MOL    H5317475   4.973   7.064   1.926 -1.1623 -1.3855 -2.1018
   32MOL    H5417476   4.938   6.792   2.181  0.4838  1.5711 -0.7857
   32MOL    H5517477   4.929   6.549   2.113 -0.6146 -1.0641 -0.7614
   32MOL    H5617478   4.783   6.104   2.032 -3.9122  1.2597  0.2490
   32MOL    H5717479   4.755   5.905   1.911  0.5590 -0.0715  0.4420
   32MOL    C5817480   4.932   7.077   2.113  0.0958 -0.1332  0.3974
   32MOL    C5917481   4.922   7.226   2.099  0.6339  0.2909  0.7170
   32MOL    C6017482   5.031   7.311   2.136  0.5355 -0.0031 -0.0768
   32MOL    C6117483   5.021   7.446   2.121 -0.0954 -0.5798  0.7224
   32MOL    C6217484   4.902   7.501   2.069  0.0593  0.6368  0.1519
   32MOL    C6317485   4.885   7.649   2.043  0.2072 -0.1117 -0.3683
   32MOL    N6417486   4.765   7.697   2.068  0.3016  0.3936 -0.2769
   32MOL    C6517487   4.746   7.834   2.091  0.8129  0.3928 -0.0363
   32MOL    C6617488   4.809   7.900   2.203  0.7335 -1.0674 -0.5113
   32MOL    C6717489   4.787   8.038   2.225 -0.2181 -0.0478 -0.5013
   32MOL    C6817490   4.709   8.111   2.130  0.1161 -0.2155  0.1821
   32MOL    N6917491   4.711   0.106   2.125 -0.1037  0.6907 -0.5548
   32MOL    C7017492   4.640   8.046   2.023  0.2517 -0.2997 -0.1684
   32MOL    C7117493   4.651   7.909   2.008  0.5289 -0.1667  0.3799
   32MOL    O7217494   4.984   7.719   1.998  0.4099  0.6232 -0.1096
   32MOL    C7317495   4.790   7.416   2.039 -0.0773 -0.6109  0.1823
   32MOL    C7417496   4.798   7.276   2.058  0.0364 -0.2756 -0.3737
   32MOL    O7517497   4.912   7.026   2.224 -0.2788  0.2053  0.0281
   32MOL    H7617498   5.125   7.268   2.167  0.3442  0.0779  0.6241
   32MOL    H7717499   5.107   7.501   2.157 -1.0350  1.1250  0.4039
   32MOL    H7817500   4.692   7.630   2.088 -0.5991  1.2462 -0.6934
   32MOL    H7917501   4.880   7.848   2.267  1.4428  0.4827 -0.0234
   32MOL    H8017502   4.851   8.079   2.302  1.3904 -1.1489 -1.2255
   32MOL    H8117503   4.669   0.135   2.038 -0.7298 -1.2541 -0.9248
   32MOL    H8217504   4.567   8.089   1.956  1.0740  0.7112 -0.4193
   32MOL    H8317505   4.592   7.856   1.935 -0.9095 -0.7255  1.9270
   32MOL    H8417506   4.705   7.468   1.999 -0.0104 -0.3079  0.4299
   32MOL    H8517507   4.714   7.214   2.032  0.4323 -0.8476 -0.2913
   32MOL    C8617508   4.775   0.189   2.205 -0.9897  0.4555 -0.3141
   32MOL    C8717509   4.816   0.320   2.153 -0.0025 -0.9371  0.6341
   32MOL    C8817510   4.878   0.418   2.237 -0.3430 -0.0002 -0.3478
   32MOL    C8917511   4.956   0.517   2.181 -0.0579 -0.2879  0.5085
   32MOL    C9017512   4.953   0.548   2.047 -0.6787  0.2150  0.6340
   32MOL    C9117513   5.049   0.653   1.994 -0.2445  0.3467  0.3230
   32MOL    N9217514   5.027   0.712   1.878 -0.2856  0.3256 -0.0533
   32MOL    C9317515   5.116   0.788   1.798  0.3375 -0.4367 -0.0968
   32MOL    C9417516   5.073   0.893   1.714 -0.2867  0.0545 -0.4830
   32MOL    C9517517   5.165   0.959   1.627 -0.2903  0.1674 -0.9001
   32MOL    C9617518   5.295   0.914   1.613  0.1864  0.8974  0.1774
   32MOL    N9717519   5.392   0.977   1.532  0.3203 -0.4191  0.1076
   32MOL    C9817520   5.335   0.808   1.701  0.0781 -0.5793  0.7905
   32MOL    C9917521   5.251   0.741   1.785 -0.1566  0.1579 -0.0343
   32MOL   O10017522   5.138   0.698   2.065  0.0974 -0.9695 -0.7112
   32MOL   C10117523   4.884   0.463   1.958 -0.5169 -0.3156  0.4146
   32MOL   C10217524   4.825   0.349   2.013  1.4349  0.0224 -0.1767
   32MOL   O10317525   4.780   0.171   2.327 -0.2388  0.0249  0.1764
   32MOL   H10417526   4.879   0.399   2.344  2.9518  4.6405  0.5567
   32MOL   H10517527   5.006   0.583   2.251 -0.5472 -0.0907  0.6707
   32MOL   H10617528   4.931   0.706   1.847  0.0072 -2.3240 -0.5571
   32MOL   H10717529   4.975   0.938   1.718 -0.1785  0.1962  0.7422
   32MOL   H10817530   5.129   1.049   1.579 -1.6832  0.6347  0.9436
   32MOL   H10917531   5.488   0.963   1.559 -0.4346 -2.7892  1.7924
   32MOL   H11017532   5.433   0.767   1.677  0.0603  0.9912 -2.3385
   32MOL   H11117533   5.279   0.652   1.841 -2.5155 -0.1158  0.7655
   32MOL   H11217534   4.897   0.462   1.851  2.1945  0.8743  0.6971
   32MOL   H11317535   4.800   0.272   1.941  3.0635 -0.4610 -0.2312
   32MOL   C11417536   5.372   1.026   1.409 -0.3253  0.3160 -0.3480
   32MOL   C11517537   5.488   1.097   1.350  0.0408 -0.0634  0.3300
   32MOL   C11617538   5.548   1.201   1.426  0.5862 -0.1098 -0.3937
   32MOL   C11717539   5.660   1.271   1.376 -0.3792 -0.3044 -0.2168
   32MOL   C11817540   5.699   1.243   1.243  0.2172 -0.3012 -0.0736
   32MOL   C11917541   5.811   1.318   1.184  0.5926 -0.2178  0.5185
   32MOL   N12017542   5.899   1.236   1.133  0.3253 -0.3117  0.2931
   32MOL   C12117543   6.024   1.264   1.080 -0.3511  0.0780  0.2739
   32MOL   C12217544   6.064   1.388   1.026 -0.0880 -0.1675 -0.6147
   32MOL   C12317545   6.191   1.393   0.965 -0.0756 -0.4061 -0.3683
   32MOL   C12417546   6.284   1.285   0.963  0.5112 -0.4060  0.2755
   32MOL   N12517547   6.405   1.292   0.894 -0.0467  0.6003 -0.4359
   32MOL   C12617548   6.242   1.166   1.031 -1.0275 -0.1668 -0.2698
   32MOL   C12717549   6.118   1.158   1.096 -0.0204 -0.0214  0.8100
   32MOL   O12817550   5.822   1.440   1.196 -0.7803  0.1987  0.2942
   32MOL   C12917551   5.632   1.149   1.163  0.8506 -0.3420  0.4489
   32MOL   C13017552   5.524   1.079   1.219 -0.6765  0.1344  0.5246
   32MOL   O13117553   5.267   1.005   1.347  0.3532  0.0332  0.0087
   32MOL   H13217554   5.505   1.231   1.521 -0.4219 -0.5877 -0.6879
   32MOL   H13317555   5.706   1.346   1.439 -1.7130 -1.6266  2.4220
   32MOL   H13417556   5.875   1.139   1.146 -1.4590  0.1237  0.4085
   32MOL   H13517557   6.005   1.477   1.008 -1.0615  0.0885  3.3679
   32MOL   H13617558   6.212   1.490   0.922  0.4108 -1.1688 -1.9050
   32MOL   H13717559   6.441   1.205   0.857 -0.6033  0.5020 -0.7560
   32MOL   H13817560   6.313   1.085   1.043 -0.3911  0.3552 -0.4870
   32MOL   H13917561   6.092   1.069   1.152 -2.8013  0.5715  0.5562
   32MOL   H14017562   5.646   1.138   1.057 -0.5156 -1.4363  0.3664
   32MOL   H14117563   5.479   0.992   1.172  1.3683 -0.9165  0.4573
   32MOL   C14217564   6.501   1.387   0.882 -0.0174 -0.2152  0.7590
   32MOL   C14317565   6.486   1.509   0.967  0.6279 -0.4495 -0.1623
   32MOL   C14417566   6.470   1.490   1.103  0.0575 -0.5011  0.7945
   32MOL   C14517567   6.462   1.608   1.185  0.3104 -0.5279  0.3240
   32MOL   C14617568   6.475   1.735   1.129 -0.2262  0.2019 -0.3628
   32MOL   C14717569   6.469   1.859   1.215  0.2125 -0.7134  0.4614
   32MOL   N14817570   6.404   1.859   1.333  0.3334 -0.0143  0.0790
   32MOL   C14917571   6.364   1.966   1.423  0.7337 -0.1085  0.5338
   32MOL   C15017572   6.380   2.102   1.395 -0.3915  0.0952  0.2053
   32MOL   C15117573   6.312   2.196   1.474  0.2064  0.2349 -0.1088
   32MOL   C15217574   6.250   2.172   1.599 -0.6099 -0.5908 -0.9432
   32MOL   N15317575   6.188   2.274   1.675  0.5975 -0.5296 -0.4214
   32MOL   C15417576   6.244   2.034   1.629  1.0119 -0.3903  0.6601
   32MOL   C15517577   6.299   1.935   1.542  0.0425  0.5514  0.1311
   32MOL   O15617578   6.534   1.958   1.176  0.0559 -0.4610 -0.6432
   32MOL   C15717579   6.504   1.749   0.990  0.3358 -0.3264 -0.1996
   32MOL   C15817580   6.511   1.638   0.910 -0.1314 -0.0717  0.4322
   32MOL   O15917581   6.584   1.385   0.789 -0.0939 -0.3950 -0.3802
   32MOL   H16017582   6.454   1.398   1.157 -0.3493 -0.1027  1.3615
   32MOL   H16117583   6.432   1.595   1.287  0.5588  1.1921  0.6378
   32MOL   H16217584   6.364   1.770   1.359  0.3019  0.7115  2.6639
   32MOL   H16317585   6.423   2.136   1.302  0.3392  1.6913  1.1143
   32MOL   H16417586   6.312   2.300   1.444 -0.4360  0.2014 -0.2345
   32MOL   H16517587   6.186   2.367   1.634 -1.4146 -0.0803  0.6341
   32MOL   H16617588   6.200   1.996   1.720  0.3146 -0.8495  0.1360
   32MOL   H16717589   6.284   1.831   1.567 -1.4929 -0.6500 -5.2362
   32MOL   H16817590   6.507   1.848   0.946 -1.2018  0.4961  1.4702
   32MOL   H16917591   6.514   1.641   0.802 -0.0290 -0.1716  0.4310
   32MOL   C17017592   6.139   2.270   1.802 -0.1925 -0.0885  0.1963
   32MOL   C17117593   6.059   2.396   1.838  0.4417  0.1891  0.2231
   32MOL   C17217594   5.952   2.448   1.755 -0.0505  0.5034 -0.1017
   32MOL   C17317595   5.882   2.563   1.793 -0.0458  0.6485 -0.0871
   32MOL   C17417596   5.904   2.629   1.917 -0.8717 -0.3942 -0.0743
   32MOL   C17517597   5.822   2.746   1.956 -0.0276  0.6081  0.0732
   32MOL   N17617598   5.763   2.729   2.071 -0.4134  0.0013 -0.4161
   32MOL   C17717599   5.651   2.791   2.119 -0.2202 -1.1936 -0.1329
   32MOL   C17817600   5.625   2.773   2.254 -0.5613 -0.6569  0.4108
   32MOL   C17917601   5.511   2.828   2.314 -0.0343  0.2900  0.4874
   32MOL   C18017602   5.423   2.909   2.241 -0.0720 -0.9671  0.0199
   32MOL   N18117603   5.311   2.967   2.301 -0.0808 -0.0106 -0.1923
   32MOL   C18217604   5.455   2.929   2.106 -0.0557 -0.5545  0.5562
   32MOL   C18317605   5.564   2.871   2.045  0.9457 -1.3795 -0.3701
   32MOL   O18417606   5.805   2.838   1.879 -0.1176  0.1916  0.5549
   32MOL   C18517607   6.008   2.578   1.998  0.3074  0.8522 -0.2277
   32MOL   C18617608   6.078   2.461   1.957 -0.1621  0.2888 -0.3206
   32MOL   O18717609   6.136   2.173   1.885  0.0203  0.0796  0.1648
   32MOL   H18817610   5.925   2.393   1.666  0.2107  1.5182 -0.8120
   32MOL   H18917611   5.805   2.602   1.729 -1.0338  3.1145  2.4737
   32MOL   H19017612   5.785   2.647   2.126 -0.6144 -0.2619 -0.7284
   32MOL   H19117613   5.683   2.708   2.318 -0.0572 -2.1028 -1.4308
   32MOL   H19217614   5.495   2.812   2.419 -0.3813 -2.3040  0.0511
   32MOL   H19317615   5.298   2.931   2.394 -2.0009  0.7298 -0.1541
   32MOL   H19417616   5.392   2.984   2.037 -0.2040 -0.9833  0.3430
   32MOL   H19517617   5.561   2.895   1.940  0.8584 -0.0358 -0.0619
   32MOL   H19617618   6.043   2.629   2.086 -2.2135  0.5805  0.9847
   32MOL   H19717619   6.157   2.417   2.017  1.2114 -0.6855 -2.7897
   32MOL   C19817620   5.207   3.029   2.254 -0.2498 -0.1747 -0.8735
   32MOL   C19917621   5.086   3.017   2.349 -0.3252  0.5236  0.0316
   32MOL   C20017622   5.080   2.916   2.445 -0.2518  0.9852  0.1492
   32MOL   C20117623   4.980   2.915   2.544 -0.4675 -0.0881 -0.0581
   32MOL   C20217624   4.876   3.013   2.545 -0.6623 -0.4659 -0.4751
   32MOL   C20317625   4.784   3.020   2.663 -0.2508 -1.0749 -0.5768
   32MOL   N20417626   4.830   2.967   2.780 -0.3922 -0.5590  0.0300
   32MOL   C20517627   4.756   2.925   2.896  0.3673 -0.5716 -0.2629
   32MOL   C20617628   4.830   2.892   3.009  0.1179 -0.2348  0.0977
   32MOL   C20717629   4.767   2.852   3.126  0.6507 -0.1194 -0.4843
   32MOL   C20817630   4.626   2.846   3.133 -0.4931 -0.2918  0.1075
   32MOL   N20917631   4.570   2.800   3.257 -0.6075 -0.3095 -0.2938
   32MOL   C21017632   4.551   2.878   3.023  0.0663  0.6139 -0.4853
   32MOL   C21117633   4.617   2.926   2.907 -0.1713  0.1238  0.3520
   32MOL   O21217634   4.676   3.069   2.650 -0.3375  0.0366  0.2007
   32MOL   C21317635   4.869   3.105   2.438  0.4260  0.1537 -0.1253
   32MOL   C21417636   4.981   3.110   2.344  0.3686  0.2564 -0.3101
   32MOL   O21517637   5.206   3.110   2.155  0.3780 -0.3204  0.4247
   32MOL   H21617638   5.159   2.842   2.445  0.9070  2.1226 -2.6470
   32MOL   H21717639   4.974   2.840   2.621 -0.4542  1.2541  1.2843
   32MOL   H21817640   4.926   2.938   2.772 -0.3664 -0.9604  1.6772
   32MOL   H21917641   4.937   2.897   3.004  0.1350  0.5194  1.0859
   32MOL   H22017642   4.822   2.834   3.217 -2.2051 -0.9983  1.0985
   32MOL   H22117643   4.616   2.831   3.342 -3.0092 -1.8095  1.6346
   32MOL   H22217644   4.444   2.875   3.024  0.0698 -0.8073 -1.6654
   32MOL   H22317645   4.556   2.951   2.822  0.9190  1.2439 -0.1180
   32MOL   H22417646   4.792   3.180   2.437 -2.2614 -2.4772 -2.4274
   32MOL   H22517647   4.989   3.190   2.272 -1.0032  0.6296 -0.0581
   32MOL   C22617648   4.448   2.750   3.281  0.0415  0.3624  0.0192
   32MOL   C22717649   4.428   2.707   3.427  0.1834 -0.0616  0.3536
   32MOL   C22817650   4.532   2.652   3.497 -0.3311  0.0684 -0.1965
   32MOL   C22917651   4.524   2.629   3.636  0.1496 -0.6578 -0.0356
   32MOL   C23017652   4.408   2.664   3.706  0.6751  0.0786 -0.1113
   32MOL   C23117653   4.402   2.647   3.851  0.1645  0.8064  0.1920
   32MOL   N23217654   4.484   2.564   3.912 -0.3053  0.0947 -0.0572
   32MOL   C23317655   4.507   2.544   4.055  0.3093  0.3068  0.0435
   32MOL   C23417656   4.622   2.474   4.098  0.5589  0.2617 -0.2275
   32MOL   C23517657   4.644   2.448   4.233  0.4804 -0.5428 -0.5224
   32MOL   C23617658   4.556   2.489   4.327  0.1924 -0.3626  0.5143
   32MOL   N23717659   4.573   2.429   4.457 -0.5423 -0.3651 -0.6478
   32MOL   C23817660   4.445   2.570   4.287  0.8124 -0.1140 -0.4641
   32MOL   C23917661   4.427   2.595   4.152 -0.3999  0.2782 -0.1653
   32MOL   O24017662   4.314   2.713   3.908  0.0996 -0.3113  0.4573
   32MOL   C24117663   4.296   2.706   3.630  0.9981  0.1206  0.2061
   32MOL   C24217664   4.308   2.727   3.494  0.5080 -0.0546 -0.2551
   32MOL   O24317665   4.354   2.742   3.198  0.1922 -0.6553 -0.2566
   32MOL   H24417666   4.623   2.628   3.442  0.0265  1.5737 -0.2830
   32MOL   H24517667   4.606   2.587   3.692  0.0963 -0.4901  0.1734
   32MOL   H24617668   4.548   2.518   3.849 -0.8398  0.2022 -0.6829
   32MOL   H24717669   4.690   2.419   4.035  1.5055 -0.6363  1.5299
   32MOL   H24817670   4.725   2.381   4.259  3.1685  2.9326  0.4544
   32MOL   H24917671   4.617   2.338   4.462  0.1495 -0.0326 -0.6742
   32MOL   H25017672   4.380   2.610   4.363  0.9744 -1.4731  0.4075
   32MOL   H25117673   4.343   2.658   4.128  0.0782  0.0131 -2.6829
   32MOL   H25217674   4.208   2.742   3.681  0.5622 -1.5861  0.6891
   32MOL   H25317675   4.220   2.765   3.444  0.2024 -0.0265  0.3014
   32MOL   C25417676   4.525   2.482   4.571  0.4015 -0.0892  0.5659
   32MOL   C25517677   4.551   2.401   4.691  0.3883  0.2232  0.0513
   32MOL   C25617678   4.464   2.411   4.802  0.4381  0.0872 -0.0588
   32MOL   C25717679   4.497   2.338   4.918  0.2628  0.1502  0.2654
   32MOL   C25817680   4.608   2.250   4.921  0.0981 -0.1501 -0.5380
   32MOL   C25917681   4.639   2.162   5.039  0.0346 -0.3168  0.2142
   32MOL   N26017682   4.579   2.206   5.153  0.2671 -0.4218  0.6657
   32MOL   C26117683   4.594   2.140   5.284 -0.0713  1.0090 -0.4627
   32MOL   C26217684   4.495   2.169   5.384  0.7110  0.5454  0.1249
   32MOL   C26317685   4.500   2.119   5.511  0.9256  0.5086  0.5741
   32MOL   C26417686   4.610   2.036   5.553  0.6160 -0.2039  0.0489
   32MOL   N26517687   4.619   2.003   5.690 -0.0929 -0.0073  0.4734
   32MOL   C26617688   4.710   2.006   5.456 -0.5727  0.2523  0.4351
   32MOL   C26717689   4.708   2.066   5.325 -0.6174 -0.5334  0.5543
   32MOL   O26817690   4.706   2.060   5.030 -0.0659 -0.3140  0.4625
   32MOL   C26917691   4.694   2.243   4.811  0.3682  0.2780 -0.1576
   32MOL   C27017692   4.668   2.327   4.704  0.2406 -0.5588  0.6835
   32MOL   O27117693   4.472   2.594   4.580 -0.0882  0.4961 -0.0357
   32MOL   H27217694   4.385   2.485   4.798  1.4234  1.1676  0.0166
   32MOL   H27317695   4.433   2.336   5.005 -0.5480  0.3406 -0.3247
   32MOL   H27417696   4.510   2.280   5.140 -0.0091 -0.9183 -0.7309
   32MOL   H27517697   4.412   2.234   5.358 -1.4680 -2.2532 -0.1743
   32MOL   H27617698   4.430   2.155   5.586 -0.7102  3.2950 -2.1785
   32MOL   H27717699   4.564   2.064   5.748 -0.2430  0.9104 -0.6112
   32MOL   H27817700   4.799   1.951   5.482 -0.9119  0.1517  1.3829
   32MOL   H27917701   4.788   2.047   5.255 -1.0953 -1.9733  0.4018
   32MOL   H28017702   4.781   2.179   4.818  0.6456  0.8317  1.6638
   32MOL   H28117703   4.737   2.316   4.621  1.4753  0.4613  1.5553
   32MOL   C28217704   4.690   1.903   5.741  0.0523 -0.0375 -0.6668
   32MOL   C28317705   4.708   1.899   5.889 -0.4398  0.6355  0.1438
   32MOL   C28417706   4.777   1.786   5.948  0.5416  0.1257  0.5650
   32MOL   C28517707   4.798   1.789   6.089 -0.5382  0.0137  0.7040
   32MOL   C28617708   4.733   1.889   6.172 -0.5443  0.3961  0.0377
   32MOL   C28717709   4.745   1.897   6.323  0.5459 -0.3988 -0.5502
   32MOL   N28817710   4.783   1.787   6.385  0.5433  0.3209  0.0767
   32MOL   C28917711   4.782   1.753   6.523  0.7277 -0.2694 -0.0672
   32MOL   C29017712   4.685   1.801   6.612 -0.3200  0.0449  0.4336
   32MOL   C29117713   4.688   1.758   6.749  0.5231 -0.0681 -0.1189
   32MOL   C29217714   4.775   1.653   6.786 -0.1377 -0.1491  0.1607
   32MOL   N29317715   4.776   1.609   6.920  0.0307 -0.1598 -0.7269
   32MOL   C29417716   4.852   1.588   6.687  0.2549 -0.4450 -0.2582
   32MOL   C29517717   4.855   1.638   6.554 -0.7912  0.1397 -0.0853
   32MOL   O29617718   4.719   2.005   6.378  0.5259 -0.0747 -0.1750
   32MOL   C29717719   4.659   1.990   6.103 -0.2856 -0.0361 -0.6465
   32MOL   C29817720   4.649   2.003   5.966 -0.1373  0.0424 -0.7898
   32MOL   O29917721   4.754   1.819   5.670  0.2376  0.0220 -0.0923
   32MOL   H30017722   4.831   1.709   5.896  0.0890 -1.2932  2.1571
   32MOL   H30117723   4.852   1.708   6.136  0.3957 -1.0402 -2.0989
   32MOL   H30217724   4.795   1.704   6.328  0.0775  0.2720  0.0448
   32MOL   H30317725   4.613   1.871   6.571  0.7764  1.7747  1.4212
   32MOL   H30417726   4.629   1.809   6.823  0.4701 -2.2880  1.4073
   32MOL   H30517727   4.691   1.571   6.959 -0.1512 -0.2612 -1.2157
   32MOL   H30617728   4.914   1.504   6.716  0.4340  0.6248  2.5831
   32MOL   H30717729   4.910   1.588   6.475 -0.2972  0.8147 -0.1788
   32MOL   H30817730   4.611   2.070   6.158  0.7267  0.5904 -0.6596
   32MOL   H30917731   4.583   2.078   5.923 -1.5383 -0.6275  0.1435
   32MOL   C31017732   4.879   1.589   7.004  0.2793  0.5413  0.5513
   32MOL   C31117733   5.016   1.637   6.961 -0.2994  0.7159  0.1239
   32MOL   C31217734   5.125   1.539   6.961 -0.0031  0.6563  0.1666
   32MOL   C31317735   5.252   1.572   6.916  0.3279 -0.2814 -0.4583
   32MOL   C31417736   5.280   1.710   6.879  0.7195  0.5054  1.0125
   32MOL   C31517737   5.419   1.751   6.835 -0.6720  0.3622 -0.1046
   32MOL   N31617738   5.411   1.846   6.735  0.0901  0.6500 -0.0829
   32MOL   C31717739   5.508   1.891   6.637  0.1536  0.1755 -0.3240
   32MOL   C31817740   5.620   1.813   6.610 -0.3134 -0.3269 -0.1628
   32MOL   C31917741   5.706   1.855   6.510 -0.2946 -0.1727  0.2963
   32MOL   C32017742   5.683   1.966   6.430 -0.6907  0.0015 -0.1624
   32MOL   N32117743   5.783   2.000   6.329 -0.5304 -0.3984  0.2034
   32MOL   C32217744   5.578   2.052   6.468 -0.2160  0.2616 -0.2278
   32MOL   C32317745   5.494   2.017   6.571 -0.0481  0.3255  0.6020
   32MOL   O32417746   5.528   1.696   6.871  0.4645 -0.0110 -0.4180
   32MOL   C32517747   5.174   1.809   6.878 -0.3653  0.2866 -0.3286
   32MOL   C32617748   5.045   1.765   6.916  0.3364 -0.4745  0.2283
   32MOL   O32717749   4.862   1.515   7.104  0.1825  0.5330 -0.2932
   32MOL   H32817750   5.103   1.435   6.982  0.6862  0.3243 -0.6901
   32MOL   H32917751   5.321   1.490   6.913  0.2684 -0.3598  0.2915
   32MOL   H33017752   5.314   1.873   6.727  0.2736  0.9464 -1.5212
   32MOL   H33117753   5.635   1.717   6.657 -1.9731 -1.4516 -1.8702
   32MOL   H33217754   5.792   1.794   6.487  0.1250  1.2438 -2.0533
   32MOL   H33317755   5.835   1.924   6.287  0.8155  0.3981  0.3723
   32MOL   H33417756   5.560   2.145   6.416 -0.0156  0.1683 -0.4622
   32MOL   H33517757   5.407   2.077   6.594  0.2263  0.4717  1.2681
   32MOL   H33617758   5.197   1.911   6.852  3.7009  0.1479  2.2001
   32MOL   H33717759   4.962   1.834   6.903  0.0114 -0.5222  1.9901
   32MOL   C33817760   5.797   2.123   6.274  0.0827  0.0601  0.2944
   32MOL   C33917761   5.878   2.118   6.150  0.9717  0.2740  0.0430
   32MOL   C34017762   5.856   2.218   6.054  0.2112  0.1263 -0.0498
   32MOL   C34117763   5.923   2.215   5.927  0.6516  0.3952  0.1351
   32MOL   C34217764   6.008   2.111   5.893  0.3919  0.6171 -0.5135
   32MOL   C34317765   6.032   2.085   5.750 -0.2322 -0.4651 -0.4183
   32MOL   N34417766   6.100   1.968   5.728 -0.0621 -0.5617  0.2276
   32MOL   C34517767   6.101   1.885   5.610 -0.0426  0.0257 -0.1507
   32MOL   C34617768   5.992   1.875   5.528  0.5912 -0.0900 -0.0068
   32MOL   C34717769   5.999   1.823   5.400  0.5120 -0.4554  0.1426
   32MOL   C34817770   6.116   1.752   5.359  0.2174  0.1597 -0.2620
   32MOL   N34917771   6.130   1.681   5.236 -0.2502  0.3686  0.4544
   32MOL   C35017772   6.229   1.761   5.445 -0.5722 -0.3346 -0.5171
   32MOL   C35117773   6.223   1.828   5.564 -0.2656  0.4455 -0.0345
   32MOL   O35217774   5.993   2.163   5.666  0.0040  0.5897 -0.0507
   32MOL   C35317775   6.039   2.015   5.996  0.4084 -0.0530  0.1080
   32MOL   C35417776   5.974   2.015   6.120  0.7854  0.3261 -0.0912
   32MOL   O35517777   5.748   2.225   6.322 -0.4053 -0.2912  0.1234
   32MOL   H35617778   5.780   2.291   6.076 -1.7166 -2.1537  1.2177
   32MOL   H35717779   5.893   2.296   5.861  2.7326 -0.1070 -1.4637
   32MOL   H35817780   6.144   1.932   5.811 -1.8222 -0.2435  1.3233
   32MOL   H35917781   5.895   1.918   5.549 -0.2977 -1.0587 -1.9618
   32MOL   H36017782   5.911   1.812   5.339 -0.6518  1.3617  1.4343
   32MOL   H36117783   6.202   1.610   5.231  0.2077  0.8234  0.4041
   32MOL   H36217784   6.319   1.709   5.416 -0.1438  1.0382 -1.7275
   32MOL   H36317785   6.309   1.851   5.626 -0.5224 -0.2894  0.5881
   32MOL   H36417786   6.098   1.927   5.979  0.0003  0.1769 -2.7505
   32MOL   H36517787   5.997   1.932   6.186  1.6028  0.3334 -0.3633
   32MOL   C36617788   6.048   1.708   5.128  0.0126  0.5011 -0.2039
   32MOL   C36717789   6.038   1.598   5.025  0.2934  0.4562 -0.0341
   32MOL   C36817790   5.982   1.625   4.901 -0.0107  0.2773  0.5356
   32MOL   C36917791   5.983   1.527   4.798  0.1351 -0.2169 -0.0879
   32MOL   C37017792   6.047   1.400   4.816 -0.6187  0.2594  0.3269
   32MOL   C37117793   6.058   1.300   4.701 -0.0302  0.1036 -0.2642
   32MOL   N37217794   6.045   1.171   4.739 -0.3857  0.2334 -0.4112
   32MOL   C37317795   6.078   1.053   4.658  0.7553  0.2909 -0.1375
   32MOL   C37417796   5.985   0.947   4.643  0.2644 -0.1442 -0.0340
   32MOL   C37517797   6.032   0.822   4.584  0.1083  0.4275 -0.0309
   32MOL   C37617798   6.167   0.801   4.540 -0.7302 -0.4175 -0.1578
   32MOL   N37717799   6.213   0.691   4.467 -0.3127 -0.2668  0.0768
   32MOL   C37817800   6.249   0.916   4.562 -0.9659  0.6308 -0.0686
   32MOL   C37917801   6.207   1.038   4.619 -0.8393  0.0413 -0.2237
   32MOL   O38017802   6.085   1.340   4.588  0.0253 -0.5044 -0.0436
   32MOL   C38117803   6.097   1.372   4.944 -0.1414 -0.5809  0.3231
   32MOL   C38217804   6.094   1.470   5.051 -0.4176 -0.1659 -0.1359
   32MOL   O38317805   6.001   1.817   5.110  0.2460  0.3306  1.0236
   32MOL   H38417806   5.944   1.724   4.880 -1.6381 -0.9649 -2.7644
   32MOL   H38517807   5.939   1.555   4.704 -0.8482 -2.7505 -0.4170
   32MOL   H38617808   6.011   1.164   4.833 -3.0946  2.2627 -1.1653
   32MOL   H38717809   5.879   0.964   4.654  0.2057 -0.6434  0.1951
   32MOL   H38817810   5.962   0.741   4.575  1.5948 -0.9563  0.5755
   32MOL   H38917811   6.301   0.702   4.419  0.0273 -0.1029  0.7327
   32MOL   H39017812   6.351   0.904   4.531 -0.3538  0.5700  1.9164
   32MOL   H39117813   6.275   1.121   4.634 -2.6462  1.1755  2.1062
   32MOL   H39217814   6.152   1.280   4.958  0.8215 -0.0224  0.2777
   32MOL   H39317815   6.148   1.448   5.142 -1.5492 -2.2761  0.0626
   32MOL   C39417816   6.144   0.580   4.444  0.2052  0.3612 -0.3440
   32MOL   C39517817   6.186   0.498   4.325 -0.7533  0.5888 -0.2675
   32MOL   C39617818   6.209   0.364   4.345 -0.3947  0.0812 -0.5243
   32MOL   C39717819   6.232   0.279   4.233 -0.9128  0.5529 -0.6659
   32MOL   C39817820   6.243   0.334   4.105 -0.0254 -0.6631 -0.0116
   32MOL   C39917821   6.273   0.260   3.981 -0.2958  0.2750 -0.2993
   32MOL   N40017822   6.372   0.285   3.894  0.6782  0.2492 -0.2198
   32MOL   C40117823   6.492   0.357   3.916  0.6617 -0.1386 -0.8326
   32MOL   C40217824   6.546   0.389   4.044  0.2717 -0.0825  0.4931
   32MOL   C40317825   6.674   0.447   4.059  0.0534  0.3283  0.1379
   32MOL   C40417826   6.757   0.463   3.942  1.4712  0.3369  0.2018
   32MOL   N40517827   6.886   0.524   3.946 -0.1968 -0.8628  0.5330
   32MOL   C40617828   6.699   0.441   3.816  0.2274 -0.7327 -0.6369
   32MOL   C40717829   6.568   0.390   3.805  0.6645  0.3016  0.3208
   32MOL   O40817830   6.194   0.168   3.956 -0.2818 -0.1342  0.1550
   32MOL   C40917831   6.224   0.472   4.088 -0.5747 -0.3970  0.3539
   32MOL   C41017832   6.199   0.551   4.199  0.1727 -1.0856 -0.2879
   32MOL   O41117833   6.050   0.536   4.514 -0.4443  0.1531 -0.3089
   32MOL   H41217834   6.199   0.323   4.444 -1.7633  0.9499 -0.2830
   32MOL   H41317835   6.250   0.173   4.249  1.3362  0.9164 -0.6211
   32MOL   H41417836   6.359   0.242   3.803 -0.8335  0.5134 -0.1449
   32MOL   H41517837   6.506   0.354   4.138  1.7848  1.3740  1.7168
   32MOL   H41617838   6.713   0.463   4.158 -1.6862 -0.8131  1.0248
   32MOL   H41717839   6.947   0.498   3.870  1.0769 -0.3145  1.3408
   32MOL   H41817840   6.751   0.468   3.725  1.0549  1.6807  0.5273
   32MOL   H41917841   6.527   0.380   3.706  0.1304  2.1700  0.3464
   32MOL   H42017842   6.240   0.503   3.986 -3.8716  1.2361  0.2632
   32MOL   H42117843   6.179   0.656   4.183  2.3717 -0.7649 -1.1059
   32MOL   C42217844   6.923   0.623   4.027 -0.6156 -0.2422  0.8967
   32MOL   C42317845   7.050   0.689   3.997  0.2281 -0.0357  0.4355
   32MOL   C42417846   7.138   0.639   3.903 -0.2687  0.5039  0.1788
   32MOL   C42517847   7.264   0.699   3.877  0.4604  0.1977 -0.0338
   32MOL   C42617848   7.302   0.818   3.948  0.1726  0.0745  1.4193
   32MOL   C42717849   7.436   0.888   3.923 -0.0180  0.5267 -0.2666
   32MOL   N42817850   7.512   0.816   3.847 -0.5344  0.6761 -0.2982
   32MOL   C42917851   7.637   0.857   3.798 -0.7758  0.4537 -0.3605
   32MOL   C43017852   7.723   0.748   3.769  0.3353 -0.3919 -0.1994
   32MOL   C43117853   7.853   0.779   3.726 -0.4079  0.1679 -0.3342
   32MOL   C43217854   7.894   0.910   3.692 -0.1482 -0.4543  0.1181
   32MOL   N43317855   8.021   0.936   3.637 -0.0452 -0.2718  0.9423
   32MOL   C43417856   7.803   1.014   3.694 -0.1379  0.0165 -0.2124
   32MOL   C43517857   7.679   0.994   3.762 -0.3534  0.7668 -0.1747
   32MOL   O43617858   7.462   0.993   3.962  0.1292 -0.3078 -0.2935
   32MOL   C43717859   7.216   0.864   4.044 -0.3879  0.1610  0.4139
   32MOL   C43817860   7.090   0.807   4.063  0.8674 -0.0029 -0.2826
   32MOL   O43917861   6.865   0.650   4.129  0.3874  0.5048 -0.2586
   32MOL   H44017862   7.121   0.538   3.871  0.2831 -0.0226  1.5137
   32MOL   H44117863   7.325   0.656   3.799 -0.8908  0.2701 -1.1414
   32MOL   H44217864   7.472   0.736   3.800  0.3272  0.5638 -0.8593
   32MOL   H44317865   7.696   0.644   3.781  1.0716 -0.4974  0.6004
   32MOL   H44417866   7.931   0.705   3.716  1.0859  1.8338 -1.2527
   32MOL   H44517867   8.033   1.000   3.561  1.0218  2.3223  3.2077
   32MOL   H44617868   7.835   1.115   3.674  1.0429 -0.7386 -2.1956
   32MOL   H44717869   7.613   1.078   3.779 -0.9982 -0.2053  2.3898
   32MOL   H44817870   7.237   0.945   4.112 -0.5109 -1.6342  2.6560
   32MOL   H44917871   7.024   0.843   4.141  0.0545  1.1422 -1.4680
   32MOL   C45017872   8.138   0.884   3.679 -0.0188  0.3914 -0.3121
   32MOL   C45117873   0.118   0.920   3.598  0.1657 -0.3318  0.1773
   32MOL   C45217874   0.115   0.961   3.461  0.3798  0.6189  0.1631
   32MOL   C45317875   0.232   0.987   3.395 -0.4373  0.1021  0.1494
   32MOL   C45417876   0.356   0.992   3.464 -0.6019  0.4417 -0.4473
   32MOL   C45517877   0.484   1.037   3.400  0.4704  0.0148  0.1045
   32MOL   N45617878   0.460   1.134   3.311  0.3988 -0.1226 -0.1076
   32MOL   C45717879   0.566   1.199   3.240  0.6012 -0.3278 -0.0576
   32MOL   C45817880   0.622   1.153   3.116 -0.0775  0.5762  0.2493
   32MOL   C45917881   0.730   1.217   3.048 -0.8407 -0.5801  0.1384
   32MOL   C46017882   0.779   1.338   3.099 -0.2059  0.4606  0.3410
   32MOL   N46117883   0.884   1.409   3.027  0.5095  0.4533 -0.0874
   32MOL   C46217884   0.734   1.380   3.223 -0.4132  0.0588  0.1814
   32MOL   C46317885   0.631   1.312   3.292 -0.4398  0.7216 -0.2135
   32MOL   O46417886   0.594   0.984   3.433  0.0225 -0.3415  0.8020
   32MOL   C46517887   0.364   0.943   3.594  0.0695 -0.2945 -0.6360
   32MOL   C46617888   0.244   0.903   3.662 -0.8896 -0.3668  0.0436
   32MOL   O46717889   0.002   0.798   3.764  0.8620 -0.3329  0.4363
   32MOL   H46817890   0.024   0.957   3.404  0.3430  1.2569  0.1694
   32MOL   H46917891   0.234   1.005   3.289 -1.3174  1.3123  0.3313
   32MOL   H47017892   0.368   1.174   3.300  1.5537  2.6878  0.0060
   32MOL   H47117893   0.578   1.061   3.082  1.5804  0.4565 -1.6440
   32MOL   H47217894   0.756   1.176   2.951  0.9203 -0.2472  0.4649
   32MOL   H47317895   0.952   1.457   3.084  0.5038  1.8535 -1.2324
   32MOL   H47417896   0.772   1.476   3.256 -2.9971  1.0011  0.5690
   32MOL   H47517897   0.595   1.356   3.384  0.2661  0.0159  0.4004
   32MOL   H47617898   0.452   0.935   3.656  0.3491  2.2932 -0.6655
   32MOL   H47717899   0.254   0.875   3.766 -2.6396 -1.1297  0.0376
   32MOL   C47817900   0.877   1.452   2.901 -0.0105  0.0473  0.2385
   32MOL   C47917901   1.005   1.512   2.859 -0.0273 -0.3207  0.5680
   32MOL   C48017902   1.125   1.451   2.899  0.1962  0.0280 -0.0617
   32MOL   C48117903   1.246   1.520   2.872  0.6483  0.1119 -0.1081
   32MOL   C48217904   1.243   1.650   2.818 -0.5529 -0.0705 -0.3044
   32MOL   C48317905   1.371   1.737   2.832  0.1854 -0.4214  0.9315
   32MOL   N48417906   1.429   1.756   2.954  0.0173  0.2236  0.1287
   32MOL   C48517907   1.355   1.740   3.076  0.5615 -0.6075 -0.7716
   32MOL   C48617908   1.386   1.632   3.159 -0.3175 -0.0166  0.3350
   32MOL   C48717909   1.306   1.609   3.275  0.1294  0.8242 -0.1184
   32MOL   C48817910   1.194   1.680   3.302 -0.7225  0.4390  0.4807
   32MOL   N48917911   1.107   1.621   3.405  0.0554 -0.0980  1.1215
   32MOL   C49017912   1.168   1.798   3.229  0.0588  0.7934 -0.1313
   32MOL   C49117913   1.248   1.827   3.114  0.2649 -0.1120  0.8787
   32MOL   O49217914   1.423   1.775   2.723  0.5392  0.2937  0.4250
   32MOL   C49317915   1.121   1.710   2.778 -0.5022  0.3137 -0.4983
   32MOL   C49417916   0.997   1.642   2.798  0.0305 -0.3614  0.1885
   32MOL   O49517917   0.779   1.452   2.823 -0.2875  0.1184 -0.3523
   32MOL   H49617918   1.118   1.354   2.945  0.4976 -0.8392 -1.7841
   32MOL   H49717919   1.342   1.481   2.904  0.7175  1.4909  1.4102
   32MOL   H49817920   1.526   1.784   2.958  0.5603 -0.9530 -3.0915
   32MOL   H49917921   1.464   1.562   3.131  0.4332  1.1717 -0.5663
   32MOL   H50017922   1.332   1.523   3.335  1.6212  0.1533 -1.6680
   32MOL   H50117923   1.148   1.533   3.433  0.6798 -0.8338 -1.9967
   32MOL   H50217924   1.079   1.856   3.246 -1.2182 -1.7478  2.1521
   32MOL   H50317925   1.196   1.894   3.048 -0.6336 -0.4921  1.1989
   32MOL   H50417926   1.116   1.803   2.723  0.3931 -0.9427 -2.7897
   32MOL   H50517927   0.906   1.687   2.760 -0.7400 -0.8300  1.4259
   32MOL   C50617928   0.994   1.664   3.458  0.1549  0.5579 -0.8476
   32MOL   C50717929   0.922   1.569   3.546 -0.1875 -0.6096  0.4806
   32MOL   C50817930   0.931   1.432   3.516 -0.1808  0.3484 -0.3538
   32MOL   C50917931   0.865   1.333   3.591  0.2939  0.2849 -0.1608
   32MOL   C51017932   0.784   1.371   3.703  0.7236 -0.5706  0.4883
   32MOL   C51117933   0.712   1.262   3.770 -0.3000 -0.4238 -0.0949
   32MOL   N51217934   0.594   1.293   3.827 -0.3627  0.0073  0.3538
   32MOL   C51317935   0.499   1.214   3.903  0.1131 -0.0344 -0.7715
   32MOL   C51417936   0.399   1.292   3.969  0.5636  0.8797 -0.0237
   32MOL   C51517937   0.288   1.222   4.027 -0.4706 -0.7884  0.1592
   32MOL   C51617938   0.284   1.083   4.032 -0.0693 -0.1501 -0.4068
   32MOL   N51717939   0.163   1.028   4.083  0.3879  0.6339 -0.0763
   32MOL   C51817940   0.387   1.007   3.970  0.7410  0.5694  0.0864
   32MOL   C51917941   0.494   1.078   3.905 -0.8525  0.0766  0.0704
   32MOL   O52017942   0.756   1.147   3.770  0.2935 -0.1023  0.9163
   32MOL   C52117943   0.773   1.511   3.734 -0.0597 -0.4405  0.1261
   32MOL   C52217944   0.841   1.602   3.655 -0.6040 -0.1827  0.0175
   32MOL   O52317945   0.938   1.768   3.434 -0.4522 -0.5704 -0.1012
   32MOL   H52417946   0.997   1.393   3.440 -1.1197  0.1008 -1.0506
   32MOL   H52517947   0.893   1.231   3.570 -0.4490 -0.4678  2.3086
   32MOL   H52617948   0.583   1.393   3.812  0.8493 -0.1840 -2.0353
   32MOL   H52717949   0.394   1.397   3.944 -1.6384  0.4447 -1.5530
   32MOL   H52817950   0.216   1.288   4.073  2.0707  1.6443  0.7974
   32MOL   H52917951   0.082   1.086   4.069  0.8728  1.1022 -0.9737
   32MOL   H53017952   0.382   0.900   3.959 -0.0949  0.9073 -3.2120
   32MOL   H53117953   0.565   1.011   3.861 -0.3232 -0.0736  1.1465
   32MOL   H53217954   0.714   1.555   3.813  1.6217  2.6103 -0.2482
   32MOL   H53317955   0.818   1.707   3.669  0.2655  0.1132 -0.7223
   32MOL   C53417956   0.154   0.908   4.147  0.2857  0.1230  1.1313
   32MOL   C53517957   0.013   0.857   4.171  0.1106  0.6060 -0.4295
   32MOL   C53617958   8.141   0.763   4.270  0.2579  0.3917 -0.2109
   32MOL   C53717959   8.013   0.705   4.307  0.0407 -0.0125 -0.0794
   32MOL   C53817960   7.903   0.754   4.236  0.1450 -0.4861 -0.2781
   32MOL   C53917961   7.769   0.706   4.275  0.4447  0.6714  0.0754
   32MOL   N54017962   7.767   0.640   4.386 -0.1835 -0.5059 -0.0154
   32MOL   C54117963   7.672   0.554   4.437  0.0050  1.0521  0.3480
   32MOL   C54217964   7.709   0.448   4.520  0.3806 -0.0799 -0.1914
   32MOL   C54317965   7.611   0.370   4.583  0.0646 -0.4425  0.2826
   32MOL   C54417966   7.476   0.388   4.558 -0.3265  0.0063 -0.1960
   32MOL   N54517967   7.384   0.295   4.608 -0.1722 -0.2024 -0.0583
   32MOL   C54617968   7.432   0.495   4.479  0.1190  0.5519  0.1451
   32MOL   C54717969   7.533   0.572   4.411  0.0904  0.5659  0.0363
   32MOL   O54817970   7.664   0.734   4.209 -0.0652  0.5890 -0.4518
   32MOL   C54917971   7.919   0.844   4.124  0.9155 -0.2607  0.1259
   32MOL   C55017972   8.047   0.894   4.094 -0.3105 -0.3602 -0.0452
   32MOL   O55117973   0.248   0.842   4.171  0.4067  0.2651  0.1407
   32MOL   H55217974   0.084   0.728   4.319 -0.7470 -0.4089  1.0885
   32MOL   H55317975   8.015   0.629   4.383 -2.0177 -0.1858 -0.1807
   32MOL   H55417976   7.859   0.634   4.427 -0.0915  0.2278 -0.1152
   32MOL   H55517977   7.812   0.435   4.551  0.0285  1.0831  1.5264
   32MOL   H55617978   7.647   0.289   4.644 -2.0554 -1.7888 -0.2248
   32MOL   H55717979   7.413   0.204   4.640 -3.5093 -0.7827  1.5319
   32MOL   H55817980   7.327   0.511   4.461 -0.1487  0.1255  1.2722
   32MOL   H55917981   7.510   0.658   4.350  0.7136 -0.0808 -1.1226
   32MOL   H56017982   7.836   0.877   4.064 -0.0050  0.4225  1.7400
   32MOL   H56117983   8.065   0.958   4.009  0.3640 -2.0540 -1.1852
   32MOL   H56217984   7.300   0.292   4.553 -0.2213  3.8839 -0.4231
   33MOL     C117985   2.633   4.916   5.887 -0.2446  0.3842  0.4174
   33MOL     C217986   2.519   4.868   5.802  0.6049 -0.3845  0.0662
   33MOL     C317987   2.464   4.741   5.821 -0.5778 -0.9088 -0.1457
   33MOL     C417988   2.353   4.696   5.738 -0.3475 -0.7038  0.3421
   33MOL     C517989   2.285   4.795   5.660  0.0594 -0.2213  1.2282
   33MOL     C617990   2.187   4.752   5.562  0.3786 -1.2963 -0.5095
   33MOL     N717991   2.060   4.768   5.603 -0.0265  0.4269  0.0883
   33MOL     C817992   1.934   4.768   5.543 -0.3006  0.1215 -0.4221
   33MOL     C917993   1.824   4.770   5.628 -0.7616  0.2858  0.1954
   33MOL    C1017994   1.697   4.767   5.573 -0.6728 -0.5395 -0.4273
   33MOL    C1117995   1.669   4.771   5.434 -0.3198  0.0876  0.1028
   33MOL    N1217996   1.536   4.760   5.376  0.2102  0.0737  0.0049
   33MOL    C1317997   1.780   4.788   5.349  0.9774 -0.8071 -1.0219
   33MOL    C1417998   1.907   4.781   5.405 -0.6659 -0.0602 -0.3224
   33MOL    O1517999   2.219   4.720   5.453  0.6474  0.6965 -0.5815
   33MOL    C1618000   2.342   4.923   5.649 -0.0912  0.4277  0.1428
   33MOL    C1718001   2.464   4.957   5.711  0.6292  0.4478  0.3573
   33MOL    O1818002   2.690   4.839   5.968 -0.0122 -0.3310 -0.2334
   33MOL    H1918003   2.512   4.674   5.890 -0.6240 -0.7187  0.0728
   33MOL    H2018004   2.317   4.595   5.743 -0.5716 -0.6697 -0.4590
   33MOL    H2118005   2.059   4.805   5.697  0.0327  3.3114 -0.9952
   33MOL    H2218006   1.845   4.766   5.734 -0.1969 -1.6077  0.0348
   33MOL    H2318007   1.614   4.763   5.642  0.1175 -2.0864  0.4531
   33MOL    H2418008   1.530   4.797   5.282  1.0236 -0.8998 -0.4509
   33MOL    H2518009   1.772   4.792   5.241  0.4691 -0.0632 -0.9608
   33MOL    H2618010   1.991   4.790   5.338 -0.7502 -2.7254 -0.8338
   33MOL    H2718011   2.300   4.987   5.573  1.7929  1.8255  0.2532
   33MOL    H2818012   2.500   5.057   5.693 -2.7426  1.8195  0.9600
   33MOL    H2918013   2.679   5.014   5.868  1.8984 -0.8082 -0.7347
   33MOL    C3018014   1.429   4.700   5.430 -0.3487  0.2109 -0.4241
   33MOL    C3118015   1.289   4.742   5.385 -0.2392  0.3209  0.4737
   33MOL    C3218016   1.171   4.717   5.463 -0.5803  0.0722  0.1174
   33MOL    C3318017   1.043   4.759   5.429 -1.0600  0.5712 -0.5856
   33MOL    C3418018   1.028   4.836   5.314  0.6258 -0.1936 -0.3582
   33MOL    C3518019   0.901   4.898   5.280 -0.0537  0.5173 -0.1020
   33MOL    N3618020   0.864   4.854   5.154  1.3186 -0.3504  0.4740
   33MOL    C3718021   0.784   4.913   5.054 -0.9060  0.2675  0.5239
   33MOL    C3818022   0.756   4.834   4.941 -1.2308  0.1892  0.7656
   33MOL    C3918023   0.699   4.893   4.831 -1.1324  0.1744  0.5868
   33MOL    C4018024   0.672   5.031   4.828 -0.7126 -0.4558  0.4626
   33MOL    N4118025   0.629   5.089   4.706  0.3397  0.7517 -0.0763
   33MOL    C4218026   0.704   5.114   4.941 -0.3599 -0.4895  0.3959
   33MOL    C4318027   0.759   5.051   5.054  0.1529 -0.3895  0.0651
   33MOL    O4418028   0.834   4.960   5.356  0.1836 -0.1728  0.5543
   33MOL    C4518029   1.142   4.868   5.242 -0.6690 -0.4390 -0.4533
   33MOL    C4618030   1.271   4.818   5.265 -0.5950  0.0872  0.0575
   33MOL    O4718031   1.446   4.621   5.522 -0.2500  0.5778 -0.0919
   33MOL    H4818032   1.176   4.659   5.554  1.2888 -0.8169 -0.5230
   33MOL    H4918033   0.963   4.744   5.499 -1.3989  0.9991 -0.8831
   33MOL    H5018034   0.898   4.762   5.128  0.9385 -0.1530 -0.7309
   33MOL    H5118035   0.784   4.729   4.935 -2.8164 -0.2648  1.0222
   33MOL    H5218036   0.689   4.838   4.739 -2.1637 -0.2523  0.9469
   33MOL    H5318037   0.530   5.103   4.691 -0.2195 -1.9187  0.9026
   33MOL    H5418038   0.677   5.218   4.946  2.0559  0.1072  1.6333
   33MOL    H5518039   0.790   5.110   5.139  0.8861  2.1810 -1.9295
   33MOL    H5618040   1.130   4.923   5.150  1.5332  1.1447  0.1397
   33MOL    H5718041   1.351   4.840   5.195  0.4524  0.2186  1.2750
   33MOL    C5818042   0.711   5.144   4.622 -0.5337 -0.4387  0.0992
   33MOL    C5918043   0.647   5.257   4.544  0.1217 -1.0262 -0.0388
   33MOL    C6018044   0.536   5.330   4.590 -0.2266 -0.2542  0.0630
   33MOL    C6118045   0.461   5.419   4.507  0.3515 -0.1288  0.1094
   33MOL    C6218046   0.505   5.443   4.376 -1.0341  0.7797 -0.0695
   33MOL    C6318047   0.433   5.532   4.285  0.3587  0.4146  0.0694
   33MOL    N6418048   0.301   5.500   4.279 -0.2085 -0.0564 -0.2271
   33MOL    C6518049   0.200   5.576   4.213 -0.0103  0.1585 -0.1024
   33MOL    C6618050   0.090   5.500   4.170 -0.8671 -0.4994  0.2306
   33MOL    C6718051   8.117   5.571   4.142 -0.3210 -0.0612 -0.3147
   33MOL    C6818052   8.109   5.712   4.145 -0.3484 -0.0541  0.1271
   33MOL    N6918053   7.989   5.785   4.110  0.0009 -0.1275 -0.1478
   33MOL    C7018054   0.071   5.785   4.190 -0.3139  0.3570  0.5728
   33MOL    C7118055   0.186   5.717   4.231  0.1983 -0.0838  0.6871
   33MOL    O7218056   0.482   5.622   4.211 -0.0964  0.4422  0.1401
   33MOL    C7318057   0.623   5.381   4.335 -0.1659  0.9445 -0.0254
   33MOL    C7418058   0.701   5.292   4.416  0.1457 -0.1897  0.1019
   33MOL    O7518059   0.831   5.113   4.617  0.8773 -0.1330  0.4951
   33MOL    H7618060   0.506   5.296   4.688  1.4979 -1.9061  0.0371
   33MOL    H7718061   0.367   5.463   4.538  1.2855  1.3024  0.9364
   33MOL    H7818062   0.265   5.418   4.325 -0.0050  0.4114  0.7900
   33MOL    H7918063   0.088   5.393   4.166  0.9628 -0.5200 -0.6742
   33MOL    H8018064   8.029   5.519   4.108 -1.6631  0.6511  1.9332
   33MOL    H8118065   8.008   5.875   4.068  0.2456  0.1271  0.5017
   33MOL    H8218066   0.059   5.892   4.203 -1.3971  0.2262  0.6578
   33MOL    H8318067   0.261   5.782   4.273  0.1332  1.9102 -2.1151
   33MOL    H8418068   0.658   5.407   4.237  0.2405  2.3319  0.4724
   33MOL    H8518069   0.796   5.257   4.379  0.0222 -0.8851  0.4374
   33MOL    C8618070   7.862   5.770   4.147  0.1739 -0.1707  0.1762
   33MOL    C8718071   7.766   5.875   4.108  0.4704  0.5707 -0.0925
   33MOL    C8818072   7.632   5.872   4.157 -0.5666  0.1486  0.6680
   33MOL    C8918073   7.549   5.981   4.127  0.2572  0.3387 -0.0574
   33MOL    C9018074   7.595   6.091   4.057 -0.2116 -0.2640 -0.0999
   33MOL    C9118075   7.511   6.218   4.047  0.2861 -1.1361 -0.0014
   33MOL    N9218076   7.387   6.212   4.078  0.1030 -0.1067  0.2314
   33MOL    C9318077   7.294   6.320   4.097  0.0314  0.5042  0.3992
   33MOL    C9418078   7.157   6.288   4.107 -0.3208 -0.2552 -0.1857
   33MOL    C9518079   7.064   6.388   4.119 -0.0710  0.2010  0.1527
   33MOL    C9618080   7.100   6.524   4.121 -0.4838 -0.2381  0.8886
   33MOL    N9718081   7.011   6.633   4.142  0.0112  0.4251 -0.0081
   33MOL    C9818082   7.238   6.557   4.119  0.3916  0.1659 -0.4290
   33MOL    C9918083   7.337   6.453   4.094 -0.3376  0.3908 -0.0088
   33MOL   O10018084   7.561   6.320   4.003  1.0356  0.1135  0.3170
   33MOL   C10118085   7.722   6.085   4.003  0.9146  0.8943 -0.1258
   33MOL   C10218086   7.806   5.977   4.019  1.2467 -0.2088  0.3667
   33MOL   O10318087   7.825   5.669   4.216 -0.4176 -0.1236  0.1587
   33MOL   H10418088   7.606   5.793   4.226 -0.0565  0.0185  0.7168
   33MOL   H10518089   7.455   5.997   4.179  0.3816  0.8375  0.0151
   33MOL   H10618090   7.342   6.121   4.078  0.6263 -0.3813 -1.4048
   33MOL   H10718091   7.129   6.184   4.110  0.5610 -0.6113 -2.7848
   33MOL   H10818092   6.959   6.365   4.128 -0.2702  0.0389 -2.2855
   33MOL   H10918093   7.048   6.722   4.174  1.2907 -0.6931  1.6509
   33MOL   H11018094   7.276   6.657   4.135  0.8133 -0.2766  1.4376
   33MOL   H11118095   7.442   6.478   4.087 -0.2450  0.0446  0.1243
   33MOL   H11218096   7.752   6.177   3.954  1.8474  0.3875 -0.5379
   33MOL   H11318097   7.904   5.979   3.974  1.6044  1.9361  1.1462
   33MOL   C11418098   6.878   6.638   4.123  0.3807 -0.3010  0.1804
   33MOL   C11518099   6.827   6.777   4.136  0.1805  0.7286  0.4437
   33MOL   C11618100   6.885   6.861   4.235  0.7838 -0.1744  0.2483
   33MOL   C11718101   6.835   6.991   4.241  0.8406  0.6516 -1.0048
   33MOL   C11818102   6.742   7.045   4.151  0.5916 -0.8791 -0.1358
   33MOL   C11918103   6.713   7.199   4.147 -0.0584  0.2281 -0.5024
   33MOL   N12018104   6.816   7.281   4.143 -0.7162 -0.4979 -0.2709
   33MOL   C12118105   6.954   7.246   4.144  0.9458 -0.6885 -0.4533
   33MOL   C12218106   7.015   7.176   4.043  0.0365 -0.0900 -0.2959
   33MOL   C12318107   7.149   7.125   4.055 -0.2856  0.1115 -0.1467
   33MOL   C12418108   7.214   7.142   4.180 -0.8000  0.2610 -1.1535
   33MOL   N12518109   7.340   7.085   4.196  0.1848 -0.0393  0.3216
   33MOL   C12618110   7.156   7.207   4.290  0.3845 -0.2512  0.7901
   33MOL   C12718111   7.030   7.260   4.266 -0.2245  0.0784 -0.3360
   33MOL   O12818112   6.601   7.242   4.122 -0.6610  0.0548 -0.5140
   33MOL   C12918113   6.679   6.960   4.058 -0.1760 -0.9695 -0.1070
   33MOL   C13018114   6.721   6.823   4.053 -0.6411  0.5990 -0.6658
   33MOL   O13118115   6.806   6.544   4.090  0.1908 -0.0776 -0.7441
   33MOL   H13218116   6.958   6.818   4.302  0.2394 -0.0639  0.9284
   33MOL   H13318117   6.887   7.065   4.300  1.3080 -1.2067  0.9627
   33MOL   H13418118   6.798   7.376   4.171 -2.5052 -0.7032 -0.7068
   33MOL   H13518119   6.963   7.157   3.951  1.7331 -1.9485 -0.9213
   33MOL   H13618120   7.185   7.078   3.964 -2.3200 -0.4854 -0.6786
   33MOL   H13718121   7.412   7.150   4.222  1.0998 -1.1698  0.6903
   33MOL   H13818122   7.198   7.209   4.390 -0.8935 -0.7656  1.3473
   33MOL   H13918123   6.983   7.298   4.356 -0.2471  0.4669 -0.5117
   33MOL   H14018124   6.598   7.003   4.002  0.9383 -0.9894 -1.7727
   33MOL   H14118125   6.670   6.752   3.990 -0.0024 -1.1072  0.6992
   33MOL   C14218126   7.359   6.957   4.238 -0.8922  0.3318 -0.5232
   33MOL   C14318127   7.498   6.921   4.291  0.4040 -0.3246 -0.2219
   33MOL   C14418128   7.551   6.796   4.251 -0.6445 -0.3238 -1.0296
   33MOL   C14518129   7.673   6.752   4.303  0.5426  0.5356 -0.3208
   33MOL   C14618130   7.755   6.837   4.374  0.4310  0.4152 -0.0482
   33MOL   C14718131   7.900   6.798   4.411  0.4788 -0.0426 -0.3294
   33MOL   N14818132   7.978   6.907   4.424 -0.1726  0.7145  0.5400
   33MOL   C14918133   8.118   6.906   4.468 -0.0430 -0.6447  0.1786
   33MOL   C15018134   0.027   7.037   4.466  0.1224 -0.1489 -0.5283
   33MOL   C15118135   0.163   7.063   4.483  1.0032  0.1721  0.4529
   33MOL   C15218136   0.252   6.958   4.506 -0.1842  0.1005 -0.8768
   33MOL   N15318137   0.394   6.998   4.513 -0.2507  0.2814 -0.6992
   33MOL   C15418138   0.203   6.824   4.507  0.1930 -0.0514  0.2113
   33MOL   C15518139   0.066   6.796   4.482  0.8370  0.1405 -0.3952
   33MOL   O15618140   7.933   6.683   4.441  0.1312  0.0033  0.5328
   33MOL   C15718141   7.699   6.963   4.410 -1.2200  0.4455 -0.9507
   33MOL   C15818142   7.571   7.005   4.374  0.1185 -0.3137  0.2194
   33MOL   O15918143   7.265   6.871   4.234 -0.0899  1.2006  0.6440
   33MOL   H16018144   7.491   6.735   4.185  0.1879 -0.4064 -1.7166
   33MOL   H16118145   7.709   6.654   4.273 -0.0927  0.8836 -2.2740
   33MOL   H16218146   7.929   6.992   4.401 -0.6264  0.2446 -0.2305
   33MOL   H16318147   8.110   7.125   4.463 -1.0943 -0.9755 -0.0427
   33MOL   H16418148   0.199   7.164   4.493  1.7574  0.0002 -0.4612
   33MOL   H16518149   0.408   7.095   4.491 -0.4902  0.8843  1.6728
   33MOL   H16618150   0.275   6.743   4.506  0.8038  0.4793  0.9561
   33MOL   H16718151   0.018   6.700   4.470  0.8771  0.1232 -0.4190
   33MOL   H16818152   7.766   7.020   4.474 -1.0537 -0.9287  0.1206
   33MOL   H16918153   7.537   7.099   4.415  2.7273  0.2141  1.3297
   33MOL   C17018154   0.504   6.930   4.542  0.6707 -0.2559  0.5856
   33MOL   C17118155   0.622   7.021   4.551 -0.3121  0.1028 -0.5896
   33MOL   C17218156   0.747   6.957   4.578 -0.4785  0.7362  0.4155
   33MOL   C17318157   0.864   7.030   4.597  0.0923  0.3793  0.5071
   33MOL   C17418158   0.856   7.175   4.597 -0.1899 -0.0020 -0.2970
   33MOL   C17518159   0.977   7.249   4.647  0.0577 -0.2508  0.6053
   33MOL   N17618160   0.972   7.382   4.634 -0.3508 -0.0568 -0.4216
   33MOL   C17718161   1.074   7.479   4.667 -0.1363 -0.2227 -0.5046
   33MOL   C17818162   1.032   7.595   4.737  0.0183 -0.0883 -0.3140
   33MOL   C17918163   1.118   7.700   4.775  0.3410 -0.4445 -0.2944
   33MOL   C18018164   1.253   7.684   4.735 -0.4611 -0.0535  0.3060
   33MOL   N18118165   1.349   7.784   4.755  0.0901  0.6320 -0.1988
   33MOL   C18218166   1.299   7.567   4.669 -0.2293 -0.1905  0.1849
   33MOL   C18318167   1.209   7.467   4.631 -0.8836  0.4252  0.0871
   33MOL   O18418168   1.068   7.180   4.698  0.4574 -0.2475  0.0334
   33MOL   C18518169   0.737   7.230   4.558  0.6805 -0.1333 -0.0603
   33MOL   C18618170   0.617   7.161   4.539 -0.5884 -0.1816  0.1734
   33MOL   O18718171   0.507   6.807   4.567 -0.0230 -0.2976 -0.0310
   33MOL   H18818172   0.752   6.850   4.582 -2.0629  0.6679  1.2866
   33MOL   H18918173   0.954   6.988   4.638 -0.2504 -2.5730 -1.6603
   33MOL   H19018174   0.888   7.426   4.601  0.4165  2.2040  0.4950
   33MOL   H19118175   0.930   7.623   4.761  0.4739  0.7109  0.7256
   33MOL   H19218176   1.076   7.790   4.817  0.6613 -0.4338  0.0022
   33MOL   H19318177   1.445   7.757   4.740  0.1158  0.5217  0.1623
   33MOL   H19418178   1.401   7.537   4.653  0.4190  0.9880  1.9092
   33MOL   H19518179   1.244   7.377   4.582 -0.0842  0.5827  0.3696
   33MOL   H19618180   0.731   7.337   4.554  2.8588  0.0358  0.7713
   33MOL   H19718181   0.532   7.223   4.518  0.1568  1.7497  2.6623
   33MOL   C19818182   1.329   7.910   4.789 -0.0460 -0.2536 -0.0050
   33MOL   C19918183   1.459   7.989   4.814  0.1093  0.5089 -0.1389
   33MOL   C20018184   1.581   7.957   4.765 -0.4006  0.0813 -0.0908
   33MOL   C20118185   1.694   8.026   4.811 -0.5910 -0.2545 -0.7702
   33MOL   C20218186   1.684   8.135   4.894 -0.4864 -0.3762  0.5030
   33MOL   C20318187   1.808   0.063   4.933 -0.0691 -0.6534  0.0334
   33MOL   N20418188   1.797   0.199   4.950 -0.1338  0.5705  0.2508
   33MOL   C20518189   1.898   0.296   4.979  0.1613 -0.1051 -0.8466
   33MOL   C20618190   1.906   0.416   4.911  0.1601  0.2439 -0.7322
   33MOL   C20718191   2.009   0.512   4.933  0.2170 -0.2356 -0.3209
   33MOL   C20818192   2.117   0.473   5.017  0.6413  0.1057 -0.6445
   33MOL   N20918193   2.227   0.559   5.010  0.0101 -0.5177  0.0930
   33MOL   C21018194   2.109   0.347   5.089 -0.4736 -0.6437  0.0348
   33MOL   C21118195   1.999   0.259   5.065  0.0583  0.1847 -0.8689
   33MOL   O21218196   1.922   0.012   4.918 -0.2129 -0.8508 -0.0441
   33MOL   C21318197   1.559   0.026   4.936 -0.3101  0.4891  0.3876
   33MOL   C21418198   1.445   8.102   4.895 -0.0739  0.0153  0.1643
   33MOL   O21518199   1.222   7.968   4.789  0.1241 -0.0457  0.1423
   33MOL   H21618200   1.592   7.869   4.703  0.7137 -0.4757  0.8813
   33MOL   H21718201   1.790   7.996   4.772 -0.6884 -1.0307 -0.4328
   33MOL   H21818202   1.707   0.239   4.932 -0.8865 -1.1575  0.0599
   33MOL   H21918203   1.824   0.451   4.850  0.0155  1.6145  0.2226
   33MOL   H22018204   2.008   0.606   4.878  1.0440  0.7200  1.2629
   33MOL   H22118205   2.217   0.630   4.939  0.9822  1.3971  1.8071
   33MOL   H22218206   2.194   0.315   5.148 -0.2878  0.1998  0.2330
   33MOL   H22318207   1.994   0.172   5.129  3.2025  1.5473  1.4014
   33MOL   H22418208   1.545   0.107   5.006 -0.2768  0.9124 -0.0877
   33MOL   H22518209   1.345   8.123   4.931 -0.6371 -2.8167  0.3873
   33MOL   C22618210   2.341   0.565   5.076 -0.9976 -0.3697 -0.0637
   33MOL   C22718211   2.435   0.663   5.017  0.2150  0.4840 -0.2473
   33MOL   C22818212   2.576   0.644   5.036  0.9935 -0.3869  0.3378
   33MOL   C22918213   2.672   0.723   4.967  0.1074  0.4909  0.0610
   33MOL   C23018214   2.624   0.817   4.872 -0.2158  0.1280 -0.0541
   33MOL   C23118215   2.713   0.892   4.783  0.0175  0.4286  0.5356
   33MOL   N23218216   2.729   0.856   4.656  0.0504 -0.0558  0.3247
   33MOL   C23318217   2.657   0.754   4.591  0.2195  0.1706  0.3592
   33MOL   C23418218   2.544   0.801   4.517  0.1600 -0.1234 -0.7186
   33MOL   C23518219   2.468   0.705   4.448 -0.4250 -0.3885 -0.3019
   33MOL   C23618220   2.507   0.567   4.440  0.3117 -0.4271  0.1589
   33MOL   N23718221   2.421   0.489   4.356 -0.2868 -0.8161 -0.5590
   33MOL   C23818222   2.622   0.526   4.508  0.2588 -0.5879  0.4633
   33MOL   C23918223   2.700   0.621   4.584  0.0982  0.5964 -0.2433
   33MOL   O24018224   2.783   0.984   4.829  0.0502  0.0999  0.4631
   33MOL   C24118225   2.487   0.832   4.855 -0.2777 -0.0813 -0.4123
   33MOL   C24218226   2.392   0.762   4.935 -0.4112 -0.2935  0.6837
   33MOL   O24318227   2.378   0.489   5.164  0.1911  0.2820 -0.1328
   33MOL   H24418228   2.611   0.576   5.112 -2.1735 -0.3224  1.9325
   33MOL   H24518229   2.776   0.707   4.990  0.4321  2.9567  0.4716
   33MOL   H24618230   2.791   0.917   4.605  1.2221  0.1152  1.9339
   33MOL   H24718231   2.518   0.906   4.518 -1.8924 -0.5991 -1.2105
   33MOL   H24818232   2.378   0.735   4.396 -1.0455 -2.6992 -0.6171
   33MOL   H24918233   2.373   0.530   4.276  0.2323  1.3148  0.1764
   33MOL   H25018234   2.660   0.427   4.488  0.2536 -0.6049  0.5354
   33MOL   H25118235   2.798   0.591   4.619  0.5289  0.1025 -1.8185
   33MOL   H25218236   2.444   0.918   4.805 -1.6486 -0.3647  0.2650
   33MOL   H25318237   2.287   0.784   4.917 -0.0161  1.0227 -0.0850
   33MOL   C25418238   2.378   0.366   4.377 -0.4924 -0.5714  0.5681
   33MOL   C25518239   2.260   0.331   4.281  0.6968 -0.1566  0.4182
   33MOL   C25618240   2.210   0.204   4.288 -0.4571  0.5694  0.0836
   33MOL   C25718241   2.112   0.162   4.208 -0.2980 -1.0151 -0.4446
   33MOL   C25818242   2.065   0.254   4.106 -0.0108 -0.3276 -0.6907
   33MOL   C25918243   1.961   0.197   4.014 -0.3796 -0.3314 -0.8131
   33MOL   N26018244   1.938   0.061   4.020 -0.0346 -0.3778 -0.6790
   33MOL   C26118245   1.835   8.135   3.951 -0.5603 -0.4091  0.2468
   33MOL   C26218246   1.792   0.016   3.822 -0.1585  0.2528 -0.4199
   33MOL   C26318247   1.680   8.097   3.767  0.0889 -0.1378 -0.1205
   33MOL   C26418248   1.608   8.004   3.840 -0.0147 -0.6113 -0.3093
   33MOL   N26518249   1.483   7.949   3.801  0.0899 -0.2039  0.1549
   33MOL   C26618250   1.656   7.971   3.976 -0.6990  0.5667  0.4908
   33MOL   C26718251   1.773   8.033   4.020 -0.0676 -0.0298 -0.1726
   33MOL   O26818252   1.902   0.270   3.941  0.6973  0.0973  0.3783
   33MOL   C26918253   2.111   0.387   4.103 -0.1093  0.3290  0.1729
   33MOL   C27018254   2.214   0.428   4.189 -0.3661  0.2539  0.1411
   33MOL   O27118255   2.422   0.287   4.461 -0.3386  0.3921 -0.8464
   33MOL   H27218256   2.251   0.133   4.358  1.8634  1.4511 -0.3467
   33MOL   H27318257   2.070   0.071   4.246  1.3213 -1.4557  0.3136
   33MOL   H27418258   1.994   0.018   4.093 -1.9169  0.5169  1.3522
   33MOL   H27518259   1.834   0.094   3.760 -0.7448  1.0806  0.2223
   33MOL   H27618260   1.641   8.131   3.672 -2.4120  0.5961  1.1198
   33MOL   H27718261   1.412   7.949   3.872  0.4425  2.3146  0.5639
   33MOL   H27818262   1.598   7.906   4.040  0.6422  0.4290  1.5971
   33MOL   H27918263   1.814   7.998   4.114 -0.3285 -1.4036 -0.5581
   33MOL   H28018264   2.084   0.453   4.021  1.8145 -1.1683 -1.7343
   33MOL   H28118265   2.255   0.528   4.190  0.5163 -0.1139  1.1573
   33MOL   C28218266   1.456   7.883   3.686 -0.5269  0.2004 -0.4781
   33MOL   C28318267   1.312   7.834   3.664 -0.5917 -0.5361  0.5587
   33MOL   C28418268   1.282   7.728   3.579  0.0114  0.1425 -0.0538
   33MOL   C28518269   1.145   7.699   3.548 -0.6018  0.4861  0.1412
   33MOL   C28618270   1.038   7.753   3.624 -0.4199  0.3632  0.3832
   33MOL   C28718271   0.899   7.708   3.600 -0.1110 -0.7603 -0.7358
   33MOL   N28818272   0.808   7.785   3.658  0.0430  0.4111 -0.0928
   33MOL   C28918273   0.671   7.769   3.677 -0.9028 -0.1241  0.2478
   33MOL   C29018274   0.586   7.693   3.600 -0.3492  0.3945  0.0252
   33MOL   C29118275   0.451   7.686   3.629 -0.3139 -0.3229 -0.0130
   33MOL   C29218276   0.397   7.742   3.751 -0.0143 -0.4388  0.5867
   33MOL   N29318277   0.259   7.713   3.789 -0.4683 -0.1190  0.3640
   33MOL   C29418278   0.483   7.824   3.828 -0.0887  0.1950 -0.1741
   33MOL   C29518279   0.614   7.854   3.779  0.0984  0.5549  0.6284
   33MOL   O29618280   0.870   7.610   3.531 -0.2976 -0.2335 -0.2254
   33MOL   C29718281   1.074   7.852   3.715 -0.8959 -0.1647 -0.1438
   33MOL   C29818282   1.207   7.903   3.725  0.4353 -0.1659 -0.4010
   33MOL   O29918283   1.543   7.858   3.607 -0.3060 -0.3987  0.1366
   33MOL   H30018284   1.366   7.686   3.526  0.0981  0.6576 -0.3334
   33MOL   H30118285   1.124   7.612   3.487  0.1153  0.4320 -0.0331
   33MOL   H30218286   0.856   7.859   3.706 -3.0293  2.0802  0.5110
   33MOL   H30318287   0.620   7.642   3.510 -0.3266 -0.3939  0.4709
   33MOL   H30418288   0.394   7.617   3.569 -2.0239 -1.1523  2.5009
   33MOL   H30518289   0.191   7.686   3.720  2.4573 -2.5617 -1.7214
   33MOL   H30618290   0.438   7.877   3.910 -3.0202 -2.2817 -0.0900
   33MOL   H30718291   0.667   7.926   3.840  0.0800  0.5203  0.6856
   33MOL   H30818292   0.997   7.903   3.771 -1.5745  0.4505 -1.6058
   33MOL   H30918293   1.208   7.978   3.802  1.9888  1.0703 -1.5955
   33MOL   C31018294   0.217   7.712   3.919 -0.4205 -0.0494  0.3690
   33MOL   C31118295   0.070   7.688   3.936  0.1911 -0.5264  0.1412
   33MOL   C31218296   8.140   7.764   4.033 -0.3707 -0.0462 -0.3574
   33MOL   C31318297   8.003   7.732   4.061 -0.7636 -0.3253  0.3000
   33MOL   C31418298   7.941   7.647   3.975 -0.2097 -0.0006  0.6378
   33MOL   C31518299   7.799   7.613   3.996  0.1165 -0.1563 -0.2362
   33MOL   N31618300   7.708   7.656   3.908  0.3563 -0.7801 -0.4413
   33MOL   C31718301   7.579   7.596   3.894  0.4621 -0.1442 -0.3480
   33MOL   C31818302   7.471   7.681   3.868 -0.4085 -0.1958  0.1135
   33MOL   C31918303   7.344   7.631   3.844 -0.2303  0.7292  0.1623
   33MOL   C32018304   7.322   7.488   3.832 -0.1886 -0.5645 -0.9180
   33MOL   N32118305   7.201   7.429   3.807 -0.6524  0.0848 -1.0634
   33MOL   C32218306   7.437   7.406   3.844  0.2438  0.7720 -0.2175
   33MOL   C32318307   7.564   7.458   3.872 -0.1146  0.5367  0.1828
   33MOL   O32418308   7.773   7.555   4.100  0.1111 -0.1469  0.3533
   33MOL   C32518309   8.005   7.578   3.876 -0.7173 -0.2776  0.1147
   33MOL   C32618310   8.145   7.585   3.867  0.3781 -0.3575 -0.0318
   33MOL   O32718311   0.285   7.738   4.020  0.7142 -0.1497 -0.3437
   33MOL   H32818312   0.044   7.844   4.086  1.1122 -2.2981  1.7522
   33MOL   H32918313   7.948   7.785   4.138  0.2251  4.0761 -1.8523
   33MOL   H33018314   7.744   7.710   3.831  2.0639  0.2329  1.0396
   33MOL   H33118315   7.494   7.786   3.882  2.1763 -0.8186  0.9151
   33MOL   H33218316   7.259   7.696   3.836  0.5635  1.7177 -0.3043
   33MOL   H33318317   7.194   7.333   3.838  2.9130 -0.2163 -1.0645
   33MOL   H33418318   7.417   7.301   3.827  0.7095  0.3591  1.6255
   33MOL   H33518319   7.654   7.399   3.877 -0.7251 -0.6198 -1.9244
   33MOL   H33618320   7.961   7.507   3.807  0.0820 -0.8453  0.1929
   33MOL   H33718321   0.056   7.522   3.800  0.3795 -1.8273  1.3189
   33MOL   C33818322   7.084   7.487   3.772  0.1621 -0.3099 -0.4591
   33MOL   C33918323   6.962   7.392   3.774 -0.2178 -0.4955 -0.5039
   33MOL   C34018324   6.966   7.267   3.705 -0.2771 -0.2630 -0.0528
   33MOL   C34118325   6.851   7.189   3.695  0.6672  0.1598  0.4935
   33MOL   C34218326   6.736   7.236   3.752 -0.1609 -0.6454 -0.0915
   33MOL   C34318327   6.603   7.170   3.723 -0.0718  0.3789 -0.4467
   33MOL   N34418328   6.506   7.207   3.805 -0.3258 -0.3050 -0.1511
   33MOL   C34518329   6.365   7.173   3.800  0.0876  0.2203  0.0241
   33MOL   C34618330   6.299   7.091   3.704  0.2074  0.2922 -1.2632
   33MOL   C34718331   6.163   7.076   3.711  0.2359  0.5867 -0.4975
   33MOL   C34818332   6.086   7.129   3.819  0.6717  0.2079 -0.8698
   33MOL   N34918333   5.946   7.116   3.810  0.2719 -0.3387 -0.0788
   33MOL   C35018334   6.149   7.192   3.924 -0.0896  0.1933  0.2124
   33MOL   C35118335   6.288   7.223   3.904 -0.4615  0.4713 -0.2249
   33MOL   O35218336   6.593   7.086   3.637  0.2799 -0.5023 -0.2554
   33MOL   C35318337   6.729   7.364   3.810 -0.8011 -0.4677 -0.2071
   33MOL   C35418338   6.845   7.442   3.830 -0.0650  0.2374 -0.8784
   33MOL   O35518339   7.071   7.606   3.734 -0.1225  0.2287  0.0862
   33MOL   H35618340   7.050   7.222   3.655  0.9947 -1.4502  3.0199
   33MOL   H35718341   6.866   7.101   3.635  0.1221  1.2598 -1.3044
   33MOL   H35818342   6.549   7.263   3.878 -0.5710 -0.5418  0.1751
   33MOL   H35918343   6.351   7.074   3.611  0.4153  3.1470 -1.7319
   33MOL   H36018344   6.118   7.026   3.626 -1.2489 -0.0961  0.6565
   33MOL   H36118345   5.902   7.046   3.868 -0.0255 -0.9563 -1.0373
   33MOL   H36218346   6.091   7.230   4.007 -1.9169  1.2451 -1.4782
   33MOL   H36318347   6.342   7.276   3.981  1.5306 -1.8412  0.0196
   33MOL   H36418348   6.638   7.417   3.835 -0.2974  0.1908  0.2647
   33MOL   H36518349   6.841   7.539   3.878 -0.4253 -0.8878  1.4186
   33MOL   C36618350   5.860   7.201   3.747 -0.3360  0.0771 -0.0919
   33MOL   C36718351   5.909   7.329   3.683 -0.0007  0.3951 -0.4043
   33MOL   C36818352   5.993   7.330   3.574 -0.8359 -0.3416  0.0597
   33MOL   C36918353   6.040   7.452   3.518 -0.9364  0.4020  0.1915
   33MOL   C37018354   6.003   7.577   3.582 -0.0201  0.6563  0.4076
   33MOL   C37118355   6.064   7.708   3.533 -0.6405 -0.2191 -0.1885
   33MOL   N37218356   5.999   7.823   3.560  0.0816  0.2228  0.0078
   33MOL   C37318357   6.040   7.955   3.524 -0.4809  0.2206 -0.8075
   33MOL   C37418358   6.074   7.987   3.389  0.0875  0.2118  0.5922
   33MOL   C37518359   6.130   8.111   3.352 -0.7656 -0.5584  0.1471
   33MOL   C37618360   6.162   0.059   3.457  1.2018 -0.4401 -0.3556
   33MOL   N37718361   6.231   0.180   3.428  0.2193 -0.1881  0.1422
   33MOL   C37818362   6.124   0.027   3.590 -0.4222 -0.5399  0.3013
   33MOL   C37918363   6.073   8.049   3.626  0.1977 -0.3429 -0.0172
   33MOL   O38018364   6.156   7.706   3.460 -0.6814  0.1404 -0.2565
   33MOL   C38118365   5.913   7.569   3.686  0.1030 -0.3523  0.0470
   33MOL   C38218366   5.858   7.448   3.727  0.0851  0.3695 -0.4772
   33MOL   O38318367   5.746   7.158   3.733  0.4569 -0.0844 -0.1162
   33MOL   H38418368   6.017   7.238   3.523 -0.8198  0.6442 -1.7720
   33MOL   H38518369   6.110   7.449   3.436  0.6136 -0.1789  1.4970
   33MOL   H38618370   5.916   7.829   3.617 -0.5728  1.8042 -1.0769
   33MOL   H38718371   6.029   7.931   3.309 -2.6340  1.5328  1.1587
   33MOL   H38818372   6.142   8.127   3.246 -0.3231 -0.5542  0.1990
   33MOL   H38918373   6.225   0.212   3.332  0.2770  2.7921  1.0855
   33MOL   H39018374   6.164   0.094   3.665  0.9549 -0.2002 -0.7257
   33MOL   H39118375   6.067   8.026   3.732 -2.1043 -0.4373 -0.1365
   33MOL   H39218376   5.873   7.655   3.738  0.0529 -1.0801  1.2151
   33MOL   H39318377   5.782   7.454   3.803  0.3312 -3.3477  0.1698
   33MOL   C39418378   6.329   0.236   3.499 -0.3510 -0.6981  0.1006
   33MOL   C39518379   6.424   0.321   3.420  0.1514  0.0823 -0.1250
   33MOL   C39618380   6.563   0.304   3.452 -0.0471 -0.9663  0.3686
   33MOL   C39718381   6.659   0.391   3.386  0.0167 -0.1276 -0.6531
   33MOL   C39818382   6.612   0.492   3.298 -0.3000 -0.1273  0.8570
   33MOL   C39918383   6.713   0.578   3.221  0.6269 -0.7001 -0.8300
   33MOL   N40018384   6.759   0.517   3.111  0.3351 -0.1508 -0.4016
   33MOL   C40118385   6.890   0.527   3.064  0.5411  0.2950 -0.0928
   33MOL   C40218386   6.936   0.654   3.022 -0.3543  0.8245  0.2371
   33MOL   C40318387   7.070   0.661   2.978 -0.4967  0.4559  0.3564
   33MOL   C40418388   7.151   0.548   2.962  0.4564 -0.2742  0.0970
   33MOL   N40518389   7.288   0.550   2.917  0.0039 -0.1570 -0.2577
   33MOL   C40618390   7.095   0.421   2.987  0.2054 -0.3749 -0.9709
   33MOL   C40718391   6.965   0.413   3.045 -0.5264 -0.0739  0.2723
   33MOL   O40818392   6.750   0.690   3.268  0.0048  0.0693  0.2978
   33MOL   C40918393   6.474   0.512   3.268  0.0108 -0.1474 -0.0484
   33MOL   C41018394   6.383   0.424   3.334  0.2846  0.6299 -0.0367
   33MOL   O41118395   6.340   0.218   3.624 -0.2118  0.3546  0.0589
   33MOL   H41218396   6.585   0.226   3.523 -0.3331 -0.5560  0.9050
   33MOL   H41318397   6.764   0.368   3.399  0.5909  2.1705 -0.9268
   33MOL   H41418398   6.695   0.447   3.076  0.6969 -0.2749 -0.8130
   33MOL   H41518399   6.876   0.742   3.040 -0.2315  1.2858 -1.5481
   33MOL   H41618400   7.108   0.761   2.967  1.7246 -0.5651 -1.7738
   33MOL   H41718401   7.324   0.456   2.902 -0.2841 -0.1993 -0.6943
   33MOL   H41818402   7.139   0.322   2.982 -2.1758 -1.3431 -3.8310
   33MOL   H41918403   6.938   0.315   3.083 -1.7928  0.4956  0.8495
   33MOL   H42018404   6.446   0.592   3.203 -0.0755  1.2962  1.7188
   33MOL   H42118405   6.279   0.437   3.308  0.1153 -1.7631 -0.6326
   33MOL   C42218406   7.373   0.649   2.883  0.1078  0.7000  0.3325
   33MOL   C42318407   7.511   0.614   2.833  0.2725 -0.0137  0.7340
   33MOL   C42418408   7.617   0.711   2.823  0.3362  0.2596  0.2675
   33MOL   C42518409   7.745   0.673   2.779 -1.0833 -0.4750 -0.3928
   33MOL   C42618410   7.768   0.550   2.720  0.2070  0.3989 -0.1524
   33MOL   C42718411   7.908   0.501   2.683 -0.8002 -0.5572 -0.8271
   33MOL   N42818412   7.929   0.374   2.687 -0.3231  0.2335 -0.3116
   33MOL   C42918413   8.032   0.299   2.628 -0.3241 -0.1000  0.2629
   33MOL   C43018414   0.004   0.360   2.571  0.1897 -0.3280  0.2048
   33MOL   C43118415   0.102   0.278   2.516  0.1622  0.5648  0.0156
   33MOL   C43218416   0.073   0.142   2.491 -0.6758  0.2678  0.1927
   33MOL   N43318417   0.156   0.052   2.422  0.7203  0.1078 -0.4595
   33MOL   C43418418   8.100   0.080   2.539  0.3242  0.1373  0.0070
   33MOL   C43518419   8.006   0.160   2.609 -0.5169  1.3483 -0.3390
   33MOL   O43618420   7.996   0.591   2.668 -0.1418  0.4341  0.0778
   33MOL   C43718421   7.655   0.466   2.706  0.1028 -0.1601  0.7666
   33MOL   C43818422   7.534   0.490   2.769  0.1008  0.4061 -0.8091
   33MOL   O43918423   7.338   0.766   2.896  0.1032 -0.2098 -0.3227
   33MOL   H44018424   7.594   0.811   2.856 -0.9933 -0.2581  0.9559
   33MOL   H44118425   7.825   0.745   2.784 -3.0303  1.6838  0.4874
   33MOL   H44218426   7.851   0.315   2.715  1.0805 -1.5579 -0.0402
   33MOL   H44318427   0.030   0.462   2.594 -0.9774  0.3951 -1.5429
   33MOL   H44418428   0.195   0.323   2.485  0.7876 -1.3252 -0.9359
   33MOL   H44518429   0.109   8.115   2.387  1.2441  0.5196 -2.1687
   33MOL   H44618430   8.082   8.120   2.530  1.7063 -0.4740  3.8856
   33MOL   H44718431   7.921   0.112   2.654  0.3755  1.4021  1.4959
   33MOL   H44818432   7.668   0.384   2.637  0.7734  1.5505 -1.2269
   33MOL   H44918433   7.454   0.418   2.756 -0.3307  0.9660 -1.3158
   33MOL   C45018434   0.280   0.072   2.380  0.0878  0.0595 -0.1511
   33MOL   C45118435   0.336   8.110   2.291 -0.2084 -0.6773  0.7005
   33MOL   C45218436   0.405   8.138   2.173 -0.2585  0.1630  0.5989
   33MOL   C45318437   0.438   8.032   2.083  0.4525  0.1112 -0.7087
   33MOL   C45418438   0.417   7.898   2.119  0.0706 -0.5745 -0.2086
   33MOL   C45518439   0.448   7.793   2.018  0.0005  0.1036 -0.4078
   33MOL   N45618440   0.459   7.674   2.074 -0.0755 -0.0363  0.1809
   33MOL   C45718441   0.465   7.539   2.025 -0.5051 -0.4781  0.8689
   33MOL   C45818442   0.505   7.506   1.891 -0.1630  0.0656 -0.2103
   33MOL   C45918443   0.496   7.378   1.845  0.3038 -0.1000 -0.2518
   33MOL   C46018444   0.450   7.274   1.930  0.5135 -0.1536  0.1273
   33MOL   N46118445   0.461   7.142   1.881 -0.1161  0.4216  0.1386
   33MOL   C46218446   0.405   7.306   2.058  0.3222 -0.1291  0.0097
   33MOL   C46318447   0.412   7.436   2.110  1.4614  0.0869 -0.2976
   33MOL   O46418448   0.471   7.824   1.902  0.0892 -0.0093  0.4198
   33MOL   C46518449   0.349   7.867   2.241 -0.7974 -0.1464 -0.6101
   33MOL   C46618450   0.307   7.970   2.326  0.0443 -0.2983 -0.2813
   33MOL   O46718451   0.350   0.172   2.400 -0.2140 -0.2080 -0.5274
   33MOL   H46818452   0.415   0.095   2.142  0.6881 -0.3299 -0.7497
   33MOL   H46918453   0.491   8.064   1.995 -0.2512 -0.4297 -1.3457
   33MOL   H47018454   0.445   7.676   2.174 -1.5146 -1.2603  0.0103
   33MOL   H47118455   0.558   7.582   1.836  1.6409  0.6735  2.2945
   33MOL   H47218456   0.528   7.351   1.746  1.0372 -2.5937  0.6196
   33MOL   H47318457   0.542   7.134   1.822 -0.5259 -3.5820 -0.0006
   33MOL   H47418458   0.372   7.227   2.124  0.4259 -0.5991 -0.4949
   33MOL   H47518459   0.383   7.450   2.214  1.5611  1.5179 -0.4661
   33MOL   H47618460   0.312   7.768   2.263 -1.2793  0.1438 -0.1033
   33MOL   H47718461   0.252   7.932   2.411  2.7502 -1.0622  1.2175
   33MOL   C47818462   0.381   7.032   1.908 -0.2719 -0.1482 -0.5333
   33MOL   C47918463   0.405   6.904   1.839  0.1280 -0.9524  0.2013
   33MOL   C48018464   0.486   6.903   1.723  0.3560 -0.0206 -0.0959
   33MOL   C48118465   0.499   6.783   1.647 -0.5836 -0.1551 -0.4448
   33MOL   C48218466   0.434   6.667   1.688  0.0910  0.1565  0.1600
   33MOL   C48318467   0.451   6.536   1.607  0.4755 -0.0597  0.0233
   33MOL   N48418468   0.338   6.478   1.560 -0.2126 -0.1562 -0.0665
   33MOL   C48518469   0.327   6.371   1.459  0.3185 -0.8706  0.4717
   33MOL   C48618470   0.205   6.309   1.443  0.5242 -0.2508 -0.4274
   33MOL   C48718471   0.185   6.204   1.348 -1.1782 -0.2378  0.6947
   33MOL   C48818472   0.290   6.157   1.271 -0.3835  0.4383  0.2509
   33MOL   N48918473   0.289   6.029   1.210 -0.3177  0.1834  0.2341
   33MOL   C49018474   0.410   6.233   1.278  0.1350 -0.4505  0.5899
   33MOL   C49118475   0.436   6.335   1.377  0.1415  0.2080  0.2093
   33MOL   O49218476   0.566   6.489   1.594 -0.8063 -0.3962 -0.1160
   33MOL   C49318477   0.352   6.674   1.804 -0.1044  0.8191 -0.3839
   33MOL   C49418478   0.330   6.790   1.876  0.2770  0.0297 -0.2092
   33MOL   O49518479   0.289   7.035   1.997  0.4962  0.3038 -0.3671
   33MOL   H49618480   0.525   6.994   1.680 -1.6196 -0.5571 -3.1568
   33MOL   H49718481   0.550   6.786   1.552  0.6496  1.7658  0.2507
   33MOL   H49818482   0.256   6.522   1.598 -1.0880  1.1600 -3.2824
   33MOL   H49918483   0.117   6.339   1.498 -0.3344  2.2023 -3.0279
   33MOL   H50018484   0.096   6.145   1.367  0.5857 -3.7153 -1.2462
   33MOL   H50118485   0.379   5.989   1.187 -0.5448 -0.5975  0.6664
   33MOL   H50218486   0.503   6.214   1.227  0.3605  1.7134  0.1390
   33MOL   H50318487   0.531   6.384   1.390 -0.7510  2.3516 -1.0549
   33MOL   H50418488   0.303   6.585   1.842  2.5053 -0.7548 -0.6280
   33MOL   H50518489   0.267   6.787   1.963  0.0819  1.7670 -0.2616
   33MOL   C50618490   0.185   5.982   1.135  0.0476 -0.2585  0.1013
   33MOL   C50718491   0.223   5.864   1.046 -0.1103  0.0688  0.1892
   33MOL   C50818492   0.335   5.779   1.077 -0.0913 -0.1872  0.4844
   33MOL   C50918493   0.386   5.689   0.985 -0.5558  0.5572  0.6027
   33MOL   C51018494   0.314   5.655   0.870 -0.6730 -0.0383 -0.1066
   33MOL   C51118495   0.380   5.575   0.759 -0.0840 -0.2273  0.0548
   33MOL   N51218496   0.389   5.648   0.652 -0.7117  0.1015  1.1739
   33MOL   C51318497   0.444   5.621   0.531 -0.1877  1.4150 -0.0902
   33MOL   C51418498   0.501   5.728   0.461  0.5932  1.1808  0.0295
   33MOL   C51518499   0.577   5.697   0.346 -0.6599  0.2672 -0.1990
   33MOL   C51618500   0.592   5.559   0.297  0.5908 -0.0145 -0.0895
   33MOL   N51718501   0.679   5.532   0.187 -0.2512 -0.3271  0.4436
   33MOL   C51818502   0.525   5.457   0.365  0.5674 -0.1307 -0.2244
   33MOL   C51918503   0.452   5.491   0.478 -0.1328  0.7653  0.1538
   33MOL   O52018504   0.401   5.452   0.766 -0.3554 -0.1718  0.4019
   33MOL   C52118505   0.190   5.724   0.855  0.0394 -0.2684 -0.3631
   33MOL   C52218506   0.140   5.822   0.942 -0.2983 -0.1668 -0.0218
   33MOL   O52318507   0.075   6.040   1.135 -0.6464  0.2353 -0.0896
   33MOL   H52418508   0.395   5.794   1.165 -1.0342  0.0989  1.0895
   33MOL   H52518509   0.486   5.654   1.008  0.3281  1.9098 -1.0678
   33MOL   H52618510   0.357   5.743   0.663  1.3069  0.7020  2.0746
   33MOL   H52718511   0.507   5.821   0.516  2.8651 -0.2513  2.3798
   33MOL   H52818512   0.650   5.766   0.305 -0.1771 -0.4886 -0.6416
   33MOL   H52918513   0.641   5.502   0.099 -0.7365 -0.4946  0.7076
   33MOL   H53018514   0.547   5.355   0.338  0.6422 -0.6544  1.7620
   33MOL   H53118515   0.418   5.403   0.530  1.5513 -0.5460 -0.9271
   33MOL   H53218516   0.132   5.695   0.769  0.6531 -0.0358 -0.8563
   33MOL   H53318517   0.059   5.885   0.906 -0.4392 -1.5363 -2.1970
   33MOL   C53418518   0.814   5.519   0.197  0.6853 -0.1828 -0.2162
   33MOL   C53518519   0.878   5.560   0.327  0.0862  0.5670  0.5555
   33MOL   C53618520   0.856   5.487   0.444  0.5042 -0.0916  0.2980
   33MOL   C53718521   0.909   5.530   0.566  0.1987 -1.1437  0.4673
   33MOL   C53818522   0.990   5.644   0.569 -0.5213  0.1040 -0.2220
   33MOL   C53918523   1.059   5.691   0.694 -0.2016 -0.8250  0.5027
   33MOL   N54018524   1.049   5.606   0.793  0.9267  0.1456  0.2328
   33MOL   C54118525   1.060   5.637   0.936 -0.2555  0.1394 -0.2324
   33MOL   C54218526   0.960   5.591   1.022  0.5134  0.2128 -0.1981
   33MOL   C54318527   0.971   5.612   1.164  0.1757 -0.3754 -0.7907
   33MOL   C54418528   1.076   5.689   1.214 -0.6121  0.3085  0.8226
   33MOL   N54518529   1.075   5.717   1.343 -0.3014 -0.6498  0.0025
   33MOL   C54618530   1.176   5.739   1.122  0.2227 -0.5836 -0.1481
   33MOL   C54718531   1.163   5.720   0.986  0.0311  0.3808  0.0317
   33MOL   O54818532   1.124   5.794   0.692 -0.1175 -0.2523  0.1351
   33MOL   C54918533   1.007   5.727   0.451  0.0499 -0.3104  0.2261
   33MOL   C55018534   0.960   5.674   0.326  0.0457 -0.5007 -1.0396
   33MOL   O55118535   0.887   5.475   0.105 -0.0974 -0.6873 -0.7035
   33MOL   H55218536   0.791   5.402   0.442  0.6990 -0.2050 -2.4497
   33MOL   H55318537   0.874   5.479   0.654 -0.2133 -0.2957  0.7988
   33MOL   H55418538   1.001   5.521   0.766  1.6852 -0.1571 -0.1605
   33MOL   H55518539   0.872   5.546   0.978  0.9715  1.5721 -2.5556
   33MOL   H55618540   0.888   5.565   1.217  0.1507 -0.7936 -1.1937
   33MOL   H55718541   1.162   5.754   1.379 -0.5817  0.6007 -0.5944
   33MOL   H55818542   1.263   5.792   1.160 -0.6477  0.2676  0.6937
   33MOL   H55918543   1.248   5.755   0.929 -0.7641 -0.9613 -2.0178
   33MOL   H56018544   1.067   5.816   0.455 -0.6343  0.1846 -0.5815
   33MOL   H56118545   0.976   5.733   0.237  0.5509  0.2772 -0.4402
   33MOL   H56218546   0.999   5.706   1.409  0.5206  0.1791  1.1106
   34MOL     C118547   2.246   5.445   6.205 -0.1479 -0.2343  0.3830
   34MOL     C218548   2.187   5.316   6.159 -0.3902 -0.1573 -0.0204
   34MOL     C318549   2.225   5.266   6.031 -0.9454  0.2999  0.1505
   34MOL     C418550   2.172   5.152   5.976  0.3784  0.2259 -0.4578
   34MOL     C518551   2.072   5.081   6.052 -0.6937  0.7622 -0.5947
   34MOL     C618552   2.006   4.955   5.993 -0.2136 -0.3201 -0.0287
   34MOL     N718553   1.892   4.921   6.050  0.0762  0.5249  0.1704
   34MOL     C818554   1.804   4.815   6.017  0.3367  1.1385  0.7340
   34MOL     C918555   1.837   4.681   5.984 -0.1385  0.2660  0.1187
   34MOL    C1018556   1.741   4.594   5.939  0.0377 -0.3297 -0.0809
   34MOL    C1118557   1.604   4.642   5.937  0.1315  0.3072 -0.5422
   34MOL    N1218558   1.493   4.567   5.910  0.5052 -0.2823 -0.0423
   34MOL    C1318559   1.575   4.775   5.957 -0.0138 -0.6369 -0.5001
   34MOL    C1418560   1.674   4.857   6.006  0.1922  0.3967  0.7101
   34MOL    O1518561   2.065   4.889   5.901  0.1487  0.7852 -0.0398
   34MOL    C1618562   2.029   5.132   6.180 -0.2172  0.1016 -0.1596
   34MOL    C1718563   2.091   5.245   6.235 -1.0091  0.2627 -0.3031
   34MOL    O1818564   2.209   5.515   6.301  0.3648 -0.7356 -0.4426
   34MOL    H1918565   2.289   5.316   5.960 -1.6774  0.9863 -0.0388
   34MOL    H2018566   2.207   5.102   5.888  0.0852  1.8710 -1.5387
   34MOL    H2118567   1.854   4.987   6.115  0.0179 -1.0978  1.8287
   34MOL    H2218568   1.942   4.656   5.973 -0.4298 -0.2413 -1.5174
   34MOL    H2318569   1.770   4.493   5.917  1.9538  0.4219 -1.1662
   34MOL    H2418570   1.402   4.597   5.941  0.0590 -1.3698 -0.2596
   34MOL    H2518571   1.471   4.804   5.944  0.1024  0.0153 -0.0001
   34MOL    H2618572   1.650   4.960   6.027  0.8783  0.5749  0.6417
   34MOL    H2718573   1.963   5.077   6.246 -0.6763 -0.6170 -1.2113
   34MOL    H2818574   2.059   5.300   6.323 -2.4737  1.1518 -1.3693
   34MOL    H2918575   2.337   5.478   6.155  0.0389  0.0734  0.9192
   34MOL    C3018576   1.485   4.447   5.853  0.1097 -0.7347  0.2906
   34MOL    C3118577   1.342   4.398   5.845 -0.3390  0.3562  0.0114
   34MOL    C3218578   1.246   4.481   5.789  0.3796  0.5253  0.4417
   34MOL    C3318579   1.110   4.444   5.789  0.1516 -0.6653 -0.8014
   34MOL    C3418580   1.066   4.320   5.833  0.1172  0.6134  0.5406
   34MOL    C3518581   0.915   4.292   5.856 -0.3301  0.5869 -0.0409
   34MOL    N3618582   0.901   4.165   5.859 -0.0651  0.1341  0.0492
   34MOL    C3718583   0.784   4.096   5.899 -0.4839 -0.7694  0.1859
   34MOL    C3818584   0.741   3.969   5.842 -0.1846  0.1518 -0.6128
   34MOL    C3918585   0.620   3.915   5.881  0.3699 -0.4661  0.9736
   34MOL    C4018586   0.544   3.967   5.989  0.2758 -0.0047 -0.0692
   34MOL    N4118587   0.421   3.910   6.026  0.1433  0.2911  0.3831
   34MOL    C4218588   0.598   4.085   6.052 -0.0079 -0.3420  0.1670
   34MOL    C4318589   0.714   4.153   6.009  0.0893  0.3160 -0.3228
   34MOL    O4418590   0.827   4.382   5.864  0.1127 -0.1263  1.0019
   34MOL    C4518591   1.170   4.237   5.880 -0.1789 -0.4655 -0.5790
   34MOL    C4618592   1.302   4.273   5.890  0.4658  0.0204  0.0830
   34MOL    O4718593   1.574   4.379   5.808 -0.3877 -0.1754  0.3524
   34MOL    H4818594   1.282   4.578   5.758 -1.3312  0.9293 -0.3256
   34MOL    H4918595   1.030   4.508   5.755 -0.7060 -1.3940 -0.1884
   34MOL    H5018596   0.980   4.111   5.826 -0.2709 -0.4363  0.4693
   34MOL    H5118597   0.799   3.921   5.764 -0.6424  0.6975 -1.2952
   34MOL    H5218598   0.582   3.835   5.820  1.6203  0.5474 -1.1800
   34MOL    H5318599   0.413   3.809   6.018 -0.5412  0.4245 -0.7004
   34MOL    H5418600   0.549   4.112   6.145  2.9506 -0.0790  1.7287
   34MOL    H5518601   0.739   4.248   6.054  1.9839 -1.0320  1.5490
   34MOL    H5618602   1.159   4.144   5.934  2.9551  1.0538  2.9393
   34MOL    H5718603   1.366   4.196   5.931  2.1076  0.6971 -1.1689
   34MOL    C5818604   0.311   3.982   6.056  0.0089  0.3869 -0.0330
   34MOL    C5918605   0.184   3.912   6.084  0.2368 -0.2595  0.5307
   34MOL    C6018606   0.062   3.975   6.120 -0.1979 -0.0442  0.6132
   34MOL    C6118607   8.083   3.912   6.124 -0.8512  0.1774 -0.3006
   34MOL    C6218608   8.085   3.769   6.120  0.0126 -0.0219  0.4160
   34MOL    C6318609   7.959   3.696   6.114  0.1630  0.5315 -0.3265
   34MOL    N6418610   7.857   3.761   6.051  0.2015  0.3608  0.0949
   34MOL    C6518611   7.730   3.708   6.021  0.0731 -0.3401 -0.6311
   34MOL    C6618612   7.668   3.727   5.893 -0.2083  1.1947 -0.5812
   34MOL    C6718613   7.545   3.667   5.868 -0.4802  0.1813 -0.5103
   34MOL    C6818614   7.472   3.614   5.978 -0.4151  0.0354 -0.2099
   34MOL    N6918615   7.344   3.560   5.955 -0.3080 -0.0479 -0.3332
   34MOL    C7018616   7.526   3.603   6.106 -0.6913 -0.0108  0.4045
   34MOL    C7118617   7.660   3.644   6.124  0.5243 -0.0791 -0.7113
   34MOL    O7218618   7.949   3.578   6.146  0.0191 -0.5516 -0.0803
   34MOL    C7318619   0.061   3.695   6.109 -0.4812 -0.2020  0.5864
   34MOL    C7418620   0.181   3.769   6.077 -0.2356 -0.6792 -0.0547
   34MOL    O7518621   0.310   4.106   6.082 -0.0010  0.3298 -0.5578
   34MOL    H7618622   0.066   4.081   6.140 -1.0069  0.1750 -0.3721
   34MOL    H7718623   7.992   3.967   6.144  0.0665  1.0595  1.5460
   34MOL    H7818624   7.875   3.845   5.998  1.8656  0.3041  0.5316
   34MOL    H7918625   7.722   3.779   5.815  0.3291  1.8600  0.2128
   34MOL    H8018626   7.507   3.686   5.769  0.7444  0.5348 -0.9294
   34MOL    H8118627   7.298   3.518   6.034 -1.6412  4.7374  1.5978
   34MOL    H8218628   7.482   3.548   6.188  1.2282 -0.9492  0.8328
   34MOL    H8318629   7.710   3.623   6.217  0.4721 -1.3194 -0.9654
   34MOL    H8418630   0.059   3.588   6.102  1.1864 -0.2875  1.0344
   34MOL    H8518631   0.273   3.716   6.057 -0.8368 -1.7653  0.0562
   34MOL    C8618632   7.290   3.522   5.835  0.1787 -0.3042 -0.0210
   34MOL    C8718633   7.175   3.429   5.846  0.0696  0.9361  0.1857
   34MOL    C8818634   7.160   3.327   5.748  0.2252  0.2934  0.0470
   34MOL    C8918635   7.053   3.240   5.755 -0.0092  0.2525  0.0174
   34MOL    C9018636   6.946   3.264   5.838  0.6260 -0.0297  0.2883
   34MOL    C9118637   6.819   3.184   5.833 -0.2028 -0.1554  0.5171
   34MOL    N9218638   6.831   3.066   5.774  0.7447  0.0217  1.0585
   34MOL    C9318639   6.732   2.975   5.747  0.1210 -0.3288 -0.5781
   34MOL    C9418640   6.686   2.943   5.615  0.0927  0.2386  0.0274
   34MOL    C9518641   6.577   2.849   5.604  0.2558 -0.6925 -0.5944
   34MOL    C9618642   6.513   2.792   5.717 -0.3815 -0.7992  0.1406
   34MOL    N9718643   6.397   2.712   5.700  0.3229 -0.0374  0.5516
   34MOL    C9818644   6.575   2.813   5.842 -0.2535 -0.4521 -0.2515
   34MOL    C9918645   6.681   2.906   5.856  0.1571 -1.0591 -0.4615
   34MOL   O10018646   6.709   3.231   5.875 -0.6475  0.2513 -0.5348
   34MOL   C10118647   6.964   3.360   5.942 -0.4831  1.2143 -0.6238
   34MOL   C10218648   7.075   3.442   5.944  0.7730  0.1316 -0.8183
   34MOL   O10318649   7.331   3.558   5.722 -0.3320 -0.1815 -0.1437
   34MOL   H10418650   7.236   3.299   5.677 -0.1559 -1.6099  0.3438
   34MOL   H10518651   7.048   3.164   5.679 -1.3224  0.6517 -0.3018
   34MOL   H10618652   6.916   3.052   5.722 -1.2792 -0.8880 -2.1109
   34MOL   H10718653   6.732   2.993   5.531 -0.3157  0.6164  0.0222
   34MOL   H10818654   6.537   2.821   5.508 -1.5362 -1.3678  0.3205
   34MOL   H10918655   6.416   2.621   5.659  1.6814 -0.4160  1.9303
   34MOL   H11018656   6.535   2.755   5.923 -0.2850 -0.1965 -0.0836
   34MOL   H11118657   6.721   2.923   5.956 -0.1866  0.3566 -0.5549
   34MOL   H11218658   6.890   3.386   6.017  1.6516 -1.1082  2.4719
   34MOL   H11318659   7.068   3.517   6.020 -1.1380 -1.0363  0.1923
   34MOL   C11418660   6.277   2.726   5.764 -0.1555  0.5760 -0.4108
   34MOL   C11518661   6.259   2.849   5.842 -0.4580  0.3749  0.6210
   34MOL   C11618662   6.205   2.960   5.780  0.1818 -0.1362  0.4427
   34MOL   C11718663   6.176   3.072   5.864  0.1426  0.2565 -0.3556
   34MOL   C11818664   6.206   3.072   6.002 -0.0878 -0.0231  0.9237
   34MOL   C11918665   6.168   3.182   6.091  0.3767  0.1445 -0.2846
   34MOL   N12018666   6.063   3.250   6.052  0.7970 -0.8619  0.4926
   34MOL   C12118667   5.994   3.354   6.120  0.6026 -0.5192 -0.0721
   34MOL   C12218668   5.855   3.371   6.108 -0.1213 -0.3342  0.0393
   34MOL   C12318669   5.784   3.467   6.181  0.1333  0.4781 -0.1083
   34MOL   C12418670   5.852   3.558   6.263 -0.5959 -0.1171  0.6894
   34MOL   N12518671   5.775   3.644   6.334 -0.1207 -1.0269  0.0214
   34MOL   C12618672   5.988   3.549   6.270  0.2620  0.5069  0.4784
   34MOL   C12718673   6.059   3.452   6.195 -0.5105  0.4294  0.2363
   34MOL   O12818674   6.240   3.204   6.192 -0.1193  0.3248 -0.7807
   34MOL   C12918675   6.272   2.963   6.060  0.1063 -0.1763  1.0136
   34MOL   C13018676   6.290   2.849   5.982 -0.0166 -0.1554  0.1431
   34MOL   O13118677   6.190   2.643   5.752 -0.6560 -0.3570 -0.6184
   34MOL   H13218678   6.192   2.966   5.673 -0.2274 -0.6301  0.4643
   34MOL   H13318679   6.141   3.161   5.815 -0.8672  0.2862  0.4041
   34MOL   H13418680   6.016   3.228   5.965  0.1321 -1.3787  0.9784
   34MOL   H13518681   5.801   3.303   6.044 -0.0522 -0.6123  0.2753
   34MOL   H13618682   5.676   3.464   6.178  0.1549  0.3961 -1.2745
   34MOL   H13718683   5.690   3.671   6.286  0.2384 -0.4416 -0.2908
   34MOL   H13818684   6.045   3.615   6.334  2.1027  0.7815 -1.3618
   34MOL   H13918685   6.166   3.465   6.208 -0.5606 -0.6655  1.9194
   34MOL   H14018686   6.292   2.965   6.166  2.1332 -2.3565  0.7425
   34MOL   H14118687   6.328   2.765   6.037 -0.2034 -0.6229 -0.4428
   34MOL   C14218688   5.812   3.717   6.452 -0.3208  0.2875  0.8913
   34MOL   C14318689   5.713   3.828   6.497 -0.4137  1.0466 -1.0176
   34MOL   C14418690   5.759   3.922   6.593  0.4360 -0.1210  1.3541
   34MOL   C14518691   5.665   4.022   6.645 -0.0800 -0.3347  0.2297
   34MOL   C14618692   5.531   4.033   6.588  0.4900  1.0258 -0.3414
   34MOL   C14718693   5.427   4.129   6.633  0.4592  0.2654  0.6071
   34MOL   N14818694   5.468   4.227   6.709 -0.0165  0.3393  0.3907
   34MOL   C14918695   5.387   4.323   6.787 -0.3453  0.2688 -0.6505
   34MOL   C15018696   5.453   4.416   6.867  0.9722  0.1598  0.1891
   34MOL   C15118697   5.377   4.503   6.951 -0.5636  0.2956 -0.4928
   34MOL   C15218698   5.233   4.490   6.957  0.1791 -0.7890  0.5305
   34MOL   N15318699   5.155   4.572   7.034  0.5189 -0.9910  0.0837
   34MOL   C15418700   5.168   4.398   6.877 -0.2170 -0.3458  0.4090
   34MOL   C15518701   5.248   4.316   6.795  0.5521  0.0971  0.0628
   34MOL   O15618702   5.312   4.105   6.613  0.0810 -0.2600  0.4292
   34MOL   C15718703   5.489   3.929   6.499 -0.3706 -0.2693  0.1299
   34MOL   C15818704   5.581   3.835   6.450  0.1256  0.7268 -0.7644
   34MOL   O15918705   5.913   3.688   6.518  0.5256  0.4416 -0.6271
   34MOL   H16018706   5.862   3.928   6.623  1.2526 -3.3212 -0.5985
   34MOL   H16118707   5.697   4.081   6.730  1.0045 -0.9976  0.2901
   34MOL   H16218708   5.568   4.225   6.722  0.1588 -0.3756 -1.0094
   34MOL   H16318709   5.561   4.414   6.871  0.8894 -3.1426  2.7775
   34MOL   H16418710   5.429   4.576   7.012 -1.7241  0.8135 -0.1202
   34MOL   H16518711   5.060   4.541   7.051 -0.4584  2.0646  0.5233
   34MOL   H16618712   5.061   4.388   6.874 -0.3014  0.7986 -0.8917
   34MOL   H16718713   5.188   4.251   6.733 -0.3848  0.2451  0.8004
   34MOL   H16818714   5.384   3.925   6.473 -0.3098 -0.2470 -0.1238
   34MOL   H16918715   5.545   3.764   6.378 -1.8170 -0.1195  1.0000
   34MOL   C17018716   5.169   4.696   7.069 -0.0898 -0.6644 -0.9488
   34MOL   C17118717   5.046   4.759   7.123 -0.7487 -0.4208 -0.7352
   34MOL   C17218718   5.003   4.868   7.061 -0.0297 -0.0012 -0.2940
   34MOL   C17318719   4.887   4.940   7.098 -0.2646  0.7777 -1.2246
   34MOL   C17418720   4.807   4.886   7.203 -0.4515  0.1969  0.4843
   34MOL   C17518721   4.676   4.951   7.244  0.4953  0.5194 -0.4630
   34MOL   N17618722   4.583   4.966   7.148  0.1193 -0.8217 -0.5337
   34MOL   C17718723   4.592   4.917   7.016  0.5772 -0.5535  0.6222
   34MOL   C17818724   4.609   4.784   6.991 -0.1529  0.3170 -0.4987
   34MOL   C17918725   4.642   4.738   6.864  1.0293 -0.2371  0.2518
   34MOL   C18018726   4.670   4.829   6.765  0.8028 -0.1482  1.0248
   34MOL   N18118727   4.731   4.777   6.647 -0.1112 -0.4612 -0.2648
   34MOL   C18218728   4.615   4.960   6.783 -0.1178 -0.4042  0.0519
   34MOL   C18318729   4.579   5.007   6.909  0.0667 -0.4555 -0.4451
   34MOL   O18418730   4.643   4.969   7.362  0.0585  0.5930  0.2748
   34MOL   C18518731   4.856   4.765   7.268  0.1037 -0.3885 -0.1797
   34MOL   C18618732   4.975   4.709   7.229  0.3839  0.9077 -0.2279
   34MOL   O18718733   5.279   4.758   7.067  0.1154 -0.0117 -0.0544
   34MOL   H18818734   5.061   4.912   6.981  0.7851 -2.8284 -1.2974
   34MOL   H18918735   4.863   5.026   7.037 -1.8587  0.8471 -0.5262
   34MOL   H19018736   4.503   5.021   7.174 -0.3801 -0.7915 -2.0613
   34MOL   H19118737   4.611   4.710   7.069 -2.7446  0.5074 -0.1849
   34MOL   H19218738   4.667   4.633   6.852 -3.4696 -1.4651  0.9453
   34MOL   H19318739   4.739   4.676   6.643  0.0063 -0.4173 -1.1380
   34MOL   H19418740   4.621   5.038   6.710  0.0584 -1.8014 -1.4468
   34MOL   H19518741   4.555   5.111   6.928 -0.4185 -0.4929 -0.8497
   34MOL   H19618742   4.797   4.717   7.345 -0.2189  0.0798 -0.1333
   34MOL   H19718743   5.012   4.618   7.274  0.5554  0.7373 -0.7108
   34MOL   C19818744   4.831   4.836   6.576  0.5296 -0.9148  0.2564
   34MOL   C19918745   4.927   4.742   6.519  0.5925  0.2138 -0.2097
   34MOL   C20018746   4.944   4.737   6.378  0.6005 -0.5129  0.0699
   34MOL   C20118747   5.040   4.649   6.320  1.0086 -0.0122  0.0232
   34MOL   C20218748   5.115   4.569   6.403  0.5714 -0.4184  0.2131
   34MOL   C20318749   5.217   4.477   6.352  1.0840  0.9136  0.3695
   34MOL   N20418750   5.172   4.377   6.276  0.3511 -0.0702 -0.4485
   34MOL   C20518751   5.238   4.276   6.206  0.3123  0.3615 -0.1722
   34MOL   C20618752   5.206   4.257   6.069 -0.5507  0.4266 -0.4030
   34MOL   C20718753   5.261   4.150   5.997  0.2424  0.1228 -0.6553
   34MOL   C20818754   5.360   4.068   6.054 -0.1322 -0.1775 -0.4139
   34MOL   N20918755   5.411   3.963   5.973  0.6557  0.0560  0.3208
   34MOL   C21018756   5.400   4.101   6.186  0.3619  0.4681  0.4923
   34MOL   C21118757   5.348   4.206   6.261 -0.0910  0.2296  0.3908
   34MOL   O21218758   5.331   4.490   6.395  0.2138  0.3182 -0.1924
   34MOL   C21318759   5.095   4.574   6.543  0.2740  0.4135  0.5207
   34MOL   C21418760   5.006   4.661   6.603 -0.1992  0.6953 -0.8689
   34MOL   O21518761   4.839   4.960   6.555  0.3611  0.0656  0.2593
   34MOL   H21618762   4.883   4.805   6.321  1.2241 -0.7599 -0.9058
   34MOL   H21718763   5.073   4.647   6.217  1.7543 -0.6909  0.2661
   34MOL   H21818764   5.072   4.381   6.264  0.2441  0.4381  0.5996
   34MOL   H21918765   5.132   4.324   6.030  0.6531  0.7398 -2.2215
   34MOL   H22018766   5.236   4.136   5.893  1.0427 -0.3858 -0.7780
   34MOL   H22118767   5.392   3.959   5.874  0.3154  0.0995  0.3823
   34MOL   H22218768   5.477   4.037   6.227 -0.8972 -1.9373 -0.8190
   34MOL   H22318769   5.372   4.214   6.366  0.7198 -1.0701  0.3119
   34MOL   H22418770   5.166   4.516   6.601 -0.5487 -0.9141  0.2241
   34MOL   H22518771   5.016   4.675   6.709  0.0074  0.4611 -0.8593
   34MOL   C22618772   5.463   3.848   6.008  0.2166  0.2174  0.0150
   34MOL   C22718773   5.492   3.755   5.892  0.3824  0.3399 -0.4094
   34MOL   C22818774   5.485   3.616   5.896 -0.2934  0.1674 -0.3906
   34MOL   C22918775   5.500   3.538   5.784  0.1689 -0.2571 -0.2641
   34MOL   C23018776   5.560   3.586   5.663 -0.1210  0.7392 -0.6872
   34MOL   C23118777   5.585   3.492   5.550  0.0742 -0.2053  0.4981
   34MOL   N23218778   5.683   3.528   5.463  0.3454 -0.2708 -0.4747
   34MOL   C23318779   5.719   3.466   5.345 -0.1911  0.9005  0.3754
   34MOL   C23418780   5.623   3.401   5.265  0.3035 -0.2070 -0.2298
   34MOL   C23518781   5.657   3.334   5.143  0.0609 -0.2723 -0.5750
   34MOL   C23618782   5.795   3.339   5.109  0.3253 -0.3922 -0.9888
   34MOL   N23718783   5.837   3.271   4.989 -0.2970 -0.5099 -0.3126
   34MOL   C23818784   5.892   3.402   5.190 -0.2766  0.0802 -0.7564
   34MOL   C23918785   5.855   3.465   5.307 -0.7575  0.6217  0.0726
   34MOL   O24018786   5.530   3.383   5.550 -0.0637 -0.0271 -0.1017
   34MOL   C24118787   5.575   3.727   5.655  0.2601  0.0368  0.2880
   34MOL   C24218788   5.537   3.812   5.766  0.2900 -0.1323 -0.6772
   34MOL   O24318789   5.473   3.811   6.127  0.1728 -0.6373  0.2637
   34MOL   H24418790   5.446   3.568   5.985 -1.1816 -0.3026 -1.0281
   34MOL   H24518791   5.472   3.434   5.791 -1.9459  0.3533  0.8654
   34MOL   H24618792   5.732   3.616   5.470 -0.9852  0.5166 -0.8915
   34MOL   H24718793   5.521   3.390   5.300 -0.0928  2.5067 -0.4449
   34MOL   H24818794   5.579   3.289   5.084 -1.1072 -0.6036  1.1905
   34MOL   H24918795   5.929   3.228   4.991 -0.3566 -0.7212 -1.6163
   34MOL   H25018796   5.995   3.398   5.160 -0.6848 -1.7698 -1.9897
   34MOL   H25118797   5.930   3.519   5.363 -1.2162  2.0857 -0.7042
   34MOL   H25218798   5.620   3.769   5.566 -2.2673 -0.2277 -1.1673
   34MOL   H25318799   5.531   3.919   5.757  3.4621  0.2663  1.1394
   34MOL   C25418800   5.775   3.255   4.873  0.3496  0.1839  0.1220
   34MOL   C25518801   5.835   3.149   4.787  0.9217 -0.4852  0.8370
   34MOL   C25618802   5.826   3.161   4.642 -0.7475 -0.4162  0.1423
   34MOL   C25718803   5.880   3.057   4.565 -0.5054 -0.2533  0.0783
   34MOL   C25818804   5.953   2.955   4.622  0.4508  0.2623 -0.0569
   34MOL   C25918805   6.024   2.845   4.546 -0.4007  0.0173  0.5733
   34MOL   N26018806   6.159   2.831   4.578 -0.1565 -0.4290  0.1302
   34MOL   C26118807   6.258   2.733   4.552  0.7317  0.3817  0.1027
   34MOL   C26218808   6.365   2.721   4.644  0.2012 -1.2565  0.1034
   34MOL   C26318809   6.454   2.616   4.631 -0.2934 -0.2189  0.2428
   34MOL   C26418810   6.437   2.511   4.528 -0.2492 -0.5696 -0.3854
   34MOL   N26518811   6.517   2.400   4.519  0.3785 -0.2661 -0.0279
   34MOL   C26618812   6.331   2.530   4.436  0.5053  0.4361  0.1271
   34MOL   C26718813   6.244   2.642   4.444  0.3135  0.6477  0.4518
   34MOL   O26818814   5.971   2.789   4.449  0.0629  0.4336 -0.0363
   34MOL   C26918815   5.968   2.948   4.757  0.1079 -0.1297 -0.7035
   34MOL   C27018816   5.902   3.039   4.839  0.0576 -0.3538  0.0642
   34MOL   O27118817   5.688   3.332   4.833 -0.0655 -0.2897  0.3259
   34MOL   H27218818   5.770   3.240   4.593 -0.8889 -1.0440 -0.7051
   34MOL   H27318819   5.883   3.063   4.457  1.5850 -0.7840  0.0937
   34MOL   H27418820   6.174   2.892   4.657  0.4282  0.4955 -0.6804
   34MOL   H27518821   6.377   2.788   4.727 -2.5913 -0.0762 -0.4008
   34MOL   H27618822   6.522   2.611   4.715  0.4048 -1.3102 -0.3780
   34MOL   H27718823   6.552   2.373   4.428  0.3877  0.0253 -0.1117
   34MOL   H27818824   6.328   2.457   4.356  1.8364 -1.7106  1.9835
   34MOL   H27918825   6.159   2.654   4.378  1.1376  1.1303 -0.5249
   34MOL   H28018826   6.022   2.866   4.802  2.4708  1.5922 -0.3041
   34MOL   H28118827   5.911   3.022   4.945 -0.0014  1.3739  0.3450
   34MOL   C28218828   6.559   2.317   4.617  0.3338 -0.4444  0.1962
   34MOL   C28318829   6.507   2.340   4.755  0.2285  0.1432  0.0655
   34MOL   C28418830   6.601   2.373   4.858 -0.0941  0.0235  0.4220
   34MOL   C28518831   6.557   2.401   4.991 -0.7040 -0.3263  0.1161
   34MOL   C28618832   6.422   2.400   5.019  0.0528  0.0990  0.5271
   34MOL   C28718833   6.374   2.432   5.161 -0.0743  0.2712 -0.6816
   34MOL   N28818834   6.461   2.418   5.263 -0.5185  0.2713 -0.3251
   34MOL   C28918835   6.434   2.415   5.405  0.5012 -0.0612  0.1475
   34MOL   C29018836   6.304   2.405   5.464  0.1649  0.7178  0.0592
   34MOL   C29118837   6.281   2.400   5.602 -0.1201  0.0340 -0.7250
   34MOL   C29218838   6.389   2.405   5.688  0.6051  0.1347 -0.8947
   34MOL   N29318839   6.354   2.398   5.829 -0.1251  0.7477  0.2650
   34MOL   C29418840   6.518   2.425   5.634 -0.5815 -0.2465  0.5786
   34MOL   C29518841   6.540   2.426   5.494  0.3191  0.2184  0.4937
   34MOL   O29618842   6.263   2.476   5.171 -0.1026 -0.4415  0.3177
   34MOL   C29718843   6.328   2.384   4.919  0.5049 -0.2355 -0.4843
   34MOL   C29818844   6.367   2.339   4.793 -0.4211  0.9095 -0.4225
   34MOL   O29918845   6.635   2.218   4.597  0.0402 -0.2925  0.3163
   34MOL   H30018846   6.706   2.370   4.832 -0.1631  0.3462  0.1093
   34MOL   H30118847   6.630   2.418   5.069  1.1761  2.7292 -2.1869
   34MOL   H30218848   6.551   2.380   5.235  0.7431  2.2589  0.8865
   34MOL   H30318849   6.212   2.402   5.408 -0.9170 -0.6473  1.8684
   34MOL   H30418850   6.182   2.393   5.644 -0.1282 -0.6307 -0.8603
   34MOL   H30518851   6.256   2.394   5.850 -0.6407  1.4888 -1.9109
   34MOL   H30618852   6.602   2.452   5.696 -0.5344  1.3489 -0.1629
   34MOL   H30718853   6.643   2.421   5.462  0.3966 -0.4277  0.8273
   34MOL   H30818854   6.225   2.377   4.951  0.5311 -1.7462 -0.6649
   34MOL   H30918855   6.289   2.308   4.725 -0.8125  1.2383 -0.1282
   34MOL   C31018856   6.436   2.418   5.935 -0.3069  0.4413  0.2959
   34MOL   C31118857   6.369   2.421   6.067 -0.4945 -0.2537  0.2300
   34MOL   C31218858   6.270   2.329   6.102 -0.2301 -0.0545 -0.1271
   34MOL   C31318859   6.196   2.333   6.224  0.4747 -0.1875 -0.1299
   34MOL   C31418860   6.234   2.436   6.315 -0.1646  0.5835 -0.7743
   34MOL   C31518861   6.160   2.429   6.447 -0.4370  0.4511 -0.1377
   34MOL   N31618862   6.189   2.524   6.538 -0.0673 -0.0805 -0.1769
   34MOL   C31718863   6.160   2.525   6.683 -0.5474 -0.2878 -0.5121
   34MOL   C31818864   6.046   2.459   6.738 -0.5592  0.2979 -0.4125
   34MOL   C31918865   5.997   2.483   6.866 -0.8490 -0.0970  0.2203
   34MOL   C32018866   6.068   2.575   6.947 -0.0109  0.0802 -0.3497
   34MOL   N32118867   6.029   2.621   7.074  0.2106  0.1717  0.4038
   34MOL   C32218868   6.184   2.645   6.897  0.3338 -0.4442  0.1529
   34MOL   C32318869   6.231   2.621   6.764  0.9074  0.3694 -0.1809
   34MOL   O32418870   6.072   2.345   6.470 -0.4253  0.0199 -0.2300
   34MOL   C32518871   6.333   2.534   6.283 -0.1959  0.3151 -0.0818
   34MOL   C32618872   6.399   2.523   6.159  0.4742 -0.3278  0.3572
   34MOL   O32718873   6.557   2.427   5.930  0.3263 -0.0362  0.4423
   34MOL   H32818874   6.240   2.252   6.033 -0.1342 -0.0318 -0.1945
   34MOL   H32918875   6.111   2.266   6.230  2.8418 -3.4628 -1.4551
   34MOL   H33018876   6.256   2.588   6.498  0.9559 -1.5043 -0.8293
   34MOL   H33118877   5.986   2.388   6.682  0.7071  0.4198 -1.9697
   34MOL   H33218878   5.913   2.428   6.907 -0.1821 -0.4135  1.1798
   34MOL   H33318879   6.033   2.722   7.080 -0.3597  0.3771 -2.2428
   34MOL   H33418880   6.230   2.724   6.954 -1.2368  0.4611  0.2218
   34MOL   H33518881   6.304   2.679   6.711  0.1663 -0.8125 -2.5723
   34MOL   H33618882   6.363   2.613   6.351  1.0616  0.0421 -0.3157
   34MOL   H33718883   6.481   2.593   6.147 -0.9135  1.2412 -0.0891
   34MOL   C33818884   5.961   2.570   7.177 -0.2283 -0.4152 -0.0288
   34MOL   C33918885   5.937   2.424   7.189  0.0057  0.7695 -0.1500
   34MOL   C34018886   6.046   2.334   7.157  0.2111  0.3524  0.2336
   34MOL   C34118887   6.024   2.191   7.170 -0.2043  0.5170 -0.6051
   34MOL   C34218888   5.901   2.142   7.219 -0.2784 -0.2470 -0.6697
   34MOL   C34318889   5.879   1.998   7.217  0.2286 -0.3079 -0.5943
   34MOL   N34418890   5.991   1.918   7.235  0.5608 -0.0089  0.0213
   34MOL   C34518891   6.021   1.791   7.177  0.0185 -0.2988 -0.4050
   34MOL   C34618892   5.933   1.696   7.120  0.3549 -0.2370  0.5853
   34MOL   C34718893   5.977   1.592   7.032  0.0607 -0.3110  0.5636
   34MOL   C34818894   6.117   1.578   7.015  0.5606 -0.3232  0.7351
   34MOL   N34918895   6.155   1.489   6.908 -0.1535 -0.1564 -0.5656
   34MOL   C35018896   6.205   1.664   7.084 -1.2775 -0.6177 -0.2778
   34MOL   C35118897   6.157   1.768   7.165  0.0970  0.7035 -0.1927
   34MOL   O35218898   5.761   1.958   7.223  0.0108 -0.6338 -0.0163
   34MOL   C35318899   5.804   2.232   7.268 -0.6636 -0.7203 -0.2951
   34MOL   C35418900   5.820   2.370   7.250 -0.5699 -0.6097 -0.8858
   34MOL   O35518901   5.911   2.641   7.263  0.0906  0.7094  0.4094
   34MOL   H35618902   6.144   2.373   7.131 -0.8433  1.6413 -1.9710
   34MOL   H35718903   6.102   2.121   7.142 -0.9177  0.2871 -2.0123
   34MOL   H35818904   6.060   1.974   7.282 -0.5264  0.8780  0.5804
   34MOL   H35918905   5.827   1.712   7.137 -0.0061 -0.3686 -1.4278
   34MOL   H36018906   5.903   1.521   6.998  0.6189  0.3739 -2.1966
   34MOL   H36118907   6.085   1.479   6.836 -1.7227 -1.5185  1.1062
   34MOL   H36218908   6.311   1.645   7.083 -1.4070 -1.4119 -2.1505
   34MOL   H36318909   6.229   1.835   7.211  0.1239 -0.3109  1.2903
   34MOL   H36418910   5.712   2.202   7.316 -0.3349  0.6464  1.2433
   34MOL   H36518911   5.753   2.446   7.287  0.2842  0.2578 -1.1077
   34MOL   C36618912   6.275   1.442   6.874  0.1526  0.6896  0.0254
   34MOL   C36718913   6.286   1.403   6.723  0.2590 -0.4094  0.0250
   34MOL   C36818914   6.401   1.448   6.654  0.0065 -0.1129  0.0857
   34MOL   C36918915   6.417   1.424   6.518  0.1074 -0.8630  0.7388
   34MOL   C37018916   6.310   1.363   6.444 -0.0123  0.4645 -0.0531
   34MOL   C37118917   6.311   1.344   6.297 -0.2353  1.0200 -0.4825
   34MOL   N37218918   6.396   1.427   6.236 -0.2023 -0.3533 -0.6549
   34MOL   C37318919   6.413   1.443   6.095 -0.9670  0.3777 -0.0787
   34MOL   C37418920   6.400   1.335   6.005  0.4868 -0.0785  0.6992
   34MOL   C37518921   6.423   1.344   5.869 -0.9835  0.1128  0.1122
   34MOL   C37618922   6.465   1.469   5.813 -0.5532  0.0075 -0.4660
   34MOL   N37718923   6.500   1.473   5.671  0.1892 -0.0359 -0.0387
   34MOL   C37818924   6.475   1.583   5.903  0.1185 -0.3672  1.0820
   34MOL   C37918925   6.447   1.570   6.038  0.0703  0.2377  0.8732
   34MOL   O38018926   6.234   1.264   6.241  0.0704 -0.0160  0.3507
   34MOL   C38118927   6.202   1.304   6.517  0.7029 -0.3360  0.1775
   34MOL   C38218928   6.187   1.325   6.654  0.6639  0.5837 -0.1475
   34MOL   O38318929   6.370   1.435   6.948 -0.6678 -0.2857 -0.0521
   34MOL   H38418930   6.471   1.514   6.703 -0.5762 -0.5087  1.4821
   34MOL   H38518931   6.506   1.456   6.465 -1.6534  1.5718 -0.8408
   34MOL   H38618932   6.450   1.493   6.291 -0.9436 -1.3860  1.3366
   34MOL   H38718933   6.394   1.232   6.040  1.6002 -0.5140 -0.3565
   34MOL   H38818934   6.419   1.260   5.802 -1.1050  0.8179 -0.7640
   34MOL   H38918935   6.501   1.386   5.619 -2.3383 -0.4230  0.4967
   34MOL   H39018936   6.499   1.681   5.866 -0.6380 -0.3871  0.5235
   34MOL   H39118937   6.452   1.661   6.097  0.1470 -0.5531  2.1153
   34MOL   H39218938   6.134   1.235   6.471  2.7361 -4.6236  3.2966
   34MOL   H39318939   6.113   1.273   6.712  0.5358  0.7567 -0.1548
   34MOL   C39418940   6.519   1.581   5.593 -0.6131 -0.5441  0.6603
   34MOL   C39518941   6.585   1.554   5.460 -0.1659  0.3812 -0.1914
   34MOL   C39618942   6.592   1.664   5.366  0.3458  0.0607  0.9587
   34MOL   C39718943   6.628   1.643   5.233 -0.0227 -0.2264 -0.0681
   34MOL   C39818944   6.685   1.518   5.193 -0.1976 -0.6333 -0.2745
   34MOL   C39918945   6.742   1.499   5.058  0.6996  0.2629 -0.0871
   34MOL   N40018946   6.776   1.377   5.021 -0.0986  0.2099  0.5821
   34MOL   C40118947   6.877   1.346   4.929 -0.3283 -0.3427  0.7079
   34MOL   C40218948   6.921   1.421   4.812 -0.4315 -0.6742 -0.4191
   34MOL   C40318949   7.024   1.377   4.734 -0.6060  0.1188  0.9140
   34MOL   C40418950   7.075   1.250   4.751  0.7253  0.1823  0.0029
   34MOL   N40518951   7.187   1.215   4.667  0.4623 -0.0344 -0.6851
   34MOL   C40618952   7.034   1.171   4.856 -0.5120 -0.3393 -0.3749
   34MOL   C40718953   6.937   1.215   4.942 -0.5188 -0.9440 -0.2264
   34MOL   O40818954   6.738   1.592   4.977 -0.0030  0.3814  0.1864
   34MOL   C40918955   6.683   1.417   5.287 -0.0031 -0.1945  0.2147
   34MOL   C41018956   6.626   1.428   5.412  0.7539 -0.0707  0.2917
   34MOL   O41118957   6.482   1.699   5.619  0.1219  0.0073  0.2354
   34MOL   H41218958   6.542   1.756   5.392  1.0450  1.2021 -1.6039
   34MOL   H41318959   6.620   1.726   5.166  0.1520 -0.0474  0.1339
   34MOL   H41418960   6.757   1.295   5.076  2.5100  1.0284  2.8339
   34MOL   H41518961   6.878   1.517   4.788 -0.0196 -0.9261 -2.1840
   34MOL   H41618962   7.050   1.444   4.653 -1.1722 -0.2368  0.4289
   34MOL   H41718963   7.206   1.274   4.587  0.2514  0.9811  0.0087
   34MOL   H41818964   7.063   1.067   4.856  0.9191  0.0520 -0.9560
   34MOL   H41918965   6.899   1.153   5.022 -2.1052  0.5138  0.1737
   34MOL   H42018966   6.716   1.321   5.252 -1.2213 -0.7021  0.4112
   34MOL   H42118967   6.619   1.342   5.476 -2.2087 -1.6977 -2.0683
   34MOL   C42218968   7.274   1.110   4.680 -0.3285 -1.0696 -1.0731
   34MOL   C42318969   7.389   1.110   4.581 -0.7568  0.6640  0.0343
   34MOL   C42418970   7.486   1.014   4.594  0.2352 -0.1123 -0.3637
   34MOL   C42518971   7.590   1.009   4.499 -0.1707 -0.2458  0.7090
   34MOL   C42618972   7.595   1.100   4.392 -0.1646  0.0492  0.2695
   34MOL   C42718973   7.725   1.123   4.321  0.3801 -0.2983 -0.2492
   34MOL   N42818974   7.718   1.184   4.204 -0.0535 -0.0058 -1.1016
   34MOL   C42918975   7.828   1.231   4.122 -0.1508  0.4755 -0.3120
   34MOL   C43018976   7.941   1.295   4.179  0.0616 -0.5551 -0.3265
   34MOL   C43118977   8.040   1.345   4.094 -0.3709 -0.7110 -0.1008
   34MOL   C43218978   8.034   1.328   3.956 -0.1939 -0.1845  0.4062
   34MOL   N43318979   8.137   1.385   3.877 -0.5187 -0.5675  0.2156
   34MOL   C43418980   7.924   1.267   3.902 -0.2229 -0.9312 -0.1684
   34MOL   C43518981   7.815   1.228   3.983 -0.5046  0.6353 -0.1207
   34MOL   O43618982   7.826   1.082   4.365 -0.0319  0.4323  0.0004
   34MOL   C43718983   7.488   1.189   4.370  0.1456 -0.2588 -0.2290
   34MOL   C43818984   7.381   1.192   4.466 -0.0813 -0.2113  0.1731
   34MOL   O43918985   7.281   1.031   4.776  0.5364 -0.0480  0.5666
   34MOL   H44018986   7.482   0.942   4.674  1.4103 -1.5149 -1.5376
   34MOL   H44118987   7.670   0.938   4.502  0.1217  0.0139 -0.6352
   34MOL   H44218988   7.623   1.207   4.179 -0.8806  0.1119  1.9038
   34MOL   H44318989   7.939   1.309   4.286  1.3480 -2.2216 -0.0697
   34MOL   H44418990   8.118   1.406   4.138 -1.4550  1.1443 -0.6737
   34MOL   H44518991   0.034   1.473   3.902  1.9290 -1.2610 -1.3320
   34MOL   H44618992   7.923   1.265   3.794  0.7364  2.7491 -0.3252
   34MOL   H44718993   7.725   1.185   3.940 -1.2966  0.5600  1.5666
   34MOL   H44818994   7.496   1.259   4.288 -0.2331 -0.4422 -0.4205
   34MOL   H44918995   7.314   1.277   4.461 -0.9163 -0.8738 -0.0054
   34MOL   C45018996   0.059   1.314   3.778  1.3023  0.0372 -0.9019
   34MOL   C45118997   0.165   1.394   3.699  0.3992 -0.2780 -0.1509
   34MOL   C45218998   0.249   1.333   3.610  0.0022  0.1720 -0.0044
   34MOL   C45318999   0.355   1.402   3.549  0.0419 -0.4293 -0.6282
   34MOL   C45419000   0.373   1.541   3.570  0.9359 -0.5735 -0.2441
   34MOL   C45519001   0.483   1.616   3.502  0.0512 -0.5087  0.0760
   34MOL   N45619002   0.470   1.621   3.369 -0.3445  0.5137 -0.7738
   34MOL   C45719003   0.543   1.689   3.267 -0.1594 -0.5963 -0.5076
   34MOL   C45819004   0.659   1.760   3.294  0.0450 -0.0041  0.0828
   34MOL   C45919005   0.735   1.830   3.192 -0.1089  0.9304 -0.2680
   34MOL   C46019006   0.701   1.808   3.059  0.3106 -0.6805  0.1701
   34MOL   N46119007   0.759   1.879   2.951  0.5119 -0.0171  0.1261
   34MOL   C46219008   0.601   1.713   3.025 -0.1296  0.4044  0.2856
   34MOL   C46319009   0.522   1.661   3.134 -0.3906  0.4159 -1.3793
   34MOL   O46419010   0.566   1.675   3.576  0.1137 -0.1619  0.3688
   34MOL   C46519011   0.291   1.609   3.670 -0.6878  0.4400  0.4213
   34MOL   C46619012   0.187   1.535   3.724  0.2486 -0.0819 -0.8487
   34MOL   O46719013   0.032   1.197   3.754  0.4432 -0.4074  0.0919
   34MOL   H46819014   0.230   1.230   3.582 -0.4976  0.2830 -0.0787
   34MOL   H46919015   0.424   1.349   3.486 -0.8421  0.8038 -2.6912
   34MOL   H47019016   0.402   1.559   3.328 -0.2734  0.2613 -0.5145
   34MOL   H47119017   0.680   1.780   3.398 -1.5138 -0.3755  0.4724
   34MOL   H47219018   0.819   1.884   3.231  1.4292 -2.2448  1.0213
   34MOL   H47319019   0.712   1.876   2.861  1.9704 -1.9028 -0.5885
   34MOL   H47419020   0.575   1.685   2.923  0.1244 -0.7293  0.5180
   34MOL   H47519021   0.445   1.589   3.111  1.1155 -1.9397  0.6586
   34MOL   H47619022   0.320   1.711   3.686  1.0261  0.0736 -0.2576
   34MOL   H47719023   0.129   1.581   3.803  0.2448 -1.4030 -0.0703
   34MOL   C47819024   0.871   1.945   2.956  0.2876 -0.2834  0.9723
   34MOL   C47919025   0.913   2.022   2.830  0.5844 -0.2951  0.1608
   34MOL   C48019026   1.053   2.049   2.806 -0.0735 -0.0327 -0.1855
   34MOL   C48119027   1.092   2.132   2.701  0.7035  0.0609 -0.1120
   34MOL   C48219028   0.999   2.179   2.613  0.2996 -0.4882 -0.3851
   34MOL   C48319029   1.041   2.269   2.498 -0.2926 -0.3079 -0.7986
   34MOL   N48419030   0.984   2.234   2.377  0.0235 -0.3926  0.3540
   34MOL   C48519031   0.982   2.301   2.255 -0.0765 -0.7489  0.4205
   34MOL   C48619032   0.901   2.236   2.156  0.7898 -0.1337  0.2841
   34MOL   C48719033   0.896   2.298   2.028  0.1857 -0.0153 -0.6400
   34MOL   C48819034   0.969   2.412   2.005  0.4068 -1.1439  0.6464
   34MOL   N48919035   0.954   2.470   1.870  0.0174 -0.1118 -1.0101
   34MOL   C49019036   1.054   2.476   2.099  0.3096  0.6401 -0.2466
   34MOL   C49119037   1.060   2.417   2.227 -0.4438  0.1887 -0.2202
   34MOL   O49219038   1.115   2.366   2.517 -0.2623 -0.1621  0.1569
   34MOL   C49319039   0.866   2.134   2.624  0.9370 -0.1539  0.2935
   34MOL   C49419040   0.815   2.065   2.734 -0.0540 -0.5120  1.2565
   34MOL   O49519041   0.956   1.937   3.046  0.4013  1.1113 -0.2820
   34MOL   H49619042   1.125   2.015   2.879 -1.4219 -2.6164 -0.0289
   34MOL   H49719043   1.193   2.157   2.672  0.2104  0.1894 -1.7936
   34MOL   H49819044   0.939   2.144   2.376 -2.3054  0.7407  0.3128
   34MOL   H49919045   0.848   2.142   2.164  1.9457 -0.8818 -0.7889
   34MOL   H50019046   0.843   2.250   1.946 -1.2733 -2.3057  1.5592
   34MOL   H50119047   0.865   2.458   1.825 -0.5335 -0.1063  0.0710
   34MOL   H50219048   1.107   2.568   2.077 -0.2122  1.3697  1.3980
   34MOL   H50319049   1.125   2.469   2.296 -0.2132  1.7846 -1.6114
   34MOL   H50419050   0.788   2.161   2.554 -0.4493 -1.7145  1.1990
   34MOL   H50519051   0.711   2.047   2.755  0.5205 -1.6147  3.3711
   34MOL   C50619052   1.054   2.515   1.793 -0.4037 -0.0373 -0.4710
   34MOL   C50719053   1.016   2.556   1.656  0.1173  0.4772 -0.8207
   34MOL   C50819054   1.104   2.533   1.545 -0.0072 -0.4904 -0.4310
   34MOL   C50919055   1.068   2.564   1.417  0.4663  0.3056  0.3492
   34MOL   C51019056   0.954   2.638   1.390 -0.0401 -0.4331  0.2240
   34MOL   C51119057   0.925   2.685   1.252 -0.0603 -0.1186  0.3850
   34MOL   N51219058   0.984   2.615   1.154  0.0708 -0.6687  0.0844
   34MOL   C51319059   0.935   2.613   1.019 -0.5216  0.0059  0.4120
   34MOL   C51419060   0.904   2.734   0.953  1.0584  0.9046  0.0701
   34MOL   C51519061   0.876   2.741   0.817 -0.3475 -0.0585 -0.0985
   34MOL   C51619062   0.877   2.616   0.747 -0.3917 -0.5298  0.2775
   34MOL   N51719063   0.865   2.623   0.606 -0.1246  0.0297  0.9452
   34MOL   C51819064   0.896   2.492   0.811 -0.2314 -0.4182  0.0385
   34MOL   C51919065   0.935   2.492   0.943 -0.4201  1.2288 -0.4888
   34MOL   O52019066   0.848   2.778   1.237  0.0723  0.0773 -0.3068
   34MOL   C52119067   0.870   2.668   1.499 -0.0123 -0.3692 -1.0703
   34MOL   C52219068   0.897   2.629   1.635 -0.9228 -0.5608 -0.1859
   34MOL   O52319069   1.175   2.516   1.828  0.3436 -0.5732  0.2444
   34MOL   H52419070   1.201   2.488   1.561  1.0979  1.9729  0.1399
   34MOL   H52519071   1.131   2.534   1.335 -0.8139  0.5784 -0.7469
   34MOL   H52619072   1.049   2.540   1.174  1.9445  1.0133  0.5494
   34MOL   H52719073   0.914   2.822   1.015  0.3698  0.6917  0.4924
   34MOL   H52819074   0.869   2.840   0.775 -2.9367  0.3785  1.2834
   34MOL   H52919075   0.902   2.707   0.562  0.0236 -0.6837 -0.3139
   34MOL   H53019076   0.882   2.402   0.752 -0.2769  1.1879 -2.4517
   34MOL   H53119077   0.954   2.404   1.003 -2.1512  1.4353  0.4020
   34MOL   H53219078   0.789   2.736   1.482 -1.1026 -0.4181  3.4521
   34MOL   H53319079   0.834   2.666   1.714  1.8526  0.3750  1.6092
   34MOL   C53419080   0.831   2.534   0.520  0.6897  0.5937  0.1709
   34MOL   C53519081   0.828   2.596   0.386 -0.4267  0.5488  0.0271
   34MOL   C53619082   0.893   2.538   0.277 -0.3225  0.1648  0.5214
   34MOL   C53719083   0.882   2.595   0.149  0.0527 -0.3484 -0.6988
   34MOL   C53819084   0.797   2.700   0.121 -0.0494  0.6550 -0.0638
   34MOL   C53919085   0.798   2.761   8.133  0.3015  0.2531 -0.6419
   34MOL   N54019086   0.679   2.778   8.090  0.1891 -0.0499  0.1151
   34MOL   C54119087   0.652   2.812   7.962  0.6143 -0.3547  0.3577
   34MOL   C54219088   0.684   2.721   7.853  0.5011  0.1229 -0.9144
   34MOL   C54319089   0.646   2.753   7.720  0.3613 -0.6159  0.6052
   34MOL   C54419090   0.592   2.879   7.688 -0.4147 -0.0434 -0.6999
   34MOL   N54519091   0.558   2.908   7.556  0.1113  0.4609 -0.2989
   34MOL   C54619092   0.557   2.967   7.794  0.1178  0.3371  0.3144
   34MOL   C54719093   0.590   2.935   7.928  0.1187  0.1023  0.4450
   34MOL   O54819094   0.903   2.776   8.071  0.3576 -0.2009  0.2832
   34MOL   C54919095   0.726   2.751   0.234 -0.4481 -0.4648 -0.2980
   34MOL   C55019096   0.739   2.700   0.360  0.4993  0.3286 -0.8530
   34MOL   O55119097   0.783   2.424   0.539 -0.1117  0.2314  0.0417
   34MOL   H55219098   0.946   2.444   0.287 -1.6306 -0.5929  0.5651
   34MOL   H55319099   0.924   2.537   0.068 -1.2488  1.4228 -2.7181
   34MOL   H55419100   0.602   2.751   0.003 -0.0963 -1.6305 -0.9626
   34MOL   H55519101   0.716   2.619   7.872  0.8506  0.3798 -0.0971
   34MOL   H55619102   0.665   2.679   7.643 -2.0081 -0.0147 -0.5962
   34MOL   H55719103   0.595   2.868   7.471  2.9706  1.4297  0.4396
   34MOL   H55819104   0.514   3.064   7.774 -0.3522  0.5538  2.2228
   34MOL   H55919105   0.570   3.007   8.007  0.2899 -0.3439  0.8926
   34MOL   H56019106   0.664   2.839   0.227  0.9484  0.4197 -2.1239
   34MOL   H56119107   0.677   2.744   0.436 -0.3397  0.0150 -1.3365
   34MOL   H56219108   0.520   3.001   7.547 -1.0520  0.0858  0.5861
   35MOL     C119109   4.517   8.065   4.242  0.0251 -0.1238 -0.5315
   35MOL     C219110   4.436   8.017   4.130 -0.2606  0.5649 -0.2294
   35MOL     C319111   4.444   7.884   4.081  0.3370  0.2129  0.0204
   35MOL     C419112   4.377   7.849   3.966 -0.3862  0.1610  0.1500
   35MOL     C519113   4.282   7.935   3.908 -0.2793 -0.7260 -0.1212
   35MOL     C619114   4.207   7.891   3.784  0.3047  0.3289 -0.0672
   35MOL     N719115   4.083   7.945   3.775 -0.2729 -0.2817  0.9502
   35MOL     C819116   3.983   7.946   3.671 -0.6513  0.6773  0.4668
   35MOL     C919117   3.977   7.838   3.583  0.0427  0.8412 -0.1670
   35MOL    C1019118   3.878   7.835   3.483 -0.4041  0.0902 -0.7583
   35MOL    C1119119   3.778   7.935   3.482  0.2196 -0.7394  0.2814
   35MOL    N1219120   3.679   7.922   3.378  0.2786  0.3894 -0.3235
   35MOL    C1319121   3.792   8.048   3.564 -0.3611 -0.3557  0.2629
   35MOL    C1419122   3.890   8.049   3.663  0.0667  0.8444 -0.0267
   35MOL    O1519123   4.258   7.800   3.718  0.1378  0.2466  0.2714
   35MOL    C1619124   4.263   8.060   3.967 -0.2558 -0.8697 -0.3047
   35MOL    C1719125   4.345   8.106   4.072 -0.0334 -0.1736 -0.6823
   35MOL    O1819126   4.522   0.032   4.287 -0.3220  0.1297 -0.4254
   35MOL    H1919127   4.517   7.818   4.125  1.2788  0.9938 -0.3487
   35MOL    H2019128   4.391   7.745   3.939 -1.9644  0.5237 -2.2701
   35MOL    H2119129   4.051   7.987   3.861 -1.0532  0.7935  0.1469
   35MOL    H2219130   4.046   7.756   3.596  0.8011  1.5521  0.3339
   35MOL    H2319131   3.869   7.749   3.418 -1.5304 -0.5854  0.2780
   35MOL    H2419132   3.709   7.864   3.301 -3.0886 -2.1421  0.1379
   35MOL    H2519133   3.732   8.138   3.560  1.1369  0.6050 -1.8473
   35MOL    H2619134   3.897   8.142   3.718  1.5853  1.2502 -0.8704
   35MOL    H2719135   4.197   8.132   3.923 -0.1669 -0.9161 -0.5125
   35MOL    H2819136   4.338   0.062   4.107  2.3882 -0.0949 -0.3865
   35MOL    H2919137   4.569   7.983   4.292 -1.1281 -1.3942 -1.3586
   35MOL    C3019138   3.551   7.960   3.379 -0.3088 -0.1473  0.4331
   35MOL    C3119139   3.476   7.922   3.254 -0.5295 -0.6398 -0.3374
   35MOL    C3219140   3.358   7.995   3.226  0.4660 -0.2600  1.0537
   35MOL    C3319141   3.292   7.964   3.105  0.3127 -0.6653  0.5666
   35MOL    C3419142   3.330   7.861   3.016  0.1180 -0.4218  0.2371
   35MOL    C3519143   3.257   7.835   2.888  0.8488  0.6708  0.3413
   35MOL    N3619144   3.261   7.709   2.851 -0.3433 -0.0460 -0.0771
   35MOL    C3719145   3.216   7.664   2.722  0.2796  0.0397 -0.2810
   35MOL    C3819146   3.283   7.552   2.680  0.3349 -0.4687 -0.2284
   35MOL    C3919147   3.248   7.491   2.555 -0.3181  0.6768  0.1173
   35MOL    C4019148   3.148   7.550   2.473  0.2724  0.6346 -0.2315
   35MOL    N4119149   3.107   7.494   2.350 -0.2208  0.3090 -0.3584
   35MOL    C4219150   3.076   7.664   2.518 -0.5368 -0.0268  0.1830
   35MOL    C4319151   3.108   7.713   2.649 -0.5863 -0.1457 -0.1202
   35MOL    O4419152   3.186   7.917   2.832  0.5221 -0.0955 -0.4242
   35MOL    C4519153   3.449   7.792   3.047  0.4861  0.5620  0.1351
   35MOL    C4619154   3.517   7.815   3.167  0.0718  0.2961 -0.7155
   35MOL    O4719155   3.498   8.024   3.462  0.3429  0.0179 -0.0891
   35MOL    H4819156   3.320   8.070   3.294  1.6023  2.2912 -1.0737
   35MOL    H4919157   3.206   8.024   3.081  0.9985 -0.0600 -0.4358
   35MOL    H5019158   3.310   7.650   2.916 -0.8511 -2.0917 -1.4899
   35MOL    H5119159   3.361   7.511   2.743  0.9368  2.0122  0.6699
   35MOL    H5219160   3.296   7.399   2.524 -1.7512  0.0044 -0.1420
   35MOL    H5319161   3.051   7.552   2.290 -0.8642 -0.2103 -0.2572
   35MOL    H5419162   2.985   7.693   2.468 -0.5027 -0.1609  0.0415
   35MOL    H5519163   3.039   7.781   2.698 -2.5930 -0.9540 -1.7434
   35MOL    H5619164   3.489   7.715   2.983 -1.9160  1.5170 -2.6655
   35MOL    H5719165   3.614   7.773   3.188 -0.8185 -1.2927  0.3723
   35MOL    C5819166   3.129   7.375   2.295  0.9133  0.5197 -0.2789
   35MOL    C5919167   3.059   7.351   2.159  0.3684 -0.4523  0.1108
   35MOL    C6019168   3.107   7.252   2.066 -0.2272 -0.5567 -0.0847
   35MOL    C6119169   3.036   7.221   1.951  0.1497  0.7351  0.2231
   35MOL    C6219170   2.915   7.291   1.924  0.1020  1.0253  0.4884
   35MOL    C6319171   2.831   7.257   1.805 -0.1074  0.4698 -0.9087
   35MOL    N6419172   2.823   7.124   1.788  0.2782  0.1388  0.0195
   35MOL    C6519173   2.750   7.049   1.691 -0.4177  0.3207 -0.6920
   35MOL    C6619174   2.785   7.058   1.558 -0.1623 -0.7327 -0.3396
   35MOL    C6719175   2.726   6.970   1.467 -0.4373 -0.4342  0.3398
   35MOL    C6819176   2.637   6.873   1.511 -0.1020  0.3805  0.1601
   35MOL    N6919177   2.557   6.796   1.432 -0.9898  0.4018  0.3517
   35MOL    C7019178   2.607   6.861   1.648  0.1504 -0.0320 -0.5503
   35MOL    C7119179   2.675   6.941   1.737 -0.0861 -0.1332  0.1916
   35MOL    O7219180   2.769   7.348   1.748  0.2918  0.4004 -1.0588
   35MOL    C7319181   2.869   7.393   2.016  0.3512 -0.5137 -0.0932
   35MOL    C7419182   2.936   7.423   2.132 -0.0033 -0.5423  0.0851
   35MOL    O7519183   3.190   7.275   2.332  0.1461  0.4689  0.2538
   35MOL    H7619184   3.200   7.202   2.087 -1.6754 -2.9074  0.8496
   35MOL    H7719185   3.085   7.151   1.884  0.4234 -0.5721  1.7609
   35MOL    H7819186   2.853   7.070   1.868 -0.3987 -1.2148 -0.6183
   35MOL    H7919187   2.855   7.137   1.535 -0.6295  0.7608  3.0526
   35MOL    H8019188   2.741   6.976   1.360 -0.1170  2.0987  0.4933
   35MOL    H8119189   2.488   6.735   1.475 -2.2672  2.1845  0.9176
   35MOL    H8219190   2.540   6.786   1.687  0.8836 -0.1013  0.6156
   35MOL    H8319191   2.655   6.925   1.842 -0.5404 -0.5755  0.0393
   35MOL    H8419192   2.782   7.452   1.991  0.6696  0.3610  0.8385
   35MOL    H8519193   2.900   7.506   2.190  1.3961  1.9706 -2.5433
   35MOL    C8619194   2.552   6.787   1.298  0.6866 -0.4483 -0.0776
   35MOL    C8719195   2.424   6.728   1.248 -0.4165 -0.8391 -0.4676
   35MOL    C8819196   2.340   6.815   1.175 -0.9765 -0.6270 -0.1137
   35MOL    C8919197   2.215   6.775   1.131  1.0268 -0.0188  0.1984
   35MOL    C9019198   2.162   6.650   1.170 -0.1730 -0.6107  0.0053
   35MOL    C9119199   2.025   6.611   1.128 -0.7715 -0.6435  0.4808
   35MOL    N9219200   2.013   6.491   1.063  0.0656 -0.2093  0.8262
   35MOL    C9319201   2.112   6.409   0.995 -0.1484  0.4521 -0.3495
   35MOL    C9419202   2.218   6.463   0.930  0.0895  0.7498 -0.4024
   35MOL    C9519203   2.324   6.386   0.882  0.3180 -0.5470  0.4436
   35MOL    C9619204   2.322   6.250   0.899 -0.4160  0.2765 -0.0276
   35MOL    N9719205   2.423   6.170   0.843 -0.1389  0.7701 -0.0386
   35MOL    C9819206   2.205   6.186   0.947 -0.6139 -0.6110  0.1912
   35MOL    C9919207   2.097   6.272   0.988 -0.2646  0.2568 -0.5321
   35MOL   O10019208   1.919   6.680   1.145  0.0678 -0.0140 -0.0515
   35MOL   C10119209   2.248   6.561   1.246  0.7528  0.0496  0.5197
   35MOL   C10219210   2.382   6.596   1.268  0.2909 -0.6148 -0.2798
   35MOL   O10319211   2.629   6.837   1.217  0.0027 -0.0747 -0.3752
   35MOL   H10419212   2.365   6.919   1.160 -1.1381 -0.3248  1.5694
   35MOL   H10519213   2.154   6.843   1.074  0.6185  1.5944  2.4691
   35MOL   H10619214   1.918   6.457   1.056  0.1806 -0.1733 -1.0918
   35MOL   H10719215   2.225   6.569   0.911  0.7101  0.5393 -1.3788
   35MOL   H10819216   2.401   6.442   0.831 -1.3949  0.9698 -0.5079
   35MOL   H10919217   2.388   6.106   0.773  0.0873 -0.3516  0.8542
   35MOL   H11019218   2.201   6.080   0.966  1.0860 -0.9408 -1.1205
   35MOL   H11119219   2.012   6.222   1.033  1.7263 -0.9001  2.0860
   35MOL   H11219220   2.203   6.466   1.271 -0.8472  0.3848 -0.9323
   35MOL   H11319221   2.446   6.516   1.303  1.8005 -0.2280 -2.0672
   35MOL   C11419222   2.556   6.174   0.861  0.0682 -1.0175 -0.8743
   35MOL   C11519223   2.610   6.243   0.982 -0.0800 -0.1583  0.2655
   35MOL   C11619224   2.545   6.228   1.103  0.5170 -0.2150 -0.5598
   35MOL   C11719225   2.601   6.285   1.219  0.5267  0.4252 -0.2773
   35MOL   C11819226   2.706   6.385   1.205 -1.1355 -0.3429  0.0184
   35MOL   C11919227   2.748   6.466   1.326  1.4156  1.0665  0.1744
   35MOL   N12019228   2.874   6.505   1.334  0.2042  0.3560  0.4137
   35MOL   C12119229   2.938   6.576   1.434 -0.7136  0.3207 -0.6213
   35MOL   C12219230   2.884   6.661   1.535  1.0216  0.4093  0.0909
   35MOL   C12319231   2.968   6.716   1.627  0.3981 -0.0956 -0.3852
   35MOL   C12419232   3.110   6.707   1.624  0.3541  0.4774  0.0604
   35MOL   N12519233   3.193   6.786   1.707 -0.2873 -0.0480  0.3862
   35MOL   C12619234   3.165   6.632   1.518 -0.1926 -0.0678  0.0660
   35MOL   C12719235   3.083   6.562   1.426  0.1441  0.2169 -0.2919
   35MOL   O12819236   2.672   6.467   1.427  0.2868 -0.4496  0.1827
   35MOL   C12919237   2.774   6.401   1.082 -0.4160 -0.5373  0.2257
   35MOL   C13019238   2.727   6.327   0.973  0.1158 -0.2383 -0.1873
   35MOL   O13119239   2.628   6.136   0.772  0.1895  0.1637  0.8571
   35MOL   H13219240   2.458   6.164   1.116  1.0055 -0.4608  1.7662
   35MOL   H13319241   2.542   6.273   1.309 -0.1278 -1.7607 -0.9735
   35MOL   H13419242   2.927   6.490   1.249  1.6199  1.4450  1.0848
   35MOL   H13519243   2.777   6.671   1.540  1.0353  0.0571  1.1605
   35MOL   H13619244   2.924   6.769   1.711 -1.3566 -1.6860 -0.2670
   35MOL   H13719245   3.272   6.830   1.662 -2.0248  2.2640 -0.4676
   35MOL   H13819246   3.272   6.624   1.518 -0.0817  1.0914  1.4207
   35MOL   H13919247   3.119   6.490   1.354  3.0036 -1.1598  2.3902
   35MOL   H14019248   2.858   6.468   1.068 -2.6815  2.0084 -1.6683
   35MOL   H14119249   2.773   6.333   0.875 -0.3026 -0.0578 -0.3740
   35MOL   C14219250   3.177   6.798   1.846  0.3248 -0.3572 -0.8558
   35MOL   C14319251   3.265   6.896   1.916  0.7085  0.5133  0.3421
   35MOL   C14419252   3.269   6.910   2.054  0.4691  0.2914  0.0869
   35MOL   C14519253   3.359   6.993   2.121 -0.2385  0.1372 -0.1522
   35MOL   C14619254   3.439   7.083   2.046 -0.0179 -0.3429 -0.2174
   35MOL   C14719255   3.504   7.207   2.113 -0.1975  0.5431 -0.7371
   35MOL   N14819256   3.527   7.200   2.247  0.3909 -0.5068  0.0177
   35MOL   C14919257   3.588   7.305   2.327 -0.1911  0.2823  0.7124
   35MOL   C15019258   3.559   7.291   2.463  0.8457  0.5296 -0.4528
   35MOL   C15119259   3.610   7.384   2.559 -0.7341  0.0552 -0.2394
   35MOL   C15219260   3.709   7.481   2.527  0.0019  0.2404 -0.2434
   35MOL   N15319261   3.790   7.548   2.619 -0.1473 -0.2431  0.2741
   35MOL   C15419262   3.743   7.484   2.387  0.3148 -0.2231  0.4903
   35MOL   C15519263   3.688   7.398   2.288 -0.3338  0.5438  0.1458
   35MOL   O15619264   3.530   7.307   2.041 -0.0125  0.7049  0.0726
   35MOL   C15719265   3.442   7.070   1.905  0.1072 -0.0091  0.0023
   35MOL   C15819266   3.348   6.982   1.840  0.0145 -0.3928 -0.0035
   35MOL   O15919267   3.103   6.724   1.915  0.3586 -1.1332 -0.2160
   35MOL   H16019268   3.204   6.847   2.114 -1.1897  0.1554 -1.7918
   35MOL   H16119269   3.360   6.992   2.229  1.2644 -1.3073 -0.1539
   35MOL   H16219270   3.502   7.113   2.292  0.6163 -1.2985 -1.3568
   35MOL   H16319271   3.502   7.210   2.503  0.1482  0.4664 -1.5485
   35MOL   H16419272   3.592   7.372   2.665  0.6040  1.8443  0.2176
   35MOL   H16519273   3.883   7.573   2.587  0.3495 -2.2047  0.1168
   35MOL   H16619274   3.834   7.540   2.369  0.8237 -0.7233  1.4923
   35MOL   H16719275   3.723   7.394   2.186  0.2650  1.8079  0.2991
   35MOL   H16819276   3.512   7.131   1.850 -0.4449  1.1110  0.5132
   35MOL   H16919277   3.351   6.969   1.733  0.1901 -0.6298  0.0300
   35MOL   C17019278   3.773   7.555   2.753 -0.1583  0.0042  0.4710
   35MOL   C17119279   3.888   7.612   2.835 -0.0966 -0.2643 -0.0042
   35MOL   C17219280   3.863   7.704   2.938 -0.2235 -0.0674  0.5650
   35MOL   C17319281   3.968   7.754   3.017 -1.0300  0.1406 -0.2527
   35MOL   C17419282   4.106   7.722   2.979  0.9684  0.5531 -0.1526
   35MOL   C17519283   4.229   7.787   3.045  0.3810  0.0617  1.0325
   35MOL   N17619284   4.228   7.801   3.178  0.2697 -0.4053  0.0798
   35MOL   C17719285   4.311   7.892   3.252  0.1704  0.7980  0.1133
   35MOL   C17819286   4.419   7.963   3.201  0.0332  0.1643 -0.5575
   35MOL   C17919287   4.480   8.053   3.282 -0.3504  0.2777 -0.0404
   35MOL   C18019288   4.442   8.083   3.414  0.3571 -0.5518  0.4607
   35MOL   N18119289   4.503   0.036   3.486 -0.1853  0.3614 -0.2784
   35MOL   C18219290   4.332   8.006   3.460  0.5045  0.2896 -0.4493
   35MOL   C18319291   4.276   7.906   3.387 -0.5334 -0.5048 -0.5834
   35MOL   O18419292   4.313   7.828   2.969  0.4819 -1.0756  0.0128
   35MOL   C18519293   4.125   7.635   2.871  0.2858 -0.0101 -0.2320
   35MOL   C18619294   4.020   7.571   2.805  0.5024  0.0640 -0.3402
   35MOL   O18719295   3.664   7.547   2.810 -0.2164  0.2762  0.1298
   35MOL   H18819296   3.760   7.730   2.955 -0.6461 -2.1766  1.4310
   35MOL   H18919297   3.964   7.812   3.108  0.7774 -1.2487  0.7454
   35MOL   H19019298   4.152   7.758   3.231  1.7642 -0.1719  2.4850
   35MOL   H19119299   4.437   7.964   3.094 -1.0626  0.3100 -0.7550
   35MOL   H19219300   4.556   8.114   3.235  1.5468 -0.5460  1.8644
   35MOL   H19319301   4.574   0.088   3.436  1.7803 -1.7094  0.3084
   35MOL   H19419302   4.297   8.014   3.562  0.8366 -0.2742 -0.2903
   35MOL   H19519303   4.209   7.845   3.445 -1.8147  1.9073  0.5741
   35MOL   H19619304   4.223   7.607   2.834  0.4047  2.2113 -1.7255
   35MOL   H19719305   4.054   7.500   2.732  1.2909  0.1195 -0.0337
   35MOL   C19819306   4.495   0.060   3.619 -0.6972  0.5922 -0.5136
   35MOL   C19919307   4.601   0.153   3.669  0.1160 -0.1850  0.2740
   35MOL   C20019308   4.703   0.201   3.591  0.5990 -0.2804  0.3452
   35MOL   C20119309   4.809   0.281   3.650  0.2165 -0.0572 -0.7277
   35MOL   C20219310   4.797   0.311   3.793 -0.2218 -0.0087  0.6003
   35MOL   C20319311   4.901   0.404   3.861  0.3276 -0.0454 -0.1495
   35MOL   N20419312   4.869   0.534   3.860 -1.3180 -1.0727  0.1084
   35MOL   C20519313   4.919   0.645   3.932  1.1548  0.0820  0.0738
   35MOL   C20619314   4.988   0.634   4.050  0.2020  0.4061  0.0358
   35MOL   C20719315   5.026   0.750   4.123  0.0253  0.1948  0.7591
   35MOL   C20819316   4.990   0.880   4.070 -0.0734 -0.4717  0.0524
   35MOL   N20919317   5.032   1.000   4.120  0.1577 -0.1148  0.0337
   35MOL   C21019318   4.926   0.884   3.952  0.1438  0.1883 -0.3124
   35MOL   C21119319   4.887   0.773   3.875  0.4459 -0.7141  0.1359
   35MOL   O21219320   5.014   0.365   3.896  0.3727 -0.0351  0.3286
   35MOL   C21319321   4.686   0.271   3.867 -0.7515 -0.2719 -0.1916
   35MOL   C21419322   4.594   0.182   3.806 -0.5126 -0.4490 -0.3493
   35MOL   O21519323   4.410   0.017   3.695 -0.4699  0.8390 -0.0745
   35MOL   H21619324   4.705   0.191   3.483  3.5256  0.4082  0.2833
   35MOL   H21719325   4.889   0.321   3.590  0.5741 -0.0431 -0.2495
   35MOL   H21819326   4.788   0.550   3.802 -1.5848 -1.2851  0.4262
   35MOL   H21919327   5.010   0.537   4.092  1.9335  1.2890  1.2552
   35MOL   H22019328   5.070   0.730   4.220  0.2222  1.0729  0.8578
   35MOL   H22119329   5.015   1.082   4.064  0.5969 -0.6256 -0.8600
   35MOL   H22219330   4.901   0.979   3.906 -0.8014  0.3549  0.5320
   35MOL   H22319331   4.841   0.781   3.778  1.2331  1.3932 -0.0897
   35MOL   H22419332   4.682   0.308   3.969  0.9354  2.1306 -0.9378
   35MOL   H22519333   4.513   0.164   3.876 -0.0740  2.0034  0.8385
   35MOL   C22619334   5.076   1.030   4.239 -0.3507  0.0869 -0.2583
   35MOL   C22719335   5.089   1.180   4.243  0.5190  0.0777 -0.1440
   35MOL   C22819336   5.214   1.241   4.207  0.1503 -0.3786 -1.1953
   35MOL   C22919337   5.236   1.380   4.223 -0.0597 -0.0910 -0.0229
   35MOL   C23019338   5.128   1.457   4.273 -0.6266 -0.4676 -0.3321
   35MOL   C23119339   5.136   1.607   4.270 -0.2003  0.3408 -0.4742
   35MOL   N23219340   5.231   1.648   4.185 -0.2946  0.2213 -0.5363
   35MOL   C23319341   5.266   1.778   4.140 -0.2452 -0.2081 -0.2180
   35MOL   C23419342   5.367   1.784   4.041  0.4024  0.0042  0.1557
   35MOL   C23519343   5.407   1.901   3.987  1.0159 -0.1592  0.0323
   35MOL   C23619344   5.334   2.017   4.025 -0.4508 -0.4119  0.0856
   35MOL   N23719345   5.364   2.144   3.974  0.1942  0.0082 -0.5955
   35MOL   C23819346   5.242   2.021   4.131 -0.0820 -0.9864 -0.1970
   35MOL   C23919347   5.201   1.896   4.186 -0.0325 -0.4247  0.2811
   35MOL   O24019348   5.045   1.676   4.316 -0.5251 -0.1675  0.5034
   35MOL   C24119349   5.008   1.395   4.318 -0.3556  0.4271  0.5313
   35MOL   C24219350   4.987   1.260   4.296  0.1447 -0.2079  0.0331
   35MOL   O24319351   5.090   0.960   4.339 -0.0389  0.1263  0.0218
   35MOL   H24419352   5.294   1.183   4.162  1.1261  0.3347 -0.4058
   35MOL   H24519353   5.331   1.430   4.212 -0.9569  1.9449  1.2539
   35MOL   H24619354   5.281   1.568   4.150  0.6094  1.2463 -1.6450
   35MOL   H24719355   5.426   1.698   4.016  0.4593 -0.1215  0.7218
   35MOL   H24819356   5.491   1.897   3.920  1.4021  1.0703  0.4424
   35MOL   H24919357   5.352   2.216   4.044  1.7107  1.1418 -1.4776
   35MOL   H25019358   5.192   2.112   4.160 -0.3783 -0.6821 -1.6092
   35MOL   H25119359   5.138   1.897   4.274  0.9548 -1.4973  1.0144
   35MOL   H25219360   4.924   1.457   4.344 -1.1241 -0.8961  1.1867
   35MOL   H25319361   4.896   1.215   4.334 -0.3571  0.6868 -0.0809
   35MOL   C25419362   5.392   2.188   3.847 -0.0775 -0.5572 -0.0088
   35MOL   C25519363   5.406   2.092   3.727 -0.3012  0.0388 -0.8917
   35MOL   C25619364   5.319   1.987   3.698  0.5707 -0.4919  0.1454
   35MOL   C25719365   5.335   1.909   3.581 -0.6064  0.0855  0.4937
   35MOL   C25819366   5.432   1.938   3.487  0.4165 -1.1467  0.1436
   35MOL   C25919367   5.457   1.849   3.370 -0.1293  0.1654 -0.3563
   35MOL   N26019368   5.571   1.870   3.289 -0.2292 -0.5321  0.5055
   35MOL   C26119369   5.607   1.795   3.181 -0.0818  0.2104 -0.7832
   35MOL   C26219370   5.655   1.851   3.062  0.0099  0.6905  0.4019
   35MOL   C26319371   5.700   1.778   2.953  0.1920  0.0852 -0.2139
   35MOL   C26419372   5.724   1.638   2.972 -0.5041 -0.2085  0.2566
   35MOL   N26519373   5.790   1.553   2.876 -0.3030 -0.3938 -0.5428
   35MOL   C26619374   5.669   1.573   3.087 -0.0881  0.0997 -0.1598
   35MOL   C26719375   5.611   1.652   3.191  0.3064  0.4352  0.4475
   35MOL   O26819376   5.388   1.752   3.357 -0.2670  0.4149  0.2480
   35MOL   C26919377   5.524   2.042   3.515  0.4556 -1.0529 -0.2874
   35MOL   C27019378   5.507   2.117   3.631 -0.1728 -0.1844  0.4631
   35MOL   O27119379   5.396   2.308   3.833  0.1103 -0.0687 -0.3271
   35MOL   H27219380   5.237   1.970   3.767  0.2178 -2.2392 -0.6767
   35MOL   H27319381   5.268   1.825   3.568  0.5739 -0.8201  0.1058
   35MOL   H27419382   5.610   1.963   3.302  0.0362 -0.8469  2.0246
   35MOL   H27519383   5.646   1.954   3.030 -0.9182  0.6393  0.4845
   35MOL   H27619384   5.736   1.832   2.867 -0.4697 -0.5835 -0.9176
   35MOL   H27719385   5.849   1.479   2.911 -2.6489 -1.9439  0.1627
   35MOL   H27819386   5.673   1.466   3.100  1.0652  0.0724 -0.7245
   35MOL   H27919387   5.563   1.599   3.272  0.0390 -2.2313 -1.3649
   35MOL   H28019388   5.607   2.084   3.460 -1.3539  0.8119 -1.6739
   35MOL   H28119389   5.576   2.199   3.644  0.6524 -0.7628 -0.2615
   35MOL   C28219390   5.792   1.575   2.746 -0.3214  1.0254  0.5021
   35MOL   C28319391   5.883   1.487   2.666 -0.2690  0.0549 -0.5723
   35MOL   C28419392   5.874   1.344   2.672  0.4899  0.5745 -0.3024
   35MOL   C28519393   5.950   1.263   2.586  0.6080  0.1379 -0.3106
   35MOL   C28619394   6.037   1.322   2.490 -0.1093  0.6253 -0.0289
   35MOL   C28719395   6.120   1.240   2.392 -0.4351 -0.2521  0.4555
   35MOL   N28819396   6.238   1.300   2.356 -0.0478 -0.2513  0.0888
   35MOL   C28919397   6.283   1.287   2.225  0.1666  0.3716 -0.5118
   35MOL   C29019398   6.314   1.404   2.151 -0.4440 -0.0516 -0.1764
   35MOL   C29119399   6.390   1.402   2.035  0.3767 -0.2060 -0.3414
   35MOL   C29219400   6.436   1.274   1.989 -0.1263  0.1946 -0.0134
   35MOL   N29319401   6.512   1.268   1.864  0.0345  0.3252  0.2882
   35MOL   C29419402   6.419   1.159   2.070  0.2240  0.3163 -0.1723
   35MOL   C29519403   6.331   1.165   2.179  0.1017  0.6907 -0.2517
   35MOL   O29619404   6.096   1.122   2.367  0.4611  0.7056  0.0595
   35MOL   C29719405   6.041   1.463   2.488 -0.2438 -0.3202  0.8239
   35MOL   C29819406   5.966   1.546   2.576 -0.9634 -0.2525  0.3587
   35MOL   O29919407   5.729   1.666   2.684  0.0686 -0.4837 -0.0342
   35MOL   H30019408   5.799   1.298   2.735 -1.3388  4.1397  0.2279
   35MOL   H30119409   5.928   1.158   2.583 -0.0529  0.2986 -1.2306
   35MOL   H30219410   6.268   1.386   2.399 -0.0361 -0.5134  0.6007
   35MOL   H30319411   6.276   1.501   2.178 -0.2866  0.6253 -2.3423
   35MOL   H30419412   6.388   1.486   1.967 -0.7554 -0.0338 -0.1103
   35MOL   H30519413   6.503   1.356   1.817 -3.3253 -0.5887 -0.9407
   35MOL   H30619414   6.461   1.065   2.036 -2.0737  0.5180 -3.9559
   35MOL   H30719415   6.305   1.076   2.234 -0.3462  1.3586  0.6331
   35MOL   H30819416   6.100   1.510   2.410 -1.5133  0.5507  0.3713
   35MOL   H30919417   5.971   1.651   2.555 -0.2602 -0.1632  0.9656
   35MOL   C31019418   6.610   1.192   1.823 -0.1228 -1.0765 -1.2806
   35MOL   C31119419   6.684   1.253   1.705 -0.2667 -0.0228 -0.0862
   35MOL   C31219420   6.821   1.227   1.682  0.3591  0.1914 -0.0536
   35MOL   C31319421   6.894   1.287   1.584  0.3452 -0.2271 -0.3371
   35MOL   C31419422   6.828   1.368   1.492 -0.4714  0.0749 -0.2180
   35MOL   C31519423   6.903   1.438   1.387 -0.2854  0.8451 -0.3200
   35MOL   N31619424   6.838   1.457   1.268  0.2277  0.5953  0.2687
   35MOL   C31719425   6.882   1.531   1.146  0.1397 -0.2664 -0.5436
   35MOL   C31819426   6.830   1.486   1.029  0.0641  0.2843  1.1437
   35MOL   C31919427   6.857   1.552   0.910 -0.4270 -0.9781 -0.1420
   35MOL   C32019428   6.951   1.660   0.910 -0.1604 -0.3445 -0.4013
   35MOL   N32119429   6.981   1.736   0.797 -0.4149 -0.1834  0.0242
   35MOL   C32219430   7.013   1.703   1.025  0.4249  0.1531  0.0077
   35MOL   C32319431   6.976   1.637   1.149  0.0278  0.3032  0.2642
   35MOL   O32419432   7.007   1.491   1.420 -0.2196  0.3961 -0.4206
   35MOL   C32519433   6.686   1.394   1.510 -0.6482 -0.1156  0.5252
   35MOL   C32619434   6.613   1.330   1.611 -0.1942 -0.2784 -0.4222
   35MOL   O32719435   6.654   1.085   1.875 -0.0726  0.5260  0.3360
   35MOL   H32819436   6.871   1.157   1.747 -0.1437  0.1955  0.3422
   35MOL   H32919437   7.000   1.265   1.573  0.7568  1.9658 -1.0108
   35MOL   H33019438   6.757   1.399   1.250  1.1966  0.1476 -3.1869
   35MOL   H33119439   6.756   1.408   1.024  0.4338 -0.0627  1.0295
   35MOL   H33219440   6.814   1.524   0.815  0.4827  0.0318 -0.8767
   35MOL   H33319441   7.079   1.733   0.772 -0.8067 -3.3767 -1.3926
   35MOL   H33419442   7.084   1.784   1.024  0.1501  0.3924 -0.0172
   35MOL   H33519443   7.014   1.667   1.246  2.3385  1.8499 -1.0809
   35MOL   H33619444   6.620   1.447   1.444  1.3346  1.0111 -0.6241
   35MOL   H33719445   6.509   1.352   1.629 -0.1510  0.8419 -1.4010
   35MOL   C33819446   6.898   1.788   0.700 -0.4865 -0.0420 -0.3528
   35MOL   C33919447   6.959   1.856   0.591  0.3204 -0.0320  1.3297
   35MOL   C34019448   7.077   1.805   0.531  0.3624  0.5795  0.3764
   35MOL   C34119449   7.137   1.881   0.432  0.2493  0.3295  0.1034
   35MOL   C34219450   7.080   1.997   0.382 -0.0136 -0.1992  0.4339
   35MOL   C34319451   7.152   2.081   0.275 -0.4313 -0.6847  0.2696
   35MOL   N34419452   7.071   2.142   0.192  0.3357 -0.5242 -0.3565
   35MOL   C34519453   7.101   2.232   0.088  0.8990  0.3131 -1.0594
   35MOL   C34619454   7.207   2.202   8.139  1.1397 -0.1107 -0.1788
   35MOL   C34719455   7.227   2.292   8.030  0.0559  0.1934 -0.4935
   35MOL   C34819456   7.143   2.407   8.016  0.5633  0.2067 -0.2280
   35MOL   N34919457   7.181   2.496   7.904  0.1173 -0.0713  0.3236
   35MOL   C35019458   7.049   2.438   8.119 -0.7983 -0.2746  0.6364
   35MOL   C35119459   7.010   2.340   0.071  0.5033  0.7007  0.2041
   35MOL   O35219460   7.274   2.078   0.265 -0.1964 -0.3821 -0.0376
   35MOL   C35319461   6.958   2.040   0.438 -1.0923  0.1231 -0.4782
   35MOL   C35419462   6.894   1.976   0.547 -0.0553 -0.3261 -0.4487
   35MOL   O35519463   6.777   1.789   0.720 -0.3266 -0.1124  0.0443
   35MOL   H35619464   7.126   1.717   0.571 -0.4190  0.1581  0.4164
   35MOL   H35719465   7.229   1.851   0.385 -1.0498 -0.5844 -1.9310
   35MOL   H35819466   6.974   2.121   0.207  0.1379  1.3381  1.0506
   35MOL   H35919467   7.265   2.111   0.001 -0.8195 -1.4559 -0.5749
   35MOL   H36019468   7.291   2.270   7.946 -1.3489  0.9356 -1.7807
   35MOL   H36119469   7.277   2.496   7.873 -0.0380 -1.9027 -0.2384
   35MOL   H36219470   7.003   2.535   8.126 -1.3780 -0.5689  0.8844
   35MOL   H36319471   6.950   2.368   0.156  3.3142  3.3557  1.4051
   35MOL   H36419472   6.905   2.130   0.413 -0.2355 -0.0615 -3.0967
   35MOL   H36519473   6.805   2.019   0.589 -0.4409  0.2011 -1.7865
   35MOL   C36619474   7.100   2.587   7.858  0.1047  0.3314 -0.6447
   35MOL   C36719475   7.168   2.715   7.811 -0.3503  0.4494  0.1922
   35MOL   C36819476   7.259   2.778   7.897  0.1499  0.0502 -0.3740
   35MOL   C36919477   7.326   2.894   7.855  0.0758 -0.3334 -0.6398
   35MOL   C37019478   7.319   2.931   7.718 -0.1531  0.5493 -0.2740
   35MOL   C37119479   7.430   3.021   7.662 -0.0076  0.2470  0.1128
   35MOL   N37219480   7.559   2.988   7.684  0.5343 -0.7849  0.4609
   35MOL   C37319481   7.613   2.867   7.744  0.4954 -0.3955  0.0182
   35MOL   C37419482   7.658   2.868   7.877  0.1538 -0.0044  0.0594
   35MOL   C37519483   7.696   2.749   7.945 -0.3149 -0.2041  0.3953
   35MOL   C37619484   7.670   2.625   7.892 -0.1006  0.1238  0.6684
   35MOL   N37719485   7.685   2.504   7.969 -0.4602 -0.3560  0.2690
   35MOL   C37819486   7.617   2.624   7.759 -0.3515 -0.3268  0.7556
   35MOL   C37919487   7.595   2.742   7.685  0.1337 -0.0083  0.4755
   35MOL   O38019488   7.391   3.111   7.584 -0.3031 -0.3902  0.4501
   35MOL   C38119489   7.221   2.868   7.631  0.2126  0.1727 -0.1460
   35MOL   C38219490   7.148   2.768   7.679 -0.0206  0.4682  0.5619
   35MOL   O38319491   6.982   2.568   7.836 -0.0932 -0.4624 -0.2931
   35MOL   H38419492   7.272   2.738   7.997 -0.0711  1.0098  0.0454
   35MOL   H38519493   7.385   2.951   7.925 -0.0181 -0.1120 -0.7420
   35MOL   H38619494   7.620   3.048   7.631 -0.3020 -1.7528 -1.6616
   35MOL   H38719495   7.667   2.962   7.928  0.4601  0.4019 -0.7290
   35MOL   H38819496   7.744   2.758   8.041  1.9090 -2.7505 -0.3876
   35MOL   H38919497   7.755   2.506   8.042  1.8273 -0.3223 -1.8417
   35MOL   H39019498   7.596   2.530   7.711  1.2752  0.3004 -1.2824
   35MOL   H39119499   7.546   2.737   7.589  2.6275 -0.9089 -0.7939
   35MOL   H39219500   7.210   2.901   7.529 -0.3058 -2.7195 -1.0680
   35MOL   H39319501   7.091   2.726   7.597 -0.5080  2.7506 -0.2890
   35MOL   C39419502   7.588   2.419   7.985 -0.4475 -0.8633 -0.1251
   35MOL   C39519503   7.607   2.309   8.084  0.2401  0.0500 -0.0345
   35MOL   C39619504   7.554   2.312   0.070 -0.1015 -0.2884 -0.6184
   35MOL   C39719505   7.551   2.198   0.146 -0.0811 -0.1758 -0.0387
   35MOL   C39819506   7.612   2.081   0.095 -0.5436  0.1554 -1.2783
   35MOL   C39919507   7.605   1.952   0.166  0.6580 -0.4822  0.2778
   35MOL   N40019508   7.505   1.933   0.257  0.1287 -0.0614 -0.5190
   35MOL   C40119509   7.489   1.835   0.356  0.6452 -0.0769 -0.4372
   35MOL   C40219510   7.517   1.697   0.324 -0.5987  0.8499  0.2033
   35MOL   C40319511   7.505   1.595   0.421  0.3552 -0.1845 -0.0775
   35MOL   C40419512   7.458   1.624   0.553 -0.3826 -0.4991  0.0465
   35MOL   N40519513   7.417   1.520   0.634 -0.1634  0.3125 -0.1068
   35MOL   C40619514   7.440   1.760   0.590 -0.0240  0.2232  0.3213
   35MOL   C40719515   7.459   1.864   0.491  0.4579  0.2165  0.3634
   35MOL   O40819516   7.693   1.866   0.147 -0.1549 -0.1429 -0.3582
   35MOL   C40919517   7.688   2.077   8.126  0.7100 -0.9759  0.7567
   35MOL   C41019518   7.676   2.190   8.041 -0.4399 -0.8901 -0.2926
   35MOL   O41119519   7.478   2.432   7.929  0.1682 -0.5145 -0.2123
   35MOL   H41219520   7.506   2.398   0.115  1.7051 -0.4831  1.8009
   35MOL   H41319521   7.508   2.211   0.244 -0.6704  1.5850 -0.5073
   35MOL   H41419522   7.437   2.006   0.245 -0.7083 -0.8620 -0.7039
   35MOL   H41519523   7.547   1.668   0.225 -2.0599  0.6573 -0.1912
   35MOL   H41619524   7.516   1.493   0.385  3.8225 -0.4453  1.5726
   35MOL   H41719525   7.347   1.460   0.594 -0.0784 -0.3417  0.7035
   35MOL   H41819526   7.406   1.779   0.691 -1.5325 -1.3848  0.1387
   35MOL   H41919527   7.432   1.964   0.523  0.3524  0.5171 -0.6475
   35MOL   H42019528   7.728   1.985   8.085  0.0085 -0.8322 -0.2564
   35MOL   H42119529   7.719   2.189   7.942  2.5357  0.0859  0.9423
   35MOL   C42219530   7.455   1.490   0.760 -0.1736 -0.1114  0.5315
   35MOL   C42319531   7.362   1.407   0.840  0.6570  0.0742 -0.5944
   35MOL   C42419532   7.238   1.365   0.785  0.2532  0.3757  0.3219
   35MOL   C42519533   7.138   1.296   0.866 -0.1318 -0.0581 -0.2142
   35MOL   C42619534   7.165   1.275   1.006  1.0177 -0.3273  0.1872
   35MOL   C42719535   7.064   1.203   1.097 -0.2176  0.5236  0.3930
   35MOL   N42819536   6.957   1.149   1.034 -0.5199 -0.5201  0.9667
   35MOL   C42919537   6.834   1.103   1.088 -0.4205  0.3405  0.1418
   35MOL   C43019538   6.738   1.059   0.998 -0.5445 -0.5671 -0.7900
   35MOL   C43119539   6.623   0.985   1.033  0.8118 -0.7298  0.4201
   35MOL   C43219540   6.601   0.957   1.166 -0.0790  0.6873  0.1932
   35MOL   N43319541   6.494   0.867   1.189  0.5118 -0.3435  1.6403
   35MOL   C43419542   6.683   1.022   1.264  0.0351  0.3838 -0.0024
   35MOL   C43519543   6.797   1.096   1.225 -0.3479  0.2038 -0.1657
   35MOL   O43619544   7.076   1.192   1.217 -0.1716 -0.3276  0.6120
   35MOL   C43719545   7.283   1.324   1.057  0.5206 -0.2448 -0.3488
   35MOL   C43819546   7.382   1.385   0.980  0.2305 -0.5885 -0.5236
   35MOL   O43919547   7.563   1.533   0.803  0.1405 -0.2697 -0.1305
   35MOL   H44019548   7.214   1.386   0.682  2.2778 -0.8807 -0.4229
   35MOL   H44119549   7.043   1.267   0.823  0.7200 -2.0341 -0.8048
   35MOL   H44219550   6.970   1.142   0.934  0.3438  1.9781  0.8653
   35MOL   H44319551   6.755   1.085   0.895 -2.2187  2.1189 -0.4677
   35MOL   H44419552   6.550   0.953   0.960 -0.0931  0.6281  0.7051
   35MOL   H44519553   6.471   0.790   1.128  3.2266 -0.8743  1.2144
   35MOL   H44619554   6.661   1.013   1.370 -4.3451 -4.4723 -1.0783
   35MOL   H44719555   6.867   1.116   1.305  2.1985  1.1357 -2.5535
   35MOL   H44819556   7.297   1.310   1.163  0.8316  1.5533 -0.1531
   35MOL   H44919557   7.470   1.422   1.031  0.1227  1.4056 -1.7206
   35MOL   C45019558   6.410   0.874   1.293 -0.4105  0.3793  1.0057
   35MOL   C45119559   6.313   0.758   1.311  0.3658  1.1913  0.8230
   35MOL   C45219560   6.350   0.619   1.290 -0.3002  0.3085  0.2338
   35MOL   C45319561   6.255   0.516   1.297 -0.2697 -0.6573 -0.6538
   35MOL   C45419562   6.120   0.548   1.327  0.8436 -0.0558  0.5348
   35MOL   C45519563   6.020   0.439   1.332 -0.1665 -0.0843  0.2705
   35MOL   N45619564   6.020   0.361   1.220  0.1843 -0.5372 -0.4014
   35MOL   C45719565   5.917   0.277   1.171 -0.5106  0.4271  0.3164
   35MOL   C45819566   5.900   0.280   1.030  0.3383 -0.7047  0.5140
   35MOL   C45919567   5.799   0.198   0.973 -0.9150  0.0246 -0.7408
   35MOL   C46019568   5.726   0.102   1.048  0.4637  0.1696 -0.4949
   35MOL   N46119569   5.622   0.026   0.981 -0.7765  0.2858 -0.4794
   35MOL   C46219570   5.749   0.108   1.188 -0.1315  0.4157  0.8497
   35MOL   C46319571   5.848   0.189   1.250 -0.4791 -0.0790 -0.0970
   35MOL   O46419572   5.942   0.425   1.424 -0.5336  0.3776  0.0085
   35MOL   C46519573   6.088   0.679   1.357  0.6235 -0.5752 -0.1454
   35MOL   C46619574   6.183   0.787   1.349 -0.2422  0.0530 -0.6475
   35MOL   O46719575   6.417   0.959   1.381  0.1957 -0.2713  0.0782
   35MOL   H46819576   6.453   0.601   1.262 -0.6071  0.6367 -1.1157
   35MOL   H46919577   6.282   0.413   1.277  0.5172 -0.5136 -0.3158
   35MOL   H47019578   6.105   0.366   1.165 -0.4640 -0.0971 -1.3768
   35MOL   H47119579   5.960   0.344   0.968 -0.7692  0.4595  0.6242
   35MOL   H47219580   5.773   0.216   0.870  1.3999 -0.3252 -1.4087
   35MOL   H47319581   5.630   0.026   0.880  1.0482  0.9552 -0.3467
   35MOL   H47419582   5.701   0.035   1.252 -1.7448  1.4076  0.7806
   35MOL   H47519583   5.859   0.180   1.357  0.7482  1.0746 -0.1061
   35MOL   H47619584   5.982   0.693   1.369  0.2265 -3.5127 -0.0400
   35MOL   H47719585   6.151   0.890   1.353 -1.4801 -0.3230 -0.6493
   35MOL   C47819586   5.548   8.071   1.025  0.2629  0.2239  0.3389
   35MOL   C47919587   5.457   8.007   0.928 -0.0742 -0.1703  0.2757
   35MOL   C48019588   5.320   8.031   0.942  1.2730 -0.1898 -0.1927
   35MOL   C48119589   5.231   7.964   0.850  0.4769  0.0447  0.1514
   35MOL   C48219590   5.278   7.864   0.760  0.4593  0.2659 -0.1821
   35MOL   C48319591   5.180   7.791   0.665 -0.0337 -0.4139 -0.1633
   35MOL   N48419592   5.241   7.701   0.582 -0.2324 -0.7248  0.5536
   35MOL   C48519593   5.207   7.650   0.456  1.1743 -0.8260  0.1188
   35MOL   C48619594   5.093   7.676   0.384  0.3239 -0.1411 -0.0491
   35MOL   C48719595   5.063   7.606   0.263 -0.1065  0.1147  0.7333
   35MOL   C48819596   5.153   7.518   0.207 -0.2695  0.3209  0.4746
   35MOL   N48919597   5.128   7.452   0.080 -0.2924 -0.2220 -0.1306
   35MOL   C49019598   5.269   7.484   0.283  0.4700 -0.1719 -0.1071
   35MOL   C49119599   5.293   7.553   0.406 -0.7607  0.1328  0.4316
   35MOL   O49219600   5.059   7.812   0.662  0.5317  0.1865 -0.6663
   35MOL   C49319601   5.420   7.847   0.742  0.4167  0.0642 -0.6904
   35MOL   C49419602   5.507   7.915   0.834  0.8662  0.5001  1.0136
   35MOL   O49519603   5.532   8.046   1.142 -0.4165  0.2119 -0.0795
   35MOL   H49619604   5.279   8.096   1.017  0.1436 -0.3324 -0.6641
   35MOL   H49719605   5.125   7.971   0.864  1.0252  0.9737  4.5093
   35MOL   H49819606   5.330   7.666   0.615  0.9541  0.6495 -1.1162
   35MOL   H49919607   5.022   7.746   0.426 -0.3917  0.0024 -1.4536
   35MOL   H50019608   4.969   7.633   0.217  0.0159 -0.3878  0.1804
   35MOL   H50119609   5.163   7.358   0.074 -0.3786 -0.2402 -0.3377
   35MOL   H50219610   5.347   7.425   0.238 -1.4002 -2.2184 -0.7733
   35MOL   H50319611   5.384   7.520   0.454  0.0639  2.2838  0.3703
   35MOL   H50419612   5.470   7.777   0.677  0.8165 -1.2226  0.9705
   35MOL   H50519613   5.611   7.883   0.833  0.8388  0.4217  0.2652
   35MOL   C50619614   5.072   7.514   8.115  0.8204 -0.1217  0.3634
   35MOL   C50719615   5.058   7.422   7.999  0.1125 -0.2179  0.6433
   35MOL   C50819616   5.056   7.284   8.016 -0.6998 -0.0907  0.0281
   35MOL   C50919617   5.064   7.195   7.901 -0.0720 -0.2277 -0.8417
   35MOL   C51019618   5.075   7.245   7.772 -0.5468  0.6046  0.3974
   35MOL   C51119619   5.092   7.152   7.652  0.8262  0.6109 -0.2082
   35MOL   N51219620   5.088   7.210   7.533  0.1710  0.5552  0.1055
   35MOL   C51319621   5.081   7.164   7.400 -0.1206  0.3920 -0.2790
   35MOL   C51419622   5.043   7.255   7.301  0.6703 -0.2928 -0.0739
   35MOL   C51519623   5.007   7.215   7.172  0.1655 -0.2063  0.0446
   35MOL   C51619624   5.029   7.079   7.142  0.1099  0.9319  0.4973
   35MOL   N51719625   4.987   7.039   7.014 -0.7366 -0.6974  0.7968
   35MOL   C51819626   5.074   6.982   7.233  0.4806  0.1802 -0.0596
   35MOL   C51919627   5.101   7.028   7.364 -0.2735 -0.3940  0.1334
   35MOL   O52019628   5.085   7.030   7.670  0.0188 -0.0569 -0.2539
   35MOL   C52119629   5.068   7.386   7.754  0.2481  0.8507  0.2088
   35MOL   C52219630   5.064   7.472   7.867 -0.1420 -0.1538  0.2072
   35MOL   O52319631   5.034   7.633   8.117 -0.7092  0.7386 -0.3669
   35MOL   H52419632   5.072   7.246   8.116  0.0005 -1.0512 -0.4434
   35MOL   H52519633   5.062   7.089   7.919 -0.4894 -0.1800 -0.6006
   35MOL   H52619634   5.077   7.310   7.543 -1.0521  0.5396 -1.0875
   35MOL   H52719635   5.036   7.362   7.312  2.7949 -0.0605 -0.8623
   35MOL   H52819636   4.970   7.273   7.090  1.7971  0.9677  0.1180
   35MOL   H52919637   4.970   7.113   6.948 -1.8290 -2.4195 -0.9425
   35MOL   H53019638   5.086   6.877   7.213 -0.3053  0.3153 -1.3396
   35MOL   H53119639   5.132   6.959   7.441 -0.1665 -0.7161 -0.1946
   35MOL   H53219640   5.074   7.436   7.659 -1.2327  2.9996  1.2144
   35MOL   H53319641   5.069   7.580   7.858  1.6093 -0.3263 -1.3171
   35MOL   C53419642   4.914   6.933   6.981  0.1043 -1.2611  0.4409
   35MOL   C53519643   4.834   6.938   6.853  0.3330  0.3205  0.1581
   35MOL   C53619644   4.693   6.930   6.864 -0.0439  0.2936 -0.3810
   35MOL   C53719645   4.616   6.935   6.752 -0.4104 -0.4073 -0.0879
   35MOL   C53819646   4.677   6.941   6.619  0.1699  0.1269 -0.1964
   35MOL   C53919647   4.586   6.957   6.499  0.1498  0.2174 -0.9088
   35MOL   N54019648   4.638   7.009   6.387 -0.0857 -0.4008  0.0214
   35MOL   C54119649   4.587   7.008   6.252  0.3784 -0.8705 -0.0877
   35MOL   C54219650   4.447   7.024   6.224  0.3200  0.4997  0.0043
   35MOL   C54319651   4.412   7.033   6.089  0.0920  0.7923 -0.9254
   35MOL   C54419652   4.507   7.030   5.985  0.0528 -0.0237 -0.0077
   35MOL   N54519653   4.471   7.037   5.851 -0.2781  0.3554  0.5759
   35MOL   C54619654   4.645   7.010   6.020 -0.6620 -0.2596 -0.7480
   35MOL   C54719655   4.684   7.005   6.152 -0.2506 -0.2169  0.1155
   35MOL   O54819656   4.466   6.928   6.503  0.2618  0.0448 -0.2049
   35MOL   C54919657   4.818   6.946   6.607  0.1490 -0.3386  0.6951
   35MOL   C55019658   4.897   6.940   6.722  1.1366 -0.3368  0.0829
   35MOL   O55119659   4.892   6.840   7.054 -0.0659  0.6856 -0.0356
   35MOL   H55219660   4.653   6.927   6.964  0.6386 -0.3325 -0.1149
   35MOL   H55319661   4.510   6.937   6.769 -0.4829 -1.5955 -0.3428
   35MOL   H55419662   4.739   7.013   6.395 -0.0773  0.2635 -0.3851
   35MOL   H55519663   4.367   7.029   6.296  1.5762 -2.5569  1.7325
   35MOL   H55619664   4.307   7.047   6.066  0.0640  2.7737  0.3129
   35MOL   H55719665   4.380   7.008   5.818  0.2194 -0.5670 -0.0065
   35MOL   H55819666   4.720   6.995   5.944  0.2672 -0.8830  0.2749
   35MOL   H55919667   4.789   6.988   6.171  0.3196  1.7376 -1.1338
   35MOL   H56019668   4.871   6.946   6.513 -1.0903  0.3597 -0.0126
   35MOL   H56119669   5.004   6.935   6.709  0.9724 -1.3148 -0.9903
   35MOL   H56219670   4.550   7.027   5.789  0.0268 -0.1371  1.0367
   36MOL     C119671   7.135   6.073   4.621  0.5807  0.4196 -0.2578
   36MOL     C219672   7.085   6.216   4.599  0.2630 -0.8604 -0.4643
   36MOL     C319673   7.066   6.269   4.472 -0.0495 -1.5941  0.0024
   36MOL     C419674   7.002   6.396   4.461  0.2329  0.4395  0.3603
   36MOL     C519675   6.963   6.467   4.581  0.1860 -0.4753 -0.4257
   36MOL     C619676   6.883   6.598   4.564  0.1547 -0.4657 -0.4169
   36MOL     N719677   6.859   6.658   4.682 -0.2839  0.5083  1.0098
   36MOL     C819678   6.795   6.789   4.708 -0.0128  0.0177  0.6354
   36MOL     C919679   6.798   6.842   4.840  0.1176  0.6101 -0.2621
   36MOL    C1019680   6.746   6.970   4.868 -0.6205 -0.2607  0.4014
   36MOL    C1119681   6.669   7.034   4.773 -0.3007  0.3429 -0.1271
   36MOL    N1219682   6.603   7.154   4.797  0.8199 -0.8647  0.5468
   36MOL    C1319683   6.650   6.975   4.651  1.0238  0.0171  0.0260
   36MOL    C1419684   6.713   6.857   4.616 -0.0577 -0.8358  0.5463
   36MOL    O1519685   6.868   6.656   4.457  0.0563  0.3552 -0.1287
   36MOL    C1619686   6.989   6.414   4.713 -0.6740 -0.5017  0.3174
   36MOL    C1719687   7.042   6.285   4.719 -0.7238  0.1562 -0.5656
   36MOL    O1819688   7.188   6.000   4.537  0.0002 -0.1724 -0.1024
   36MOL    H1919689   7.099   6.223   4.380  0.9035  0.8525 -0.9196
   36MOL    H2019690   6.988   6.436   4.362 -1.9960 -1.1596 -0.0081
   36MOL    H2119691   6.896   6.605   4.760 -1.1039 -0.8452  0.4918
   36MOL    H2219692   6.851   6.788   4.917 -0.7752 -0.1351 -0.1660
   36MOL    H2319693   6.761   7.010   4.967  2.0369 -0.9735  0.3217
   36MOL    H2419694   6.542   7.184   4.722  0.1498 -1.1635  0.9643
   36MOL    H2519695   6.591   7.033   4.581  0.8883  1.6898  1.4780
   36MOL    H2619696   6.705   6.826   4.513 -0.3043  2.8628 -0.6295
   36MOL    H2719697   6.962   6.467   4.802  0.9357  2.8987 -1.1472
   36MOL    H2819698   7.047   6.239   4.816  0.0199 -1.6506 -1.4423
   36MOL    H2919699   7.142   6.054   4.728  1.4524 -0.9155 -0.5358
   36MOL    C3019700   6.608   7.242   4.902 -0.1281  0.4163 -0.2676
   36MOL    C3119701   6.530   7.368   4.880  0.7140  0.6101 -0.1846
   36MOL    C3219702   6.505   7.412   4.747 -0.0466  0.3323 -0.3975
   36MOL    C3319703   6.422   7.525   4.726  0.9078  0.0680 -0.4520
   36MOL    C3419704   6.380   7.603   4.835  0.2307 -1.1085 -0.2176
   36MOL    C3519705   6.295   7.731   4.811  0.0486  0.0144  0.2062
   36MOL    N3619706   6.283   7.814   4.919 -1.2633  0.8265 -0.0502
   36MOL    C3719707   6.224   7.947   4.924  0.9239 -0.3488  0.2155
   36MOL    C3819708   6.187   7.997   5.050 -0.0650  0.8256 -0.2671
   36MOL    C3919709   6.125   8.128   5.061  0.3738 -0.3911  0.1688
   36MOL    C4019710   6.106   0.065   4.952 -0.2067  0.9905 -0.9141
   36MOL    N4119711   6.048   0.197   4.962 -0.3307  0.4797  0.6217
   36MOL    C4219712   6.142   0.018   4.828 -0.0638  0.3472 -1.0128
   36MOL    C4319713   6.199   8.030   4.811 -0.9211 -0.6741 -0.3582
   36MOL    O4419714   6.241   7.751   4.702  0.1430 -0.3106 -0.2458
   36MOL    C4519715   6.427   7.568   4.966 -0.0486 -0.3702 -0.0574
   36MOL    C4619716   6.481   7.447   4.985  0.6785  0.1744 -0.1376
   36MOL    O4719717   6.679   7.224   4.999 -0.4291 -0.1702  0.5949
   36MOL    H4819718   6.536   7.358   4.659 -0.2308 -1.4092  0.5835
   36MOL    H4919719   6.388   7.563   4.630  2.6190 -2.6475 -2.1941
   36MOL    H5019720   6.307   7.787   5.013 -1.3839  1.9416  0.3101
   36MOL    H5119721   6.210   7.939   5.138  2.7199  1.8508 -0.2863
   36MOL    H5219722   6.100   0.013   5.161 -1.7392 -0.7348 -0.2271
   36MOL    H5319723   6.026   0.247   4.876  0.3513 -0.1002  0.1036
   36MOL    H5419724   6.120   0.074   4.738 -1.7834  0.9905 -0.2027
   36MOL    H5519725   6.223   8.004   4.709  0.3353 -0.7744 -0.0447
   36MOL    H5619726   6.420   7.634   5.051 -1.0017  0.3194 -0.6646
   36MOL    H5719727   6.512   7.410   5.082  0.2346  3.1285  1.1588
   36MOL    C5819728   6.053   0.279   5.068 -0.2980  0.7998  0.5636
   36MOL    C5919729   5.982   0.412   5.037 -0.0479  0.4137 -0.2450
   36MOL    C6019730   5.931   0.483   5.146 -0.6396  0.3202 -0.1806
   36MOL    C6119731   5.886   0.614   5.129  0.4003 -0.2302 -0.2668
   36MOL    C6219732   5.881   0.679   4.998 -0.3847  0.1968 -0.3635
   36MOL    C6319733   5.838   0.824   4.977 -0.7264  0.1775 -0.2996
   36MOL    N6419734   5.840   0.903   5.082 -0.4362 -1.1975 -0.1245
   36MOL    C6519735   5.812   1.046   5.094  0.0562  0.2457 -0.5232
   36MOL    C6619736   5.810   1.095   5.226  0.1134  0.4473  0.0974
   36MOL    C6719737   5.796   1.239   5.244 -0.0432  0.4110 -0.4698
   36MOL    C6819738   5.772   1.325   5.134 -0.1158 -0.3495  1.1916
   36MOL    N6919739   5.767   1.468   5.139 -0.5246 -0.4537  0.1484
   36MOL    C7019740   5.785   1.273   5.006  0.3745 -0.2896 -0.4351
   36MOL    C7119741   5.787   1.130   4.986  0.0456  0.5477 -0.2464
   36MOL    O7219742   5.804   0.858   4.865  0.0440 -0.0554 -0.0120
   36MOL    C7319743   5.940   0.602   4.890 -0.9329 -0.4907 -0.4924
   36MOL    C7419744   5.986   0.472   4.905 -0.1774 -0.4440  0.9530
   36MOL    O7519745   6.093   0.256   5.184  0.0304 -0.0109 -0.1535
   36MOL    H7619746   5.929   0.442   5.246 -0.7578  0.0128 -0.3098
   36MOL    H7719747   5.848   0.660   5.219 -0.9194  0.0082 -0.9262
   36MOL    H7819748   5.852   0.855   5.170 -3.5662 -0.2798  0.8610
   36MOL    H7919749   5.834   1.032   5.311  2.6288 -1.6016 -2.0586
   36MOL    H8019750   5.801   1.282   5.343 -0.4960  1.6492 -0.9775
   36MOL    H8119751   5.835   1.509   5.076  0.9837 -0.4791  1.6984
   36MOL    H8219752   5.767   1.335   4.920 -0.5714  0.1904  0.0965
   36MOL    H8319753   5.782   1.086   4.888  0.7862  0.0949 -0.0828
   36MOL    H8419754   5.938   0.650   4.793 -2.2441  0.2812 -0.0968
   36MOL    H8519755   6.026   0.423   4.817 -0.8952  1.2520 -0.3518
   36MOL    C8619756   5.702   1.544   5.227 -0.2826 -0.7339 -0.3800
   36MOL    C8719757   5.609   1.480   5.325 -0.4242  0.2584  0.1703
   36MOL    C8819758   5.504   1.402   5.276  0.0972  0.1024 -0.5235
   36MOL    C8919759   5.411   1.349   5.363  0.1451  0.2316 -0.1125
   36MOL    C9019760   5.419   1.370   5.506  0.1584 -0.0043  0.0570
   36MOL    C9119761   5.323   1.314   5.604  0.0472  0.1757 -0.1987
   36MOL    N9219762   5.290   1.183   5.620  0.6007 -0.1948  0.1571
   36MOL    C9319763   5.340   1.070   5.545  0.1524  0.1444  0.0970
   36MOL    C9419764   5.468   1.060   5.483 -0.0710 -0.0053 -0.7285
   36MOL    C9519765   5.506   0.937   5.423 -0.0488 -0.5065  0.3860
   36MOL    C9619766   5.420   0.827   5.422  0.4387  0.3593  0.5845
   36MOL    N9719767   5.455   0.706   5.363 -0.1431  0.1714  0.4255
   36MOL    C9819768   5.293   0.834   5.476 -0.3513 -0.7107 -0.4061
   36MOL    C9919769   5.250   0.953   5.543 -0.4603 -0.1347  0.4263
   36MOL   O10019770   5.279   1.394   5.686  0.2486 -0.8929  0.0218
   36MOL   C10119771   5.530   1.446   5.551 -0.2744 -0.5344 -0.0780
   36MOL   C10219772   5.623   1.504   5.460 -0.0830 -1.2914 -0.2620
   36MOL   O10319773   5.724   1.664   5.231  0.6154 -0.7139  0.6144
   36MOL   H10419774   5.507   1.376   5.171 -0.1994  3.4390 -1.4005
   36MOL   H10519775   5.334   1.285   5.324  0.6060 -1.2453  1.3146
   36MOL   H10619776   5.234   1.157   5.700 -0.9446  1.1051 -0.4751
   36MOL   H10719777   5.540   1.140   5.482 -0.8193  0.6723 -1.1201
   36MOL   H10819778   5.599   0.926   5.368 -0.3168  2.1400 -0.6744
   36MOL   H10919779   5.414   0.625   5.407 -0.7221 -0.4916 -1.2793
   36MOL   H11019780   5.223   0.752   5.478 -0.6549 -0.4512 -0.5307
   36MOL   H11119781   5.153   0.957   5.589 -1.4872  1.2642 -1.7855
   36MOL   H11219782   5.541   1.475   5.654 -1.2511 -2.6098  0.6496
   36MOL   H11319783   5.695   1.576   5.495 -2.2141 -0.3474  2.3336
   36MOL   C11419784   5.538   0.692   5.261 -0.2188 -0.0728  0.3694
   36MOL   C11519785   5.564   0.544   5.232  0.0879 -0.0443  0.0122
   36MOL   C11619786   5.611   0.461   5.340 -0.5079  0.3142  0.3252
   36MOL   C11719787   5.666   0.335   5.309 -0.1368 -0.2779  0.3386
   36MOL   C11819788   5.661   0.278   5.183 -0.0149 -0.0571  0.7911
   36MOL   C11919789   5.713   0.142   5.159  0.4447 -0.1160  0.0344
   36MOL   N12019790   5.709   0.101   5.034  0.6319  0.2369  0.7343
   36MOL   C12119791   5.753   8.117   4.991 -0.5489  0.2307  0.2927
   36MOL   C12219792   5.727   8.003   5.074  0.4942 -0.3171  0.3050
   36MOL   C12319793   5.779   7.882   5.036  0.2025  0.3977  0.2536
   36MOL   C12419794   5.850   7.858   4.915 -1.0619 -0.3052 -0.2596
   36MOL   N12519795   5.902   7.735   4.882 -0.3455 -0.5667 -0.0721
   36MOL   C12619796   5.864   7.971   4.831 -0.4949  1.3828  0.3547
   36MOL   C12719797   5.821   8.096   4.870 -0.2438  0.3671 -0.3427
   36MOL   O12819798   5.749   0.074   5.256  0.0560 -0.5390 -0.1383
   36MOL   C12919799   5.601   0.350   5.080  0.2598  0.0973 -0.9715
   36MOL   C13019800   5.571   0.489   5.103  0.0151 -0.3506 -0.3691
   36MOL   O13119801   5.578   0.786   5.189  0.5299  0.3737  0.0041
   36MOL   H13219802   5.623   0.513   5.434 -2.8337  0.2792  0.6793
   36MOL   H13319803   5.721   0.282   5.386  0.3372 -0.3091 -0.0229
   36MOL   H13419804   5.690   0.179   4.972 -1.8329  0.2514  1.4548
   36MOL   H13519805   5.681   8.010   5.172  0.0901  0.4586  0.0663
   36MOL   H13619806   5.783   7.800   5.106 -0.2062 -1.2921 -1.6404
   36MOL   H13719807   5.922   7.727   4.783  1.0536  1.6750 -0.0068
   36MOL   H13819808   5.923   7.974   4.740 -1.8773  1.4879 -0.5543
   36MOL   H13919809   5.858   0.033   4.812  0.5052 -1.1396 -2.0622
   36MOL   H14019810   5.582   0.326   4.976 -0.1885 -2.2899 -0.3610
   36MOL   H14119811   5.545   0.562   5.028  1.2974 -0.1042 -0.5764
   36MOL   C14219812   5.964   7.661   4.965 -0.0897  0.1983  0.0152
   36MOL   C14319813   6.005   7.526   4.902 -0.0836 -1.0336  0.1051
   36MOL   C14419814   6.113   7.459   4.961  0.4599  0.1113 -0.0228
   36MOL   C14519815   6.159   7.338   4.905 -0.1344 -0.6545 -0.1194
   36MOL   C14619816   6.093   7.280   4.791 -0.4534  0.6771  0.4082
   36MOL   C14719817   6.148   7.157   4.728 -0.7711  0.9525  1.2766
   36MOL   N14819818   6.212   7.078   4.816 -0.4019  0.0997  0.0432
   36MOL   C14919819   6.276   6.956   4.787  0.7097  0.1436  0.5498
   36MOL   C15019820   6.262   6.878   4.672 -0.7553  0.4782  0.1161
   36MOL   C15119821   6.334   6.756   4.660  0.8060  0.0289  0.7039
   36MOL   C15219822   6.420   6.713   4.766  0.3101  0.2257 -0.1020
   36MOL   N15319823   6.490   6.586   4.772 -0.0040 -0.2829 -0.0468
   36MOL   C15419824   6.417   6.791   4.882  0.2854  1.1671  0.2651
   36MOL   C15519825   6.364   6.916   4.886 -0.1331 -0.4603 -0.2047
   36MOL   O15619826   6.128   7.136   4.605 -0.1251  0.1967  0.1814
   36MOL   C15719827   5.987   7.351   4.734  0.4417 -0.0896 -0.3069
   36MOL   C15819828   5.945   7.471   4.789 -0.0597  0.1703  0.4513
   36MOL   O15919829   5.983   7.684   5.088  0.3615 -0.0801  0.2210
   36MOL   H16019830   6.156   7.494   5.054 -1.9999  0.5863  0.9741
   36MOL   H16119831   6.245   7.291   4.951  1.3884 -0.1101 -2.2965
   36MOL   H16219832   6.191   7.111   4.909 -4.1062  2.6208 -1.5086
   36MOL   H16319833   6.198   6.912   4.592 -1.8797 -0.3623  0.6410
   36MOL   H16419834   6.322   6.692   4.573 -1.8810  1.4350 -0.0011
   36MOL   H16519835   6.509   6.555   4.866 -3.4978  1.4840  1.3483
   36MOL   H16619836   6.475   6.762   4.968  0.1775 -0.1819 -0.1110
   36MOL   H16719837   6.362   6.967   4.981 -1.0361 -1.8305  0.5398
   36MOL   H16819838   5.937   7.315   4.645  0.8241 -0.6628 -0.2922
   36MOL   H16919839   5.867   7.529   4.740 -0.4789 -1.1906 -0.5482
   36MOL   C17019840   6.540   6.516   4.665 -1.4956 -0.2423  0.2788
   36MOL   C17119841   6.609   6.388   4.714  0.4484 -0.3726 -0.1466
   36MOL   C17219842   6.612   6.356   4.849  0.7270 -0.3577  0.4314
   36MOL   C17319843   6.668   6.230   4.887  0.1754 -0.5123 -0.1588
   36MOL   C17419844   6.714   6.138   4.795 -0.2710 -0.8570  0.0811
   36MOL   C17519845   6.759   6.004   4.849 -0.7888  0.1856 -0.8575
   36MOL   N17619846   6.667   5.936   4.914  0.1092 -0.8710 -0.4367
   36MOL   C17719847   6.668   5.814   4.990 -1.1572  0.9127  0.5206
   36MOL   C17819848   6.772   5.724   4.982 -0.1965 -0.4943  0.5257
   36MOL   C17919849   6.770   5.604   5.054 -0.3762  0.9882 -0.5811
   36MOL   C18019850   6.662   5.577   5.144  0.0094  0.0580  0.0307
   36MOL   N18119851   6.668   5.452   5.208 -0.1183  0.0984  0.1357
   36MOL   C18219852   6.555   5.675   5.154 -0.2251 -0.1071 -0.5230
   36MOL   C18319853   6.560   5.791   5.080 -0.3947  0.2228  0.1063
   36MOL   O18419854   6.869   5.958   4.817  0.1510  0.7974 -0.0917
   36MOL   C18519855   6.712   6.177   4.655 -0.1820  0.3712  0.6272
   36MOL   C18619856   6.659   6.301   4.614  0.0887  0.0391  0.1247
   36MOL   O18719857   6.525   6.548   4.550 -0.5315 -0.1894 -0.0277
   36MOL   H18819858   6.578   6.413   4.934  3.0854 -1.1338  1.9398
   36MOL   H18919859   6.648   6.209   4.991 -1.0427  1.6149  0.0817
   36MOL   H19019860   6.573   5.972   4.919 -0.4462 -2.4025  0.5282
   36MOL   H19119861   6.855   5.743   4.916  0.5815 -1.4210  1.2164
   36MOL   H19219862   6.860   5.546   5.037  0.1421  1.8486 -0.8240
   36MOL   H19319863   6.759   5.410   5.198  0.3815  1.4228 -0.9680
   36MOL   H19419864   6.472   5.652   5.218  0.2018  0.7417  0.3536
   36MOL   H19519865   6.489   5.870   5.098  0.6806  1.3055 -0.3199
   36MOL   H19619866   6.724   6.119   4.565  0.8773  3.6723 -1.4696
   36MOL   H19719867   6.644   6.326   4.510  2.3309 -1.5785 -0.6206
   36MOL   C19819868   6.566   5.354   5.225  0.3264  0.6325  0.2235
   36MOL   C19919869   6.421   5.399   5.232  0.7773 -0.0607  0.3296
   36MOL   C20019870   6.344   5.390   5.116  0.5041  0.5315 -0.4388
   36MOL   C20119871   6.212   5.440   5.115  0.4775  1.1795  0.0744
   36MOL   C20219872   6.165   5.498   5.238  0.0170  0.3881 -0.1859
   36MOL   C20319873   6.022   5.562   5.246 -0.6378  0.5367  0.2055
   36MOL   N20419874   5.951   5.577   5.131 -0.0024 -0.0368 -0.3040
   36MOL   C20519875   5.822   5.636   5.116 -0.1907 -0.4463  0.0713
   36MOL   C20619876   5.715   5.612   5.207  0.3145 -0.9936  0.3727
   36MOL   C20719877   5.581   5.648   5.176 -0.0883 -0.0452 -0.6925
   36MOL   C20819878   5.562   5.736   5.068  0.8192 -0.1169  0.4309
   36MOL   N20919879   5.430   5.783   5.042  0.2907  0.3877  0.2524
   36MOL   C21019880   5.670   5.761   4.980  0.1528  1.5463 -0.0185
   36MOL   C21119881   5.793   5.708   5.001 -0.1293  0.0040 -0.1816
   36MOL   O21219882   5.977   5.583   5.356 -0.1736 -0.5382 -0.1292
   36MOL   C21319883   6.246   5.504   5.353  0.6240  0.1379  0.7724
   36MOL   C21419884   6.372   5.453   5.349 -0.0168  0.5117 -0.5309
   36MOL   O21519885   6.592   5.233   5.231  0.6870  0.1261  0.0828
   36MOL   H21619886   6.393   5.347   5.029 -1.5409  0.5406 -1.6214
   36MOL   H21719887   6.147   5.450   5.030  0.1373  0.9549  0.3054
   36MOL   H21819888   6.005   5.566   5.046  0.3730 -2.4304  0.2215
   36MOL   H21919889   5.730   5.560   5.301 -1.9230  1.0845  1.9801
   36MOL   H22019890   5.505   5.629   5.250  0.8090 -1.1170 -0.0269
   36MOL   H22119891   5.353   5.726   5.076  1.5256 -0.4728  1.7003
   36MOL   H22219892   5.649   5.816   4.889  0.4188  0.7704 -0.5622
   36MOL   H22319893   5.866   5.724   4.923  0.4035  0.3180  0.3758
   36MOL   H22419894   6.204   5.546   5.443  0.8976  0.3615  0.7968
   36MOL   H22519895   6.439   5.449   5.434  0.9198 -0.2892 -1.2892
   36MOL   C22619896   5.396   5.898   4.980  0.0536  0.1930  0.8205
   36MOL   C22719897   5.250   5.909   4.936 -0.0475 -0.2580 -0.8300
   36MOL   C22819898   5.215   5.990   4.831  0.0587  0.6112 -0.5831
   36MOL   C22919899   5.081   5.982   4.779 -0.2260  0.1858  0.2394
   36MOL   C23019900   4.984   5.897   4.832  0.3692  0.3818 -0.4790
   36MOL   C23119901   4.848   5.865   4.771 -0.3719 -0.7593 -0.5947
   36MOL   N23219902   4.806   5.954   4.679 -0.5644  0.0726  0.6037
   36MOL   C23319903   4.683   5.956   4.607  0.2171  0.3730 -0.6567
   36MOL   C23419904   4.563   5.940   4.679  0.1189  0.4426 -0.2091
   36MOL   C23519905   4.438   5.949   4.611 -0.7564 -0.5101 -0.4231
   36MOL   C23619906   4.433   5.979   4.477 -0.1621  0.7179  0.3248
   36MOL   N23719907   4.305   5.985   4.419  0.2524  0.1467 -0.4770
   36MOL   C23819908   4.555   5.998   4.404  0.6262 -0.8616 -0.0882
   36MOL   C23919909   4.681   5.987   4.471  0.3735  0.2739  0.3179
   36MOL   O24019910   4.778   5.774   4.809 -0.4115  0.0011  0.4133
   36MOL   C24119911   5.022   5.825   4.950 -0.1266 -0.7145 -0.1383
   36MOL   C24219912   5.152   5.831   5.004  0.0286  0.1674  0.6102
   36MOL   O24319913   5.481   5.983   4.950 -0.0521 -0.3539 -0.2355
   36MOL   H24419914   5.296   6.051   4.795  1.0104 -1.2742 -1.7158
   36MOL   H24519915   5.063   6.035   4.687 -0.5186 -0.3104  0.0091
   36MOL   H24619916   4.861   6.039   4.678 -1.8969  0.9688 -1.4828
   36MOL   H24719917   4.574   5.935   4.786 -0.2917 -0.3574 -0.2044
   36MOL   H24819918   4.344   5.948   4.666 -0.5538  1.6994  0.0073
   36MOL   H24919919   4.235   5.915   4.439 -0.5720  1.2697  0.6976
   36MOL   H25019920   4.554   6.010   4.297  0.2880 -1.2920 -0.1387
   36MOL   H25119921   4.774   5.995   4.417 -0.1621 -1.0135 -0.8628
   36MOL   H25219922   4.963   5.747   4.996  0.0775 -0.4415  0.5936
   36MOL   H25319923   5.185   5.776   5.091 -1.2093 -0.0874  0.9285
   36MOL   C25419924   4.254   6.073   4.333 -0.0844  0.0126  0.5478
   36MOL   C25519925   4.119   6.040   4.285 -0.3236  0.9562 -0.0151
   36MOL   C25619926   4.011   6.033   4.381  0.9858 -0.7789  0.0542
   36MOL   C25719927   3.880   6.019   4.337  0.5200  0.0111  0.4577
   36MOL   C25819928   3.852   6.019   4.199 -0.0129  0.8762 -0.8951
   36MOL   C25919929   3.711   5.992   4.163 -0.6305  0.5001 -0.6184
   36MOL   N26019930   3.673   6.057   4.049 -0.2240  0.9462 -0.5302
   36MOL   C26119931   3.547   6.053   3.977 -0.3346 -0.3952 -0.1987
   36MOL   C26219932   3.425   5.994   4.026  0.4310  0.0704 -0.5197
   36MOL   C26319933   3.314   5.975   3.945  0.3336  0.7891  0.3959
   36MOL   C26419934   3.315   6.032   3.816  0.9345  0.5048  0.2438
   36MOL   N26519935   3.207   6.023   3.723 -0.5746 -0.0854  0.1535
   36MOL   C26619936   3.423   6.102   3.769  0.2880  0.3727  0.0053
   36MOL   C26719937   3.539   6.111   3.850  0.1763 -0.2198  0.0218
   36MOL   O26819938   3.633   5.924   4.229  0.3836  0.0831 -0.2014
   36MOL   C26919939   3.951   6.016   4.103 -0.6557  0.0774  0.4108
   36MOL   C27019940   4.087   6.036   4.148 -0.1597  0.1698  0.8242
   36MOL   O27119941   4.320   6.166   4.284 -0.5348  0.0172 -0.3192
   36MOL   H27219942   4.019   6.050   4.487 -0.6632  3.9298 -0.4597
   36MOL   H27319943   3.800   6.012   4.410 -1.0747  1.0150 -1.1294
   36MOL   H27419944   3.747   6.121   4.024  1.4974 -0.1908  1.4644
   36MOL   H27519945   3.425   5.946   4.123  0.0732 -0.7504 -0.9276
   36MOL   H27619946   3.232   5.919   3.987 -1.2993  0.7572 -2.6438
   36MOL   H27719947   3.223   6.076   3.639 -1.3214 -1.3494 -0.8012
   36MOL   H27819948   3.416   6.144   3.670  1.3552  0.2126 -0.1444
   36MOL   H27919949   3.621   6.174   3.818 -0.8713  0.3234 -1.6644
   36MOL   H28019950   3.930   6.002   3.998 -0.1913  2.2750  0.0169
   36MOL   H28119951   4.169   6.040   4.078 -1.5691  1.7593 -0.8146
   36MOL   C28219952   3.095   5.952   3.737  0.4277  0.0912  0.7943
   36MOL   C28319953   3.022   5.927   3.608 -0.5785 -0.9678  0.1525
   36MOL   C28419954   2.879   5.916   3.603  0.0084 -0.1491 -0.0618
   36MOL   C28519955   2.814   5.905   3.477  0.1684 -0.0517 -0.3188
   36MOL   C28619956   2.883   5.877   3.357  1.0731  0.3866 -0.7789
   36MOL   C28719957   2.802   5.844   3.238  0.6896  0.6602  0.1659
   36MOL   N28819958   2.862   5.791   3.128  0.2186  0.0854  0.6938
   36MOL   C28919959   2.968   5.706   3.107 -0.6536  0.2004 -0.4223
   36MOL   C29019960   3.053   5.726   2.997 -0.1487  0.3205 -0.2318
   36MOL   C29119961   3.176   5.649   2.983  0.6137 -0.3058 -0.6911
   36MOL   C29219962   3.202   5.551   3.083 -0.4173  0.2050  0.5160
   36MOL   N29319963   3.324   5.479   3.090 -0.0459 -0.3533  0.9019
   36MOL   C29419964   3.106   5.518   3.179  0.0761  0.7585  0.2680
   36MOL   C29519965   2.996   5.605   3.201 -0.4602  0.8091 -0.1767
   36MOL   O29619966   2.682   5.868   3.234  0.2812 -0.0235  0.0886
   36MOL   C29719967   3.025   5.883   3.362  0.0093 -0.7171  1.3887
   36MOL   C29819968   3.094   5.910   3.485  0.1315  0.1676 -0.1314
   36MOL   O29919969   3.044   5.915   3.841 -0.0456  0.7247 -0.1147
   36MOL   H30019970   2.814   5.926   3.689  0.1241 -2.8341  0.3687
   36MOL   H30119971   2.707   5.890   3.477 -0.1708  2.2179 -0.8570
   36MOL   H30219972   2.809   5.806   3.043  0.1822 -0.7835  0.5548
   36MOL   H30319973   3.025   5.800   2.924 -2.0922 -1.9166 -1.8179
   36MOL   H30419974   3.252   5.665   2.908  1.2345  1.6603  0.3187
   36MOL   H30519975   3.337   5.382   3.117 -0.7842 -0.6854  0.1098
   36MOL   H30619976   3.120   5.440   3.252 -3.4160 -0.4962 -0.2865
   36MOL   H30719977   2.931   5.582   3.284 -0.9769 -0.0688 -0.8052
   36MOL   H30819978   3.071   5.871   3.265 -1.8723 -1.3241  0.5436
   36MOL   H30919979   3.201   5.909   3.490  0.0815 -0.0828  1.2813
   36MOL   C31019980   3.443   5.538   3.063 -0.4983  0.9142  0.1557
   36MOL   C31119981   3.556   5.442   3.081 -0.1932  0.4851  0.2129
   36MOL   C31219982   3.687   5.495   3.085  0.7820 -0.2036 -0.2201
   36MOL   C31319983   3.805   5.416   3.079  0.1316 -0.2460 -0.3186
   36MOL   C31419984   3.789   5.279   3.042 -0.0098 -0.3147  0.2547
   36MOL   C31519985   3.905   5.188   3.027 -0.3028 -0.8295  0.4894
   36MOL   N31619986   4.028   5.223   3.071  0.5586 -0.1285 -0.3879
   36MOL   C31719987   4.135   5.136   3.091 -0.5752 -0.2980  0.0850
   36MOL   C31819988   4.114   5.010   3.149 -0.0288  0.1283  0.3132
   36MOL   C31919989   4.226   4.928   3.176 -0.0335  0.1807  0.2055
   36MOL   C32019990   4.358   4.979   3.167 -0.5064  0.1130 -0.8247
   36MOL   N32119991   4.463   4.893   3.206 -0.4461 -0.4674 -0.1330
   36MOL   C32219992   4.371   5.113   3.116  0.0562 -1.0290  0.4528
   36MOL   C32319993   4.262   5.187   3.067  0.3145 -0.4993 -0.0858
   36MOL   O32419994   3.891   5.088   2.954 -0.3544 -0.4268 -0.2042
   36MOL   C32519995   3.658   5.228   3.034  0.3336  0.9434  0.4289
   36MOL   C32619996   3.542   5.303   3.046  0.2740 -0.8030  0.0080
   36MOL   O32719997   3.462   5.659   3.051 -0.3797 -0.2870  0.6325
   36MOL   H32819998   3.699   5.602   3.090 -1.7696  0.3136 -3.3522
   36MOL   H32919999   3.904   5.459   3.069 -0.3861  0.5803 -2.2372
   36MOL   H33020000   4.049   5.314   3.110 -1.2435 -0.6158  1.8123
   36MOL   H33120001   4.017   4.970   3.177 -0.3171  0.1641 -0.5848
   36MOL   H33220002   4.209   4.831   3.219  1.0564  0.0400  0.3287
   36MOL   H33320003   4.435   4.796   3.207 -0.5703 -0.4305  0.0502
   36MOL   H33420004   4.471   5.152   3.119  0.1110 -1.1864  0.7884
   36MOL   H33520005   4.280   5.288   3.032  0.5583 -0.2007  0.8832
   36MOL   H33620006   3.648   5.122   3.019 -1.8298  1.0418  1.0712
   36MOL   H33720007   3.450   5.253   3.018 -0.3685 -1.8897  3.7580
   36MOL   C33820008   4.571   4.924   3.280 -0.4248  0.0155  0.4620
   36MOL   C33920009   4.657   4.812   3.334  0.1003  0.2707 -0.0505
   36MOL   C34020010   4.630   4.674   3.315  0.0293 -0.2991  0.5464
   36MOL   C34120011   4.710   4.579   3.378  0.2771  0.3324  0.5881
   36MOL   C34220012   4.813   4.618   3.464 -0.0703  0.6630  0.0984
   36MOL   C34320013   4.888   4.511   3.534 -0.3790 -0.1187 -0.4685
   36MOL   N34420014   4.991   4.547   3.616  0.1026 -0.7365  0.5738
   36MOL   C34520015   5.068   4.462   3.692  0.4636  0.1178  0.0253
   36MOL   C34620016   5.114   4.338   3.641 -0.3798 -0.4003 -0.3512
   36MOL   C34720017   5.194   4.253   3.720  1.0367 -0.4481 -0.4510
   36MOL   C34820018   5.229   4.300   3.848 -0.1476  0.2124 -1.0400
   36MOL   N34920019   5.303   4.200   3.916  1.0053  0.8446 -0.3201
   36MOL   C35020020   5.187   4.424   3.907  0.5467 -0.3717  0.5903
   36MOL   C35120021   5.105   4.502   3.825  0.1116 -0.4840  0.0993
   36MOL   O35220022   4.859   4.392   3.511 -0.2443  0.4021 -0.3162
   36MOL   C35320023   4.847   4.753   3.484  0.5687  1.0499  0.2910
   36MOL   C35420024   4.771   4.854   3.413 -0.0021  0.0233 -0.1586
   36MOL   O35520025   4.591   5.039   3.316  0.4304  0.2137 -0.2085
   36MOL   H35620026   4.557   4.626   3.251 -1.2356 -0.7596  2.3027
   36MOL   H35720027   4.667   4.480   3.371 -2.1856  1.2212  2.2669
   36MOL   H35820028   4.999   4.645   3.638  2.8845 -0.5767 -0.8838
   36MOL   H35920029   5.079   4.303   3.545 -0.5059  0.3787 -0.5902
   36MOL   H36020030   5.237   4.162   3.682  0.2852 -0.4958 -1.2041
   36MOL   H36120031   5.276   4.106   3.894 -1.2634  1.1906  0.7965
   36MOL   H36220032   5.211   4.449   4.010 -0.9827 -3.0602  1.6607
   36MOL   H36320033   5.094   4.601   3.865  0.0750 -0.5741  0.3112
   36MOL   H36420034   4.927   4.793   3.544  0.6374 -0.0786  0.9664
   36MOL   H36520035   4.797   4.956   3.436 -2.0598  0.3572  0.7052
   36MOL   C36620036   5.405   4.203   4.006  0.7013  0.9918  0.9442
   36MOL   C36720037   5.464   4.069   4.019  0.5176  0.5095 -0.1715
   36MOL   C36820038   5.460   4.003   4.143 -0.2371  0.1657  0.2158
   36MOL   C36920039   5.521   3.875   4.153 -0.5670 -0.5828  0.2485
   36MOL   C37020040   5.587   3.815   4.044 -0.3269 -0.0138 -0.0453
   36MOL   C37120041   5.656   3.681   4.071  0.3821  0.6362 -0.6860
   36MOL   N37220042   5.764   3.649   3.992  0.5500  0.8042  0.8744
   36MOL   C37320043   5.816   3.524   3.954  0.9036  0.0317 -0.0122
   36MOL   C37420044   5.933   3.529   3.877 -0.5602  0.4295  0.6128
   36MOL   C37520045   5.994   3.416   3.830  0.5656  0.4746 -0.1449
   36MOL   C37620046   5.944   3.290   3.862  0.0227 -0.2954 -0.2185
   36MOL   N37720047   6.010   3.176   3.799 -0.0568 -0.5449  0.4735
   36MOL   C37820048   5.827   3.282   3.935  0.6135  0.0769  0.5159
   36MOL   C37920049   5.764   3.403   3.977 -0.5932  0.5266  0.5197
   36MOL   O38020050   5.604   3.605   4.148 -0.1821 -0.0690  0.4753
   36MOL   C38120051   5.589   3.881   3.920  0.0131  0.4215 -0.7733
   36MOL   C38220052   5.520   4.004   3.903  0.3880 -0.4572  0.2563
   36MOL   O38320053   5.460   4.296   4.061 -0.3814  0.8106 -0.1464
   36MOL   H38420054   5.413   4.054   4.227 -0.5170  0.4017 -0.0813
   36MOL   H38520055   5.528   3.819   4.245  0.0142 -1.3763 -0.2799
   36MOL   H38620056   5.803   3.735   3.954  1.1498  0.1474 -0.0218
   36MOL   H38720057   5.981   3.618   3.840 -3.0665  0.3336 -3.1227
   36MOL   H38820058   6.089   3.421   3.778  0.8799 -1.0512  0.2491
   36MOL   H38920059   6.075   3.197   3.726 -0.2923 -0.9827  0.1391
   36MOL   H39020060   5.781   3.188   3.961 -3.2629  1.3954 -1.1614
   36MOL   H39120061   5.670   3.388   4.028 -0.6122  1.8778  0.9196
   36MOL   H39220062   5.637   3.835   3.835 -1.9950 -1.9537 -0.6922
   36MOL   H39320063   5.528   4.064   3.814 -2.2609  0.6575  0.7189
   36MOL   C39420064   5.986   3.042   3.816  0.8096  0.2762 -0.4621
   36MOL   C39520065   6.031   2.960   3.699  0.0154 -0.0881  0.0639
   36MOL   C39620066   5.974   2.834   3.682 -0.1843  0.6553 -0.1972
   36MOL   C39720067   5.999   2.755   3.567 -0.1822  0.2327 -0.7853
   36MOL   C39820068   6.090   2.805   3.470  0.5982  0.3481 -0.7098
   36MOL   C39920069   6.125   2.723   3.347 -0.4623  0.3726 -0.4797
   36MOL   N40020070   6.181   2.793   3.244 -0.4440 -0.4095  0.8633
   36MOL   C40120071   6.274   2.759   3.146  0.5139 -0.1112 -0.4916
   36MOL   C40220072   6.291   2.625   3.099  0.7373  0.3828  0.1575
   36MOL   C40320073   6.401   2.595   3.011 -0.4240 -0.8465  0.4652
   36MOL   C40420074   6.486   2.695   2.976 -0.6999  0.6618  0.5400
   36MOL   N40520075   6.598   2.660   2.904 -0.3555 -0.4127  0.3848
   36MOL   C40620076   6.458   2.826   3.007  0.0838  0.6130 -0.5952
   36MOL   C40720077   6.353   2.862   3.092  0.5448  0.0556  0.4928
   36MOL   O40820078   6.080   2.610   3.342 -0.0138  0.6020  0.4760
   36MOL   C40920079   6.155   2.925   3.495  0.5276 -0.0823  0.1164
   36MOL   C41020080   6.136   3.000   3.610 -0.1645  0.1567  0.0659
   36MOL   O41120081   5.941   2.987   3.916  0.2296  0.0273  0.5162
   36MOL   H41220082   5.902   2.795   3.753  1.2096 -1.7000 -0.0298
   36MOL   H41320083   5.956   2.656   3.557 -0.5034  0.4445 -1.5856
   36MOL   H41420084   6.178   2.894   3.257  1.0382 -0.2784  0.2901
   36MOL   H41520085   6.230   2.537   3.117  1.9671 -0.4817  0.1707
   36MOL   H41620086   6.420   2.489   2.997  1.6936 -0.8208  2.7832
   36MOL   H41720087   6.581   2.605   2.821  0.6131  0.0202 -0.1116
   36MOL   H41820088   6.516   2.908   2.966  0.6446 -0.0325 -1.1129
   36MOL   H41920089   6.348   2.966   3.123 -0.3806 -0.2588  1.4280
   36MOL   H42020090   6.233   2.954   3.426 -1.5721  1.2637 -1.7733
   36MOL   H42120091   6.178   3.097   3.628 -1.5050  0.5819  1.0354
   36MOL   C42220092   6.724   2.708   2.930  0.2160  0.2634  0.3174
   36MOL   C42320093   6.833   2.675   2.828  0.8031 -0.0434 -0.7078
   36MOL   C42420094   6.938   2.767   2.804  0.0815 -0.1344  0.5047
   36MOL   C42520095   7.036   2.731   2.706  0.1938 -0.4887  0.2233
   36MOL   C42620096   7.040   2.613   2.633  0.2990  0.8094  0.2400
   36MOL   C42720097   7.145   2.588   2.525  0.7417 -1.0911 -0.3193
   36MOL   N42820098   7.212   2.692   2.485 -0.2015  0.3131 -0.7161
   36MOL   C42920099   7.340   2.702   2.417  0.4158 -0.9962 -0.5580
   36MOL   C43020100   7.427   2.800   2.466 -0.0112  1.0727  0.0273
   36MOL   C43120101   7.541   2.840   2.387  0.5270  0.5686  0.1706
   36MOL   C43220102   7.573   2.764   2.274  0.7475  0.6185  0.0540
   36MOL   N43320103   7.689   2.799   2.210  0.2906  0.2866 -0.2411
   36MOL   C43420104   7.478   2.666   2.226 -0.0263 -0.2605 -0.5521
   36MOL   C43520105   7.363   2.640   2.291  0.0482  0.6844 -0.3123
   36MOL   O43620106   7.171   2.473   2.481 -0.1354 -0.4428  0.3133
   36MOL   C43720107   6.937   2.520   2.662  0.1208  0.2520 -0.0530
   36MOL   C43820108   6.833   2.556   2.754 -0.2665 -0.0028 -0.1900
   36MOL   O43920109   6.759   2.778   3.028  0.4538 -0.5554 -0.2036
   36MOL   H44020110   6.955   2.860   2.857  0.3174 -0.0435  0.2696
   36MOL   H44120111   7.111   2.805   2.683 -0.9774  0.0220 -2.0619
   36MOL   H44220112   7.169   2.783   2.497  0.2162  0.1200  2.4168
   36MOL   H44320113   7.397   2.853   2.555  1.7301  1.5604  0.3625
   36MOL   H44420114   7.622   2.900   2.427  4.1537 -3.0326 -1.4489
   36MOL   H44520115   7.718   2.895   2.220  0.7617 -0.1081  2.7970
   36MOL   H44620116   7.495   2.609   2.136 -2.0026 -1.1681 -0.3751
   36MOL   H44720117   7.290   2.569   2.256 -1.2649  0.6810  2.3031
   36MOL   H44820118   6.924   2.429   2.606 -2.1254  0.1376  0.5840
   36MOL   H44920119   6.759   2.482   2.781 -1.0594  0.2575 -1.5980
   36MOL   C45020120   7.748   2.714   2.125  0.9198 -0.3330 -0.5754
   36MOL   C45120121   7.850   2.776   2.031 -0.3154 -0.6655  0.2673
   36MOL   C45220122   7.900   2.907   2.043 -0.5417  0.9408  0.4978
   36MOL   C45320123   8.005   2.950   1.954 -0.0315 -0.8522 -0.2558
   36MOL   C45420124   8.058   2.865   1.860 -0.4900 -0.4478  0.5302
   36MOL   C45520125   0.032   2.902   1.784 -0.4814  0.8586  0.2255
   36MOL   N45620126   0.140   2.931   1.858 -0.3523  0.0435 -0.3838
   36MOL   C45720127   0.178   2.908   1.994 -1.0472  0.0604  0.2062
   36MOL   C45820128   0.134   2.792   2.063 -0.7038  1.0761 -0.0097
   36MOL   C45920129   0.174   2.771   2.200  0.2656  0.7783  0.3425
   36MOL   C46020130   0.254   2.868   2.272 -0.3873  0.9207  0.1726
   36MOL   N46120131   0.284   2.836   2.408 -0.0366  0.4749 -0.0213
   36MOL   C46220132   0.300   2.976   2.200  0.1963 -0.1141  0.2023
   36MOL   C46320133   0.265   2.997   2.063 -0.2377 -0.0726  0.2984
   36MOL   O46420134   0.044   2.891   1.663 -0.3848 -0.6427  0.4301
   36MOL   C46520135   8.004   2.737   1.842 -0.3562  0.0455 -0.6592
   36MOL   C46620136   7.903   2.696   1.926 -0.3657 -0.2804 -0.1567
   36MOL   O46720137   7.731   2.590   2.129  0.0645  0.1664  0.1208
   36MOL   H46820138   7.881   2.969   2.129  1.8641  2.2226  0.1432
   36MOL   H46920139   8.056   3.042   1.976  0.1316 -0.6132 -1.6013
   36MOL   H47020140   0.211   2.967   1.795 -0.4183 -1.6696 -1.4374
   36MOL   H47120141   0.068   2.716   2.025 -0.5804 -0.1180  2.1278
   36MOL   H47220142   0.140   2.679   2.246 -1.0167  1.3657  0.5937
   36MOL   H47320143   0.258   2.742   2.434 -2.1357  0.6943 -1.2360
   36MOL   H47420144   0.359   3.055   2.244  1.4799 -0.7335 -0.3722
   36MOL   H47520145   0.281   3.095   2.019 -0.5413 -0.1672 -0.0353
   36MOL   H47620146   8.047   2.674   1.766 -0.8117 -1.3593  0.2444
   36MOL   H47720147   7.858   2.601   1.898 -0.1132 -0.7246  0.9350
   36MOL   C47820148   0.322   2.921   2.508 -0.5274  0.9740  0.1558
   36MOL   C47920149   0.331   2.854   2.642 -0.4653 -0.3911  0.3472
   36MOL   C48020150   0.440   2.885   2.721  0.8789 -0.4429  0.1757
   36MOL   C48120151   0.466   2.819   2.842 -0.1015  0.0915  0.5248
   36MOL   C48220152   0.373   2.720   2.882  0.6864  0.1134  0.6425
   36MOL   C48320153   0.385   2.646   3.010 -0.3157 -0.1926 -0.2178
   36MOL   N48420154   0.485   2.682   3.092 -0.0529 -0.2923  0.6801
   36MOL   C48520155   0.517   2.615   3.211 -0.1813  0.4154 -0.0480
   36MOL   C48620156   0.466   2.489   3.252 -0.1818  0.0028 -0.1539
   36MOL   C48720157   0.495   2.449   3.383  0.1276 -0.7998  0.1915
   36MOL   C48820158   0.543   2.533   3.485  0.2772  0.4626  0.0827
   36MOL   N48920159   0.539   2.478   3.613 -0.2598  0.4025  0.0376
   36MOL   C49020160   0.594   2.657   3.437  0.4284  0.0318  0.3539
   36MOL   C49120161   0.587   2.693   3.304  0.0915  0.3674  0.2200
   36MOL   O49220162   0.302   2.556   3.041 -0.3085  0.1488  0.3093
   36MOL   C49320163   0.258   2.691   2.802  0.0171 -0.0110  0.6212
   36MOL   C49420164   0.236   2.760   2.683  0.4599 -0.0791  0.2233
   36MOL   O49520165   0.350   3.038   2.488 -0.3316  0.2344  0.0333
   36MOL   H49620166   0.504   2.967   2.691  0.7522 -0.7048 -0.8057
   36MOL   H49720167   0.548   2.840   2.908  0.7758  2.2765 -1.1721
   36MOL   H49820168   0.540   2.763   3.067  1.4722 -0.8512  2.1442
   36MOL   H49920169   0.413   2.417   3.191 -2.3886  0.9842  0.5666
   36MOL   H50020170   0.464   2.350   3.413  0.9834 -0.1769  3.2983
   36MOL   H50120171   0.564   2.380   3.619 -0.0310  0.3086 -2.0020
   36MOL   H50220172   0.630   2.725   3.513  1.7220 -0.8198  0.5116
   36MOL   H50320173   0.621   2.794   3.282 -0.5353  0.1524 -1.8981
   36MOL   H50420174   0.184   2.622   2.841 -0.4687  0.5375  0.6742
   36MOL   H50520175   0.149   2.736   2.623  1.2820 -0.4088 -0.8679
   36MOL   C50620176   0.520   2.547   3.726  0.0447  0.4269 -0.2467
   36MOL   C50720177   0.542   2.471   3.852 -0.3890  0.6620  0.4091
   36MOL   C50820178   0.615   2.530   3.959 -0.1282  0.3350 -0.3058
   36MOL   C50920179   0.632   2.456   4.076 -1.0547 -0.3148  0.5259
   36MOL   C51020180   0.577   2.330   4.089  0.2866  0.0285  0.7701
   36MOL   C51120181   0.603   2.254   4.217  0.6395 -0.5941  0.1818
   36MOL   N51220182   0.733   2.215   4.240  0.5086  0.3897 -0.0403
   36MOL   C51320183   0.846   2.235   4.155 -0.4861  0.3275  0.5511
   36MOL   C51420184   0.844   2.221   4.013  0.9399  0.1161  0.0924
   36MOL   C51520185   0.958   2.205   3.936 -0.1995 -0.8295  0.0696
   36MOL   C51620186   1.083   2.245   3.991  0.3346  0.9587 -0.2083
   36MOL   N51720187   1.214   2.242   3.925  0.4021  0.4575  0.0606
   36MOL   C51820188   1.089   2.290   4.125 -0.3669 -0.0258 -0.3563
   36MOL   C51920189   0.973   2.262   4.210  0.1305  0.3821  0.1573
   36MOL   O52020190   0.511   2.228   4.290 -0.2504  0.5547  0.2150
   36MOL   C52120191   0.487   2.271   3.991 -0.2655 -0.1538 -0.0838
   36MOL   C52220192   0.476   2.346   3.871  0.1401 -0.6581 -0.2233
   36MOL   O52320193   0.500   2.668   3.745  0.2992  0.1533  0.0663
   36MOL   H52420194   0.663   2.626   3.960 -0.7616  0.6505  0.4948
   36MOL   H52520195   0.692   2.502   4.152  0.8007  0.6530 -1.4601
   36MOL   H52620196   0.742   2.145   4.312  0.0868 -0.5254 -0.8716
   36MOL   H52720197   0.748   2.214   3.964  0.5820 -2.2747  1.0551
   36MOL   H52820198   0.959   2.186   3.829  3.6354 -3.5323  0.4647
   36MOL   H52920199   1.289   2.289   3.974  0.8774 -1.4564  1.2233
   36MOL   H53020200   1.175   2.331   4.176 -0.3563  1.1869 -1.3397
   36MOL   H53120201   0.980   2.265   4.318  1.8232  0.4638  0.0580
   36MOL   H53220202   0.439   2.178   4.016 -0.0491  0.1895  1.6942
   36MOL   H53320203   0.423   2.299   3.789 -0.5022 -1.4719  0.6437
   36MOL   C53420204   1.256   2.188   3.809  0.0208 -0.2638 -0.7675
   36MOL   C53520205   1.392   2.225   3.762 -0.2735  0.8897  0.1591
   36MOL   C53620206   1.503   2.227   3.856  0.5319  0.7620  0.0657
   36MOL   C53720207   1.630   2.254   3.814 -0.2615 -0.1580 -0.0020
   36MOL   C53820208   1.654   2.278   3.679 -0.2486  0.2470 -0.1757
   36MOL   C53920209   1.787   2.324   3.619  0.0147 -0.7068 -0.5070
   36MOL   N54020210   1.805   2.282   3.492 -0.4372  0.3396 -0.1294
   36MOL   C54120211   1.892   2.331   3.383  0.0882 -0.2329  0.2121
   36MOL   C54220212   2.022   2.379   3.414  0.0358  0.0716  0.0504
   36MOL   C54320213   2.105   2.437   3.312  0.5133  0.3916 -0.7133
   36MOL   C54420214   2.056   2.446   3.178 -0.7161  0.0895 -1.0196
   36MOL   N54520215   2.145   2.485   3.080 -0.2482  0.6816 -0.5131
   36MOL   C54620216   1.926   2.400   3.148 -0.5277 -0.5759 -0.0476
   36MOL   C54720217   1.842   2.350   3.250 -0.1503  0.0470  0.5060
   36MOL   O54820218   1.875   2.384   3.686 -0.5460  0.0031 -0.0770
   36MOL   C54920219   1.542   2.274   3.586  0.3450  0.1001 -0.5360
   36MOL   C55020220   1.410   2.262   3.629 -0.1902 -0.5141 -0.1147
   36MOL   O55120221   1.179   2.109   3.758 -0.1046 -0.4267  0.2591
   36MOL   H55220222   1.483   2.197   3.958 -0.0712  0.1868 -0.2163
   36MOL   H55320223   1.701   2.256   3.895  0.4849 -1.6182 -0.5934
   36MOL   H55420224   1.728   2.221   3.471 -0.1888  0.0688 -0.2524
   36MOL   H55520225   2.055   2.375   3.517 -1.5988  0.6696  0.6138
   36MOL   H55620226   2.202   2.469   3.346  0.2765 -0.2737  0.6330
   36MOL   H55720227   2.111   2.494   2.985 -0.6182  0.5890 -0.3913
   36MOL   H55820228   1.894   2.402   3.044  1.7823  2.4983 -0.7721
   36MOL   H55920229   1.741   2.325   3.221  0.9199 -1.6488 -1.9123
   36MOL   H56020230   1.557   2.295   3.481 -0.0010 -0.6126 -0.7275
   36MOL   H56120231   1.327   2.270   3.560 -0.6188 -1.7275  0.2394
   36MOL   H56220232   2.233   2.531   3.100  0.7302 -0.5548 -1.9219
   37MOL     C120233   2.532   5.686   7.675  0.2803  0.6584 -0.5991
   37MOL     C220234   2.556   5.817   7.736  0.2768  0.1470 -0.0581
   37MOL     C320235   2.684   5.845   7.788  0.2939  0.6781 -0.0687
   37MOL     C420236   2.695   5.956   7.874 -0.8202  0.4860  1.3842
   37MOL     C520237   2.587   6.039   7.906  0.3446  0.0646 -0.4581
   37MOL     C620238   2.599   6.147   8.001 -0.3348  0.1741 -0.3418
   37MOL     N720239   2.719   6.200   8.026 -0.2884  0.1132  0.3453
   37MOL     C820240   2.765   6.295   8.115 -0.6645  0.0590 -0.6750
   37MOL     C920241   2.893   6.351   8.100  0.0399  0.8079  0.5672
   37MOL    C1020242   2.942   6.454   0.035 -0.5084  0.5066  0.1549
   37MOL    C1120243   2.869   6.495   0.145 -0.4449 -0.4366  0.8483
   37MOL    N1220244   2.902   6.595   0.242 -0.0750 -0.2111  0.2789
   37MOL    C1320245   2.743   6.441   0.169 -0.3915 -0.3118  0.2645
   37MOL    C1420246   2.695   6.340   0.083 -0.0166  0.4048  0.2415
   37MOL    O1520247   2.501   6.195   8.053  0.0851  0.2453  1.0796
   37MOL    C1620248   2.461   6.015   7.843 -1.0520 -0.6105 -0.2858
   37MOL    C1720249   2.444   5.903   7.756 -0.2842 -0.6236  0.4727
   37MOL    O1820250   2.424   5.624   7.683 -0.0923 -0.2042  0.4010
   37MOL    H1920251   2.762   5.772   7.772  0.3606  0.9379 -0.9994
   37MOL    H2020252   2.788   5.977   7.926 -0.5895  0.3554  1.0241
   37MOL    H2120253   2.789   6.133   7.996 -1.8198 -2.8647  3.1521
   37MOL    H2220254   2.949   6.335   8.009 -2.9678 -1.4692 -0.9561
   37MOL    H2320255   3.039   6.496   0.012 -0.2347 -0.4342 -0.4470
   37MOL    H2420256   2.831   6.616   0.311 -1.4689 -1.5112 -0.7273
   37MOL    H2520257   2.675   6.469   0.248 -1.5600  2.5490 -1.6959
   37MOL    H2620258   2.593   6.307   0.098 -0.5298  0.5577 -2.5564
   37MOL    H2720259   2.381   6.081   7.873 -1.0858 -0.0211 -1.6340
   37MOL    H2820260   2.342   5.876   7.734 -0.8752  1.6379  0.3036
   37MOL    H2920261   2.621   5.641   7.630  0.3742  2.4988 -2.3472
   37MOL    C3020262   3.008   6.681   0.245 -0.5134 -0.6244 -0.4429
   37MOL    C3120263   2.998   6.793   0.352  0.4776 -0.4456  0.2087
   37MOL    C3220264   2.878   6.814   0.432 -0.1275  0.8504  0.3286
   37MOL    C3320265   2.869   6.916   0.530  0.1628 -0.2911  0.2911
   37MOL    C3420266   2.979   6.999   0.561 -0.3867 -0.2120 -0.5103
   37MOL    C3520267   2.965   7.098   0.667  0.1386 -0.0573 -0.1772
   37MOL    N3620268   3.080   7.145   0.709 -0.2770  0.0816 -0.3854
   37MOL    C3720269   3.108   7.256   0.793 -0.1332 -0.2217  0.0718
   37MOL    C3820270   3.012   7.357   0.832  0.5723 -0.0904 -0.3560
   37MOL    C3920271   3.038   7.434   0.947 -0.1434  0.3048  0.2098
   37MOL    C4020272   3.166   7.439   1.003  0.1670 -0.0470  0.4090
   37MOL    N4120273   3.188   7.537   1.101 -0.0648  0.3064 -0.0732
   37MOL    C4220274   3.268   7.353   0.954 -1.0091  0.5241 -0.2053
   37MOL    C4320275   3.237   7.261   0.853  0.1796 -0.2364  0.2083
   37MOL    O4420276   2.850   7.128   0.707 -0.1315 -0.8522  1.0087
   37MOL    C4520277   3.096   6.980   0.477  0.8821 -0.4306  0.0287
   37MOL    C4620278   3.110   6.874   0.378  0.6986 -0.6679 -0.0708
   37MOL    O4720279   3.106   6.688   0.168 -0.4379  0.0347 -0.4940
   37MOL    H4820280   2.791   6.753   0.415 -0.3392  1.3679 -0.4407
   37MOL    H4920281   2.774   6.930   0.579  0.8139  2.0551  0.9184
   37MOL    H5020282   3.163   7.097   0.677  2.1511  3.3028  0.6806
   37MOL    H5120283   2.919   7.364   0.777  0.5745 -1.5884 -0.5570
   37MOL    H5220284   2.962   7.509   0.964  0.8195  1.4542 -0.4981
   37MOL    H5320285   3.140   7.624   1.083 -0.6634  0.4467  2.0525
   37MOL    H5420286   3.367   7.354   0.999 -0.2598  1.0486 -1.8312
   37MOL    H5520287   3.310   7.187   0.824 -0.4016 -0.5271 -0.5267
   37MOL    H5620288   3.175   7.054   0.482 -0.6310  1.2323 -0.3781
   37MOL    H5720289   3.203   6.864   0.325  0.4939  0.6808 -0.7191
   37MOL    C5820290   3.222   7.518   1.229 -0.9392  0.3646 -0.0455
   37MOL    C5920291   3.234   7.637   1.326 -0.3252 -0.3369  0.2897
   37MOL    C6020292   3.218   7.767   1.272 -0.0839  0.2182 -0.2953
   37MOL    C6120293   3.216   7.875   1.353 -0.0414  0.2425  0.5379
   37MOL    C6220294   3.242   7.870   1.494  0.4587  0.1772 -0.6310
   37MOL    C6320295   3.230   7.986   1.581  0.6599 -0.0213 -0.6575
   37MOL    N6420296   3.304   7.989   1.685  0.1485  0.4342 -0.0137
   37MOL    C6520297   3.307   8.099   1.777 -0.2207 -0.5118  0.2217
   37MOL    C6620298   3.327   8.064   1.915 -0.4375  0.0126 -0.3708
   37MOL    C6720299   3.361   0.008   2.010  0.3998  0.3176  0.1914
   37MOL    C6820300   3.365   0.145   1.972 -0.1218 -0.3703  0.2088
   37MOL    N6920301   3.379   0.233   2.084 -0.1335  0.3843  0.8833
   37MOL    C7020302   3.362   0.184   1.834  0.3451 -0.1088 -1.2035
   37MOL    C7120303   3.326   0.086   1.741  0.6418  0.1690 -0.0364
   37MOL    O7220304   3.151   8.077   1.552  0.3475  0.2644 -0.5854
   37MOL    C7320305   3.259   7.743   1.551  0.4018  0.2705  1.0424
   37MOL    C7420306   3.256   7.627   1.466  1.1438 -0.5300  0.4061
   37MOL    O7520307   3.246   7.403   1.271  0.2987  0.7284  0.0821
   37MOL    H7620308   3.192   7.790   1.169  1.1631 -1.3853 -0.9809
   37MOL    H7720309   3.203   7.967   1.299 -1.6110 -0.7207 -0.7573
   37MOL    H7820310   3.356   7.905   1.708 -2.3534 -0.3596  3.0876
   37MOL    H7920311   3.325   7.958   1.934  2.6125 -0.0594 -0.2254
   37MOL    H8020312   3.379   8.128   2.113  0.0001 -0.1619  0.1436
   37MOL    H8120313   3.334   0.211   2.171 -1.5929  0.5272  0.1790
   37MOL    H8220314   3.390   0.286   1.809 -3.3823  0.9987 -1.3049
   37MOL    H8320315   3.334   0.106   1.635  2.1351 -1.5155 -0.2715
   37MOL    H8420316   3.256   7.727   1.657 -1.0658 -0.4194  0.9163
   37MOL    H8520317   3.271   7.526   1.501  0.2565 -1.0557 -0.7005
   37MOL    C8620318   3.450   0.347   2.088 -0.3519  0.0361  0.4075
   37MOL    C8720319   3.431   0.438   2.206 -0.2386  0.5760 -0.6982
   37MOL    C8820320   3.540   0.525   2.232 -0.0081 -0.3802 -0.0752
   37MOL    C8920321   3.529   0.614   2.342  0.2291 -0.6066 -0.3479
   37MOL    C9020322   3.402   0.631   2.414  0.1611 -0.2009 -0.2608
   37MOL    C9120323   3.392   0.740   2.519  0.1359  1.1696 -0.8804
   37MOL    N9220324   3.498   0.738   2.603  0.3558 -0.2037 -0.1846
   37MOL    C9320325   3.546   0.844   2.690 -0.0995 -0.7650  0.2680
   37MOL    C9420326   3.680   0.860   2.708 -0.5358 -0.2822 -0.3322
   37MOL    C9520327   3.724   0.953   2.801  0.4896  0.0750  0.1231
   37MOL    C9620328   3.632   1.040   2.869 -0.5223 -0.1441 -0.8537
   37MOL    N9720329   3.678   1.156   2.932 -0.6081  0.1457  0.2831
   37MOL    C9820330   3.491   1.021   2.851  0.0109  0.9586 -0.1671
   37MOL    C9920331   3.453   0.918   2.764  0.5051  0.2004  0.2903
   37MOL   O10020332   3.299   0.816   2.529  0.7895 -0.5931 -0.1705
   37MOL   C10120333   3.290   0.552   2.378 -0.5690 -0.1945 -0.0029
   37MOL   C10220334   3.306   0.447   2.278 -0.3621 -0.7883 -0.5436
   37MOL   O10320335   3.523   0.383   1.998  0.5537  0.2184 -0.2943
   37MOL   H10420336   3.630   0.525   2.171 -1.2156  0.3004 -1.8998
   37MOL   H10520337   3.615   0.676   2.360 -0.1849  0.6632 -2.4810
   37MOL   H10620338   3.564   0.663   2.588 -1.5589 -2.1529  0.8273
   37MOL   H10720339   3.746   0.800   2.647 -0.6543  0.2131 -0.9462
   37MOL   H10820340   3.831   0.971   2.808  0.6457  0.2279 -2.2104
   37MOL   H10920341   3.751   1.203   2.881  0.0861 -0.8137  0.3867
   37MOL   H11020342   3.409   1.067   2.905 -0.1236  0.0957  0.3621
   37MOL   H11120343   3.350   0.895   2.744  0.6726  1.3727 -2.0610
   37MOL   H11220344   3.198   0.572   2.431  0.3451 -0.9673  1.9403
   37MOL   H11320345   3.222   0.388   2.246 -0.3612 -0.4372 -1.1918
   37MOL   C11420346   3.690   1.165   3.064  0.6654  0.3921 -0.2999
   37MOL   C11520347   3.812   1.230   3.115  0.2606  0.0379 -0.4559
   37MOL   C11620348   3.939   1.216   3.049 -0.5224  0.3924  0.1180
   37MOL   C11720349   4.062   1.263   3.101 -0.0635 -0.5208 -0.6788
   37MOL   C11820350   4.063   1.316   3.230  0.6910 -0.0942  0.3085
   37MOL   C11920351   4.191   1.363   3.295  0.1862  0.0980  0.4273
   37MOL   N12020352   4.297   1.289   3.254 -0.2515 -0.6177  0.1167
   37MOL   C12120353   4.414   1.259   3.338  0.3215 -0.3239 -0.0123
   37MOL   C12220354   4.505   1.158   3.292 -0.0756 -0.7363  0.4218
   37MOL   C12320355   4.620   1.121   3.367 -0.4924 -0.3969 -0.5467
   37MOL   C12420356   4.656   1.181   3.487  1.0012 -0.2065  0.1738
   37MOL   N12520357   4.775   1.152   3.564 -0.0382  0.6675 -0.2488
   37MOL   C12620358   4.568   1.288   3.528  0.5828 -0.0957 -0.0401
   37MOL   C12720359   4.448   1.318   3.462 -0.1111 -0.0541  0.3190
   37MOL   O12820360   4.192   1.460   3.374 -0.2755  0.4619  0.4769
   37MOL   C12920361   3.939   1.339   3.297  0.5504 -0.2619  0.2135
   37MOL   C13020362   3.816   1.287   3.240 -0.2150  0.5548 -0.6646
   37MOL   O13120363   3.610   1.115   3.141  0.3346  0.3909 -0.3323
   37MOL   H13220364   3.939   1.176   2.948  2.2024  2.2267 -0.6885
   37MOL   H13320365   4.149   1.249   3.038 -0.6149 -2.0695 -1.1342
   37MOL   H13420366   4.273   1.223   3.181  0.3234  0.8156 -1.4021
   37MOL   H13520367   4.481   1.113   3.197  0.1407 -0.3214  0.1729
   37MOL   H13620368   4.687   1.044   3.331  2.2484  2.2804 -1.4036
   37MOL   H13720369   4.815   1.234   3.608 -0.7019 -0.0762  1.7932
   37MOL   H13820370   4.583   1.354   3.612 -0.2849 -1.0287  0.8633
   37MOL   H13920371   4.383   1.392   3.506 -0.1336 -0.5406  1.1162
   37MOL   H14020372   3.941   1.391   3.391 -2.0073  0.5994 -0.1920
   37MOL   H14120373   3.728   1.294   3.302  2.2296 -0.2378  3.0669
   37MOL   C14220374   4.833   1.038   3.596 -0.1059 -0.3474  0.1295
   37MOL   C14320375   4.789   0.918   3.523 -0.3901 -0.0398  0.0528
   37MOL   C14420376   4.878   0.853   3.430  0.1509  0.1926 -0.8293
   37MOL   C14520377   4.842   0.737   3.355 -0.2111 -0.6165  0.2378
   37MOL   C14620378   4.709   0.693   3.367 -0.2773 -0.4335 -0.3817
   37MOL   C14720379   4.661   0.585   3.271 -0.0738 -0.2857 -0.6886
   37MOL   N14820380   4.552   0.629   3.206  0.3290  0.4579  0.3312
   37MOL   C14920381   4.491   0.558   3.100 -0.0813 -0.4026 -0.0955
   37MOL   C15020382   4.468   0.422   3.094  0.4861 -0.0514 -0.0013
   37MOL   C15120383   4.421   0.358   2.981 -0.2525  0.1229  0.0250
   37MOL   C15220384   4.378   0.431   2.875  0.1304 -0.4212 -0.2264
   37MOL   N15320385   4.322   0.364   2.769  0.3069  0.1594 -0.4467
   37MOL   C15420386   4.378   0.571   2.882  0.4506 -0.0214 -0.2570
   37MOL   C15520387   4.430   0.636   2.999 -0.3592 -0.1987 -0.0368
   37MOL   O15620388   4.720   0.477   3.259 -0.4764  0.3858 -0.0978
   37MOL   C15720389   4.620   0.755   3.461 -0.0930  0.9465 -0.2576
   37MOL   C15820390   4.662   0.867   3.541  0.3204  0.0766  0.3358
   37MOL   O15920391   4.921   1.031   3.682 -0.0537 -0.4762 -0.3138
   37MOL   H16020392   4.979   0.890   3.433 -0.0749  0.7108  0.3430
   37MOL   H16120393   4.919   0.707   3.285  1.4134  2.3436  0.6420
   37MOL   H16220394   4.538   0.729   3.193 -0.8967 -0.1915 -3.9635
   37MOL   H16320395   4.496   0.375   3.187  0.3349  0.2048  0.1718
   37MOL   H16420396   4.415   0.250   2.979 -0.0205  0.1287 -1.9574
   37MOL   H16520397   4.295   0.271   2.797  2.5959 -0.1998  0.7186
   37MOL   H16620398   4.338   0.633   2.804 -0.6405 -0.0462  0.2670
   37MOL   H16720399   4.428   0.744   3.004 -0.3194 -0.2342  0.8567
   37MOL   H16820400   4.522   0.710   3.467  1.1810 -2.0282 -1.2648
   37MOL   H16920401   4.597   0.920   3.609 -0.5051 -1.0048  0.4030
   37MOL   C17020402   4.328   0.400   2.636  0.0410  0.1406 -1.5153
   37MOL   C17120403   4.308   0.286   2.532  0.4076 -0.4707 -0.1421
   37MOL   C17220404   4.413   0.251   2.449  0.0549  0.5931 -0.1326
   37MOL   C17320405   4.403   0.149   2.360  0.6329  0.5302  0.1500
   37MOL   C17420406   4.280   0.079   2.346  0.1138  0.0395  0.4308
   37MOL   C17520407   4.272   8.112   2.253  0.2251  0.3378  0.2277
   37MOL   N17620408   4.212   8.133   2.132  0.9234 -0.0402  0.1377
   37MOL   C17720409   4.183   8.028   2.047  0.6346  0.7939  0.3234
   37MOL   C17820410   4.046   8.002   2.011  0.1871  0.3062 -0.6277
   37MOL   C17920411   4.017   7.901   1.915  0.5365 -0.0426 -0.0354
   37MOL   C18020412   4.121   7.836   1.845 -0.0745  0.7771  0.0102
   37MOL   N18120413   4.120   7.741   1.743 -0.3282 -0.7395 -0.4775
   37MOL   C18220414   4.255   7.870   1.879 -0.3346  0.7939 -0.1744
   37MOL   C18320415   4.288   7.960   1.983 -0.3340 -0.1362  0.4898
   37MOL   O18420416   4.335   8.008   2.277  0.1626 -0.1118 -0.2167
   37MOL   C18520417   4.173   0.114   2.427  0.6824 -0.3320  0.3111
   37MOL   C18620418   4.187   0.225   2.515 -0.0664  0.3313 -0.7265
   37MOL   O18720419   4.367   0.507   2.593  0.1625 -0.4606 -0.7349
   37MOL   H18820420   4.505   0.307   2.459 -1.4548  2.5485  3.6106
   37MOL   H18920421   4.486   0.136   2.292  0.9151  0.7981  0.4371
   37MOL   H19020422   4.182   0.082   2.113  0.8293  0.2019  1.4941
   37MOL   H19120423   3.964   8.055   2.056 -0.0773 -0.6459  0.0291
   37MOL   H19220424   3.916   7.890   1.880  0.9302 -0.2517 -1.1257
   37MOL   H19320425   4.204   7.686   1.736  0.0456 -0.4214  1.2186
   37MOL   H19420426   4.339   7.821   1.831 -0.9538  0.2954 -0.7600
   37MOL   H19520427   4.389   7.986   2.011 -0.7037  0.4123  1.3604
   37MOL   H19620428   4.079   0.061   2.421  1.8784 -2.3294 -2.0402
   37MOL   H19720429   4.101   0.240   2.578  1.2825  3.0181  0.5404
   37MOL   C19820430   4.022   7.698   1.663  0.0747  0.1470  0.0402
   37MOL   C19920431   4.048   7.587   1.571  0.0470  0.8137 -0.0900
   37MOL   C20020432   4.182   7.549   1.536 -0.3572 -0.2917  0.4416
   37MOL   C20120433   4.204   7.434   1.443 -0.0040 -0.6139 -0.7169
   37MOL   C20220434   4.098   7.362   1.385  1.3073  0.5185 -0.2197
   37MOL   C20320435   4.123   7.245   1.292  0.2861 -1.0621  0.3112
   37MOL   N20420436   4.019   7.197   1.225 -0.4779 -0.0976 -0.3688
   37MOL   C20520437   4.007   7.082   1.140 -0.7433  0.2014  0.1666
   37MOL   C20620438   3.884   7.081   1.070  0.5443  0.0842  0.0088
   37MOL   C20720439   3.857   6.983   0.972  0.9633  0.7594 -1.1891
   37MOL   C20820440   3.947   6.877   0.948  0.2364  0.4517 -0.3108
   37MOL   N20920441   3.931   6.781   0.838  0.0210 -0.4616  0.0555
   37MOL   C21020442   4.070   6.878   1.014 -0.1235  0.3057  0.0176
   37MOL   C21120443   4.101   6.979   1.109  0.3819 -0.1534  0.1604
   37MOL   O21220444   4.236   7.203   1.284 -0.3665  0.0222  0.1527
   37MOL   C21320445   3.968   7.400   1.431 -0.2185 -0.0086 -0.1923
   37MOL   C21420446   3.945   7.499   1.525  0.5259 -0.1038 -0.6262
   37MOL   O21520447   3.906   7.739   1.671  0.1804  0.4159 -0.3080
   37MOL   H21620448   4.270   7.607   1.561 -0.9289  1.2025 -0.9909
   37MOL   H21720449   4.310   7.417   1.431  0.6813  1.1968  2.1164
   37MOL   H21820450   3.947   7.268   1.223 -1.2932 -0.9448 -2.2248
   37MOL   H21920451   3.813   7.156   1.100 -0.3655 -0.5172 -0.6385
   37MOL   H22020452   3.773   6.997   0.905  1.9096 -0.9096 -2.7709
   37MOL   H22120453   4.015   6.728   0.818  0.2106 -0.6353  1.2294
   37MOL   H22220454   4.148   6.806   0.995  1.6733  1.6935  1.8989
   37MOL   H22320455   4.199   6.975   1.155  0.3138  1.9184  0.5566
   37MOL   H22420456   3.876   7.364   1.386 -0.4462 -0.2201  0.4408
   37MOL   H22520457   3.842   7.523   1.544  0.3935  0.5371 -2.0457
   37MOL   C22620458   3.820   6.744   0.771  0.5770 -0.3933 -0.3616
   37MOL   C22720459   3.831   6.638   0.662 -0.5967 -0.0035  0.3464
   37MOL   C22820460   3.718   6.565   0.621  0.4618  0.1751 -0.0391
   37MOL   C22920461   3.720   6.489   0.501 -0.4735  0.1308 -0.5444
   37MOL   C23020462   3.835   6.484   0.427 -0.0279  0.4742 -0.2763
   37MOL   C23120463   3.833   6.410   0.296  1.0865  0.1220 -1.3641
   37MOL   N23220464   3.779   6.287   0.297 -0.0104  1.1984 -0.2023
   37MOL   C23320465   3.748   6.210   0.183 -0.0795 -0.2657 -0.0415
   37MOL   C23420466   3.614   6.212   0.138  0.2193 -0.5671  0.0532
   37MOL   C23520467   3.583   6.147   0.020 -0.9906 -0.7944  0.1231
   37MOL   C23620468   3.679   6.082   8.093 -0.2739  0.5458 -0.0140
   37MOL   N23720469   3.655   6.026   7.965 -0.5067  0.8320 -0.1040
   37MOL   C23820470   3.813   6.066   8.142 -0.4229 -0.5207  0.1303
   37MOL   C23920471   3.846   6.140   0.109  0.0630  0.6904 -0.6808
   37MOL   O24020472   3.873   6.467   0.193 -0.4451 -0.2263 -0.1427
   37MOL   C24120473   3.947   6.561   0.459 -0.1556  0.6070  0.2163
   37MOL   C24220474   3.945   6.636   0.577  0.3771 -0.6247  0.4390
   37MOL   O24320475   3.708   6.774   0.807  0.6271  0.2544  0.5924
   37MOL   H24420476   3.622   6.564   0.670 -0.5128 -1.2903 -1.8857
   37MOL   H24520477   3.627   6.444   0.469  0.1757 -0.9486 -0.9340
   37MOL   H24620478   3.752   6.250   0.386  0.0144  0.3707 -0.5355
   37MOL   H24720479   3.536   6.263   0.191  0.0618 -1.7623  0.9871
   37MOL   H24820480   3.483   6.165   8.129 -0.8659 -1.2235 -0.4318
   37MOL   H24920481   3.730   6.019   7.898 -1.2841 -1.3660 -0.7769
   37MOL   H25020482   3.886   6.010   8.085 -1.8087 -2.8155  0.5353
   37MOL   H25120483   3.950   6.135   0.138 -0.7504 -0.5269  2.2521
   37MOL   H25220484   4.034   6.550   0.397 -0.2842 -1.2262  0.3330
   37MOL   H25320485   4.032   6.693   0.606 -0.8132  1.1684  0.5735
   37MOL   C25420486   3.540   5.996   7.898 -0.2894  0.6037 -0.1504
   37MOL   C25520487   3.542   5.960   7.755 -0.0577 -0.7199 -0.2400
   37MOL   C25620488   3.478   6.041   7.655  0.3591 -0.0761 -0.1600
   37MOL   C25720489   3.475   6.006   7.515  0.3004 -0.1940 -0.0952
   37MOL   C25820490   3.537   5.891   7.476  0.0467  0.2029  0.3245
   37MOL   C25920491   3.535   5.848   7.328 -0.0799  0.0657  0.1207
   37MOL   N26020492   3.490   5.941   7.242 -0.2121  0.1431  0.1667
   37MOL   C26120493   3.491   5.953   7.098  0.2156 -0.0330  0.0744
   37MOL   C26220494   3.537   5.854   7.014  0.5018 -0.4993 -0.1225
   37MOL   C26320495   3.546   5.879   6.872 -0.2178  0.3306 -0.2158
   37MOL   C26420496   3.495   5.997   6.817  0.4215 -0.3507  0.7521
   37MOL   N26520497   3.496   6.009   6.676  0.5417 -0.6550  0.1245
   37MOL   C26620498   3.436   6.089   6.902  0.3241 -0.2496  0.2207
   37MOL   C26720499   3.441   6.071   7.045 -0.5535  0.6914  0.7283
   37MOL   O26820500   3.587   5.742   7.293 -0.1010 -0.1772 -0.0169
   37MOL   C26920501   3.600   5.808   7.571  0.8424  0.4515  0.2742
   37MOL   C27020502   3.605   5.842   7.709  0.3920  0.0301 -0.0006
   37MOL   O27120503   3.432   6.001   7.956  0.2128 -0.5831  0.0487
   37MOL   H27220504   3.415   6.123   7.689 -0.2386 -0.3726 -0.5373
   37MOL   H27320505   3.435   6.081   7.449  0.7408 -0.5911 -0.8142
   37MOL   H27420506   3.457   6.023   7.291  2.8875  1.9716 -0.6590
   37MOL   H27520507   3.594   5.774   7.059 -0.8805 -1.0286  0.7069
   37MOL   H27620508   3.606   5.809   6.815  0.1123 -1.0547  1.7973
   37MOL   H27720509   3.427   5.965   6.616 -0.7782 -0.7666  1.6779
   37MOL   H27820510   3.392   6.180   6.864  0.6973 -0.0496  0.2636
   37MOL   H27920511   3.403   6.140   7.118 -1.1026 -0.4990  1.5891
   37MOL   H28020512   3.653   5.723   7.532 -1.3558 -0.1941 -1.4103
   37MOL   H28120513   3.649   5.767   7.773 -0.4149 -1.3401 -1.0072
   37MOL   C28220514   3.577   6.093   6.613 -0.2472  0.4295 -0.0713
   37MOL   C28320515   3.688   6.167   6.687  0.3817  0.4379 -0.1394
   37MOL   C28420516   3.792   6.094   6.743 -0.4689  0.0582 -0.2105
   37MOL   C28520517   3.901   6.161   6.810  0.0833 -0.4246 -0.0484
   37MOL   C28620518   3.904   6.302   6.822 -0.4191 -0.6282 -0.4599
   37MOL   C28720519   4.001   6.371   6.907  0.3408  0.1997 -0.0996
   37MOL   N28820520   4.029   6.304   7.020 -0.4016 -0.1675 -0.6863
   37MOL   C28920521   4.116   6.327   7.124  0.1933  0.1780  0.1260
   37MOL   C29020522   4.163   6.220   7.202  0.4741 -0.3015 -0.1513
   37MOL   C29120523   4.239   6.248   7.319  0.0540  0.9223 -0.4424
   37MOL   C29220524   4.267   6.379   7.358 -0.5410  0.8274  0.2969
   37MOL   N29320525   4.343   6.412   7.471  0.6574 -0.0372 -0.5350
   37MOL   C29420526   4.224   6.486   7.278 -0.2212  0.2815 -0.0961
   37MOL   C29520527   4.157   6.459   7.159  0.1130 -0.5442 -0.2620
   37MOL   O29620528   4.054   6.477   6.882 -0.5568  0.0129  0.7500
   37MOL   C29720529   3.794   6.375   6.762  0.0948  0.3725 -1.2740
   37MOL   C29820530   3.687   6.308   6.694 -0.3505 -0.1898  0.4962
   37MOL   O29920531   3.570   6.104   6.492 -0.6061 -0.4832  0.0198
   37MOL   H30020532   3.791   5.987   6.724 -1.1308  0.0213  0.0006
   37MOL   H30120533   3.967   6.091   6.859 -1.6991 -1.1962  1.3114
   37MOL   H30220534   3.990   6.211   7.027 -3.1051  1.0572  1.0961
   37MOL   H30320535   4.133   6.117   7.186  1.0563 -0.0864 -2.7225
   37MOL   H30420536   4.266   6.166   7.384 -2.4475  0.6903  0.3405
   37MOL   H30520537   4.410   6.488   7.466 -1.1652  1.8228  2.0577
   37MOL   H30620538   4.251   6.588   7.300 -1.0841  0.4283  0.3205
   37MOL   H30720539   4.131   6.543   7.096 -0.4746  1.1070  2.1209
   37MOL   H30820540   3.777   6.481   6.775  2.9789  0.5091  1.8776
   37MOL   H30920541   3.604   6.359   6.648  1.3716  2.2190  0.0072
   37MOL   C31020542   4.323   6.360   7.596  0.2847 -0.1109 -0.5155
   37MOL   C31120543   4.399   6.413   7.716  0.4414  0.1167 -0.7346
   37MOL   C31220544   4.423   6.552   7.721  0.0558 -0.6319 -0.0200
   37MOL   C31320545   4.489   6.609   7.837 -0.0852 -0.1405  0.9162
   37MOL   C31420546   4.524   6.525   7.946 -0.0560 -0.7583 -0.6804
   37MOL   C31520547   4.575   6.578   8.078  0.3949 -0.0317  0.2739
   37MOL   N31620548   4.548   6.706   8.097  0.1869  0.1616 -0.1011
   37MOL   C31720549   4.550   6.791   0.065  0.0071 -0.1986  0.2547
   37MOL   C31820550   4.657   6.793   0.153 -0.1731  0.8614  0.3819
   37MOL   C31920551   4.658   6.893   0.255 -0.6570  0.7068  0.1217
   37MOL   C32020552   4.549   6.985   0.275 -0.2095  0.2437  0.4241
   37MOL   N32120553   4.572   7.089   0.368  0.8983  0.3042 -0.4863
   37MOL   C32220554   4.443   6.985   0.181 -0.4959  0.2762  0.3097
   37MOL   C32320555   4.452   6.888   0.077  0.5725 -0.3077  0.2692
   37MOL   O32420556   4.615   6.501   0.020 -0.1767 -0.7490  0.1739
   37MOL   C32520557   4.485   6.392   7.944  0.2349  0.9377 -0.1654
   37MOL   C32620558   4.429   6.330   7.825  0.6851  0.2356 -0.0923
   37MOL   O32720559   4.236   6.269   7.611  0.0972 -0.5509 -0.7735
   37MOL   H32820560   4.391   6.623   7.647  1.1112 -0.7447 -0.5922
   37MOL   H32920561   4.504   6.716   7.830 -0.5219 -0.0318  1.5545
   37MOL   H33020562   4.501   6.738   8.013  0.0428 -1.0112 -0.4658
   37MOL   H33120563   4.742   6.728   0.138 -0.3299  0.6714  0.2971
   37MOL   H33220564   4.748   6.902   0.315  0.0031  0.2753 -0.7859
   37MOL   H33320565   4.667   7.115   0.388  0.3277  0.0558  2.7773
   37MOL   H33420566   4.361   7.055   0.169 -0.6548 -0.1998 -1.5094
   37MOL   H33520567   4.374   6.888   0.003 -0.6370 -1.5072  1.5293
   37MOL   H33620568   4.507   6.323   8.024  0.2287  0.2835 -0.7227
   37MOL   H33720569   4.401   6.225   7.825 -0.1764  0.4456 -2.5926
   37MOL   C33820570   4.480   7.124   0.461 -0.7192 -0.2383  0.9793
   37MOL   C33920571   4.541   7.192   0.578  1.5802 -0.8792 -0.9892
   37MOL   C34020572   4.672   7.157   0.625  0.0612  0.7273 -0.1881
   37MOL   C34120573   4.728   7.225   0.733  0.6633 -0.3450 -0.3300
   37MOL   C34220574   4.652   7.312   0.811 -0.0988 -0.2872  1.1566
   37MOL   C34320575   4.712   7.381   0.928  0.2444 -0.5101 -0.6152
   37MOL   N34420576   4.623   7.431   1.015  0.4736  0.4538 -0.1234
   37MOL   C34520577   4.645   7.524   1.118  0.6930 -0.1992  0.6588
   37MOL   C34620578   4.744   7.505   1.215  0.6055 -0.3356  0.2104
   37MOL   C34720579   4.780   7.600   1.309 -0.8419  0.2987 -0.2118
   37MOL   C34820580   4.703   7.715   1.315 -0.2443  0.2208  0.9522
   37MOL   N34920581   4.745   7.810   1.406 -0.0180 -0.0848 -0.0623
   37MOL   C35020582   4.586   7.726   1.229  0.1541 -0.4822  0.1648
   37MOL   C35120583   4.558   7.630   1.130  0.1586 -0.0406 -0.4303
   37MOL   O35220584   4.832   7.392   0.945 -0.4819 -0.8935 -0.1697
   37MOL   C35320585   4.517   7.343   0.773  0.2915 -0.1201  0.0944
   37MOL   C35420586   4.460   7.277   0.662 -0.3359  0.1828  0.3696
   37MOL   O35520587   4.358   7.104   0.446 -0.5238  0.3661  0.2672
   37MOL   H35620588   4.729   7.082   0.572  0.7440  0.0183  1.5413
   37MOL   H35720589   4.831   7.203   0.759  0.7339  0.7272  0.3296
   37MOL   H35820590   4.528   7.399   1.001  1.1995 -0.4580 -3.4272
   37MOL   H35920591   4.801   7.413   1.210  1.0552  0.0302 -1.9517
   37MOL   H36020592   4.869   7.584   1.368  0.2942  0.2665 -1.8792
   37MOL   H36120593   4.818   7.775   1.466 -0.0392 -1.1372 -0.6375
   37MOL   H36220594   4.521   7.812   1.231  0.4982 -0.2444  3.7004
   37MOL   H36320595   4.474   7.649   1.065  0.5736  1.7380 -0.4614
   37MOL   H36420596   4.460   7.421   0.822  0.2679  0.9602 -1.6052
   37MOL   H36520597   4.361   7.310   0.635 -0.2231 -0.5629 -0.9925
   37MOL   C36620598   4.680   7.909   1.467 -0.1758 -0.0930 -0.4924
   37MOL   C36720599   4.746   7.962   1.591 -0.4011 -0.7062  0.2741
   37MOL   C36820600   4.856   7.896   1.648  0.3088 -0.3960 -0.6887
   37MOL   C36920601   4.945   7.949   1.748  0.0303 -0.3177  0.1656
   37MOL   C37020602   4.923   8.082   1.799 -0.0333 -0.1773  0.0224
   37MOL   C37120603   5.013   8.144   1.896 -0.9248 -0.3731  0.0908
   37MOL   N37220604   5.059   8.064   1.992 -0.1089  0.1250  0.0242
   37MOL   C37320605   5.168   8.092   2.083  0.2958  1.1663 -0.3168
   37MOL   C37420606   5.259   7.984   2.106  0.0876  0.8380 -0.0383
   37MOL   C37520607   5.382   8.011   2.174  0.0855 -0.2268 -0.0415
   37MOL   C37620608   5.403   8.140   2.226  0.1004  0.4311 -0.3285
   37MOL   N37720609   5.528   0.009   2.294 -0.4878 -0.5114 -0.3655
   37MOL   C37820610   5.303   0.096   2.221 -0.0554  0.1845  0.3448
   37MOL   C37920611   5.185   0.075   2.143 -0.2974  0.0635  0.4461
   37MOL   O38020612   5.035   0.121   1.893 -0.4991  0.0921 -0.5093
   37MOL   C38120613   4.808   0.005   1.748  0.4153 -0.6884  0.1133
   37MOL   C38220614   4.718   8.089   1.653 -0.0006 -1.2819  0.1089
   37MOL   O38320615   4.571   7.950   1.428 -0.6313  0.0566  0.7414
   37MOL   H38420616   4.891   7.804   1.604  2.6633  0.1766 -0.0818
   37MOL   H38520617   5.030   7.901   1.793 -0.3602  0.9473  2.2918
   37MOL   H38620618   5.024   7.970   1.985 -0.3721  0.3923 -2.5224
   37MOL   H38720619   5.241   7.884   2.072  2.4299 -0.1534  1.4948
   37MOL   H38820620   5.459   7.935   2.179 -0.7199 -0.9701  1.6742
   37MOL   H38920621   5.587   8.076   2.315 -1.6281 -1.4196 -0.4883
   37MOL   H39020622   5.320   0.196   2.258 -0.5870 -0.4295  2.2652
   37MOL   H39120623   5.128   0.165   2.125 -0.0871  0.0550 -0.2816
   37MOL   H39220624   4.785   0.107   1.775 -0.6926 -0.1638 -2.5796
   37MOL   H39320625   4.638   0.008   1.622  1.2130  0.6452  0.9160
   37MOL   C39420626   5.592   0.120   2.344  0.6493  0.0391 -0.0475
   37MOL   C39520627   5.722   0.090   2.418 -0.3068  1.1825 -0.3455
   37MOL   C39620628   5.729   0.105   2.558 -0.5291  0.3772  0.2298
   37MOL   C39720629   5.849   0.071   2.627 -0.2258  0.3786  0.0504
   37MOL   C39820630   5.954   0.016   2.559 -0.8574 -0.1555  0.3944
   37MOL   C39920631   6.081   8.130   2.628 -0.1521  0.1484 -0.6719
   37MOL   N40020632   6.173   8.069   2.548 -0.2546  0.1640  0.2373
   37MOL   C40120633   6.289   7.996   2.590  0.8130  0.4053  0.9266
   37MOL   C40220634   6.290   7.941   2.716  0.7110  0.4358 -0.0417
   37MOL   C40320635   6.387   7.845   2.752  0.0313 -0.3253 -0.4979
   37MOL   C40420636   6.500   7.823   2.669  0.4984  0.5346  0.3599
   37MOL   N40520637   6.588   7.722   2.705 -0.4597 -0.0634  0.5370
   37MOL   C40620638   6.512   7.896   2.548  0.2105  0.5968 -0.0376
   37MOL   C40720639   6.400   7.973   2.506 -0.3165 -0.1176  0.0862
   37MOL   O40820640   6.097   0.019   2.741  0.4711 -0.1418 -0.2271
   37MOL   C40920641   5.951   0.002   2.417 -0.2568  0.1824  0.3365
   37MOL   C41020642   5.832   0.039   2.350  0.3183  1.0657  0.3791
   37MOL   O41120643   5.550   0.234   2.339 -0.1484 -0.3740  0.2921
   37MOL   H41220644   5.643   0.144   2.610 -2.2814  0.2038 -2.4413
   37MOL   H41320645   5.851   0.095   2.732  0.4709 -0.1381  0.1584
   37MOL   H41420646   6.134   8.052   2.457  0.7335 -1.3317  0.0897
   37MOL   H41520647   6.198   7.943   2.774 -0.9146  1.3933 -2.5819
   37MOL   H41620648   6.368   7.795   2.846 -2.3121 -1.0033 -1.3024
   37MOL   H41720649   6.609   7.655   2.632  2.2485  1.6250 -0.3287
   37MOL   H41820650   6.598   7.881   2.485  0.3964  2.1804 -0.1824
   37MOL   H41920651   6.396   8.027   2.413  0.8155  2.2930  1.3765
   37MOL   H42020652   6.034   8.125   2.353 -0.1569 -0.2301  0.6082
   37MOL   H42120653   5.835   0.023   2.244 -2.9183  0.1324  0.3598
   37MOL   C42220654   6.626   7.697   2.826 -0.2487  0.0878  0.0129
   37MOL   C42320655   6.673   7.556   2.851  0.2471 -0.2056  0.4799
   37MOL   C42420656   6.634   7.447   2.765  0.3918 -0.0530 -0.0722
   37MOL   C42520657   6.682   7.315   2.799  0.3055 -0.3710  0.3662
   37MOL   C42620658   6.782   7.299   2.892  0.2741 -0.3991 -0.4311
   37MOL   C42720659   6.846   7.162   2.908 -0.5626 -0.3636 -0.5355
   37MOL   N42820660   6.787   7.056   2.851 -0.2057 -0.2445  0.1745
   37MOL   C42920661   6.829   6.922   2.840 -0.0229  0.0896 -0.3648
   37MOL   C43020662   6.946   6.893   2.766 -0.1173  0.3623 -0.8571
   37MOL   C43120663   6.974   6.758   2.730 -0.0119  0.2216  0.0551
   37MOL   C43220664   6.885   6.655   2.760  0.5169  0.4172 -0.3726
   37MOL   N43320665   6.898   6.522   2.709 -0.8650  0.2977  0.3159
   37MOL   C43420666   6.778   6.687   2.844  0.4256  0.5821  0.3300
   37MOL   C43520667   6.750   6.819   2.888  0.0387 -0.2521  0.9634
   37MOL   O43620668   6.955   7.150   2.972  0.4388  0.3555  0.2632
   37MOL   C43720669   6.823   7.407   2.971 -0.1597 -0.0481  0.9221
   37MOL   C43820670   6.768   7.531   2.950  0.0301  0.6190  0.6872
   37MOL   O43920671   6.636   7.785   2.914  0.0946 -0.1312  0.5574
   37MOL   H44020672   6.562   7.456   2.686  0.0884 -0.0200  0.2047
   37MOL   H44120673   6.640   7.231   2.745  1.4477 -0.1033 -0.9564
   37MOL   H44220674   6.694   7.063   2.812  0.2022 -1.3484 -1.0593
   37MOL   H44320675   7.011   6.977   2.748 -0.1507  0.2734 -1.4058
   37MOL   H44420676   7.067   6.736   2.679  0.2340 -0.1255  0.6560
   37MOL   H44520677   6.815   6.467   2.695  0.2475 -1.7164  1.3951
   37MOL   H44620678   6.718   6.608   2.887 -0.5453  0.7584 -0.6696
   37MOL   H44720679   6.654   6.840   2.931 -1.4343 -1.4806 -1.5718
   37MOL   H44820680   6.893   7.403   3.053 -0.4610 -0.7494  1.1436
   37MOL   H44920681   6.802   7.613   3.011  1.3761  0.1877  0.5426
   37MOL   C45020682   7.000   6.465   2.648 -1.0381  0.1359  0.6543
   37MOL   C45120683   6.965   6.340   2.568  0.4482 -0.0304 -0.5877
   37MOL   C45220684   7.051   6.228   2.566  0.7428 -0.1625  0.0151
   37MOL   C45320685   7.017   6.116   2.490 -0.1524 -0.3903  0.5103
   37MOL   C45420686   6.888   6.104   2.434  0.3868  0.3980 -0.2119
   37MOL   C45520687   6.834   5.980   2.371  0.4401  0.4169 -0.0276
   37MOL   N45620688   6.915   5.872   2.361 -0.1443  0.3273 -0.0643
   37MOL   C45720689   6.868   5.738   2.324 -0.2988  0.3604  0.1927
   37MOL   C45820690   6.961   5.631   2.316 -0.2175 -0.2535 -0.1406
   37MOL   C45920691   6.932   5.511   2.260 -0.0149  0.4302  0.0655
   37MOL   C46020692   6.802   5.484   2.216  0.2421 -0.1202  0.1072
   37MOL   N46120693   6.764   5.356   2.164  0.4020  0.8445 -0.2936
   37MOL   C46220694   6.703   5.586   2.236  0.0588 -0.9223  0.5199
   37MOL   C46320695   6.737   5.716   2.281  0.7570  0.5844 -0.5119
   37MOL   O46420696   6.715   5.987   2.327 -0.0541  0.0584  0.5204
   37MOL   C46520697   6.802   6.214   2.441  0.2517 -0.0023  0.4531
   37MOL   C46620698   6.839   6.334   2.505 -0.5648 -0.1544 -0.0063
   37MOL   O46720699   7.119   6.498   2.669  0.6842  0.2460  0.3630
   37MOL   H46820700   7.148   6.231   2.612  0.4492  1.6640  0.5672
   37MOL   H46920701   7.089   6.036   2.482  0.9848  0.7068 -0.3780
   37MOL   H47020702   7.004   5.888   2.406 -0.9189  0.5544  1.4118
   37MOL   H47120703   7.062   5.639   2.353 -0.9617  2.1099  1.4849
   37MOL   H47220704   7.015   5.442   2.265 -0.2406  0.2257  1.2973
   37MOL   H47320705   6.827   5.331   2.089  0.5684  2.3755 -0.6886
   37MOL   H47420706   6.603   5.563   2.204 -0.9801 -0.5357  3.3370
   37MOL   H47520707   6.655   5.785   2.292  0.4623  0.2287 -0.4789
   37MOL   H47620708   6.699   6.200   2.411 -0.1652 -0.4456  2.0642
   37MOL   H47720709   6.769   6.416   2.516 -0.1892  0.5213 -2.3597
   37MOL   C47820710   6.655   5.279   2.194  0.3462  0.2742  0.6681
   37MOL   C47920711   6.649   5.148   2.129 -0.5728 -0.4001  0.2062
   37MOL   C48020712   6.664   5.029   2.208 -0.4308 -0.1204  0.1313
   37MOL   C48120713   6.653   4.902   2.149  0.5461 -0.0269 -0.2389
   37MOL   C48220714   6.630   4.888   2.012 -0.3864 -0.0732  0.3594
   37MOL   C48320715   6.626   4.753   1.944  0.1876 -0.3862 -1.2242
   37MOL   N48420716   6.535   4.669   1.988  0.5963  0.4456  0.5839
   37MOL   C48520717   6.471   4.562   1.917 -0.1072 -0.0906  0.4017
   37MOL   C48620718   6.527   4.497   1.805  0.1998  0.3498 -0.2209
   37MOL   C48720719   6.450   4.394   1.744 -0.1507 -0.4780  0.7370
   37MOL   C48820720   6.331   4.344   1.796  0.6193 -0.6649  0.3138
   37MOL   N48920721   6.262   4.257   1.704 -0.1648  0.1973  0.3475
   37MOL   C49020722   6.279   4.398   1.916  0.1563  0.0512  0.1239
   37MOL   C49120723   6.358   4.501   1.979  0.1377  0.0739  0.3010
   37MOL   O49220724   6.696   4.737   1.846 -0.1034 -0.1939  0.0981
   37MOL   C49320725   6.615   5.004   1.934 -0.1258 -0.1581  0.4199
   37MOL   C49420726   6.613   5.134   1.992 -0.1468 -0.1749 -0.1600
   37MOL   O49520727   6.564   5.310   2.267 -0.0597  0.5138  0.7214
   37MOL   H49620728   6.692   5.034   2.313  0.1193  1.6495 -0.0807
   37MOL   H49720729   6.679   4.820   2.213 -1.3914  0.7416  1.5978
   37MOL   H49820730   6.490   4.697   2.074 -1.4838  1.6486 -0.8370
   37MOL   H49920731   6.618   4.527   1.754 -0.0520 -0.5850 -1.2598
   37MOL   H50020732   6.496   4.350   1.657  0.5561 -0.8776  1.3212
   37MOL   H50120733   6.283   4.257   1.605  0.0900 -0.2953  0.3967
   37MOL   H50220734   6.193   4.349   1.958  1.9007 -2.1158  1.2830
   37MOL   H50320735   6.324   4.547   2.071  1.4506  0.3372  0.6650
   37MOL   H50420736   6.593   4.994   1.829 -2.3126  1.6932  0.6645
   37MOL   H50520737   6.602   5.207   1.913 -1.9567 -0.5361 -0.2583
   37MOL   C50620738   6.180   4.155   1.725 -1.0141 -0.1837  0.3534
   37MOL   C50720739   6.132   4.087   1.602  0.6564 -0.5588 -0.2931
   37MOL   C50820740   6.119   4.149   1.476  0.5040  0.1933 -0.6836
   37MOL   C50920741   6.065   4.072   1.369  0.0814  0.0852  1.3300
   37MOL   C51020742   6.038   3.931   1.380  0.3459 -0.8154  0.2162
   37MOL   C51120743   6.013   3.844   1.266 -0.1806  0.2137  0.3859
   37MOL   N51220744   6.115   3.847   1.171  0.1011 -0.1691 -0.1752
   37MOL   C51320745   6.243   3.910   1.168 -0.2961  0.6557 -0.4864
   37MOL   C51420746   6.333   3.884   1.270 -0.3291 -0.7642 -0.3070
   37MOL   C51520747   6.455   3.955   1.278 -0.7254 -0.1521 -0.6062
   37MOL   C51620748   6.487   4.047   1.174 -0.3410 -1.2771 -0.5384
   37MOL   N51720749   6.609   4.120   1.169  0.0345  0.2271  0.0600
   37MOL   C51820750   6.392   4.073   1.070 -0.2715 -0.1541  0.0078
   37MOL   C51920751   6.271   4.002   1.062  0.3556 -0.1018 -0.8100
   37MOL   O52020752   5.920   3.768   1.262 -0.0450 -0.2735  0.3403
   37MOL   C52120753   6.044   3.880   1.510 -0.8701  0.0164 -0.3411
   37MOL   C52220754   6.087   3.958   1.616 -0.7007  0.5496 -0.0793
   37MOL   O52320755   6.153   4.121   1.840  0.3646  0.5035  0.7941
   37MOL   H52420756   6.140   4.247   1.438  0.9942  0.0093 -0.8938
   37MOL   H52520757   6.058   4.117   1.271 -0.5630 -1.6983  0.5377
   37MOL   H52620758   6.088   3.807   1.083  0.9271 -2.2819  0.4989
   37MOL   H52720759   6.314   3.807   1.344  4.2490 -2.1446 -0.4449
   37MOL   H52820760   6.509   3.945   1.371  1.0100  3.0744 -1.1793
   37MOL   H52920761   6.657   4.148   1.254  0.0340 -2.7448  1.1132
   37MOL   H53020762   6.412   4.148   0.995 -0.2977  1.8456  1.9494
   37MOL   H53120763   6.195   4.020   0.988  0.9287  1.4815 -1.0226
   37MOL   H53220764   6.016   3.777   1.526  0.7151 -0.4119 -0.1943
   37MOL   H53320765   6.079   3.911   1.713  2.4146 -1.5871 -0.8277
   37MOL   C53420766   6.692   4.139   1.065 -0.3684  0.0989 -0.2056
   37MOL   C53520767   6.832   4.178   1.102  0.0617 -0.5282  0.3070
   37MOL   C53620768   6.945   4.104   1.054  0.1486 -0.1399  0.1222
   37MOL   C53720769   7.080   4.154   1.080  0.2960 -0.1297  0.0082
   37MOL   C53820770   7.102   4.268   1.162 -0.6426 -0.5257  0.3055
   37MOL   C53920771   7.245   4.305   1.199 -0.7867 -0.8693  1.0120
   37MOL   N54020772   7.255   4.437   1.230  0.2093  0.2958 -0.3143
   37MOL   C54120773   7.373   4.517   1.268  0.6213 -1.0059  0.3946
   37MOL   C54220774   7.505   4.478   1.231  0.1331  0.0179  0.1808
   37MOL   C54320775   7.616   4.555   1.276 -0.6039  0.1174 -0.8771
   37MOL   C54420776   7.594   4.677   1.346 -0.5243  0.2171  0.3663
   37MOL   N54520777   7.703   4.763   1.378  0.1802  0.2887 -0.0987
   37MOL   C54620778   7.463   4.720   1.373  0.2915  0.3867 -0.0209
   37MOL   C54720779   7.351   4.642   1.337  0.2466  0.3682 -0.3001
   37MOL   O54820780   7.344   4.231   1.192  0.0576  0.1977 -0.4194
   37MOL   C54920781   6.988   4.342   1.199  0.3853  0.0621 -0.3956
   37MOL   C55020782   6.862   4.297   1.171 -0.2261  0.1442  0.3582
   37MOL   O55120783   6.665   4.107   0.951  0.0827  0.3272 -0.0590
   37MOL   H55220784   6.932   4.012   0.998  0.4447 -1.4291  2.1177
   37MOL   H55320785   7.161   4.100   1.033 -1.2409 -0.8275 -1.9366
   37MOL   H55420786   7.169   4.490   1.234  0.9377  1.5634 -1.1950
   37MOL   H55520787   7.519   4.388   1.172 -0.7599 -0.0133  0.0180
   37MOL   H55620788   7.716   4.528   1.246  0.1068  0.3442  1.2137
   37MOL   H55720789   7.669   4.857   1.394 -0.1070  0.6033 -2.4223
   37MOL   H55820790   7.446   4.816   1.419 -3.3136  0.6860 -1.8821
   37MOL   H55920791   7.249   4.673   1.355 -0.4226 -0.7810 -1.9689
   37MOL   H56020792   7.006   4.427   1.263  0.3356 -0.3167  0.1262
   37MOL   H56120793   6.784   4.360   1.212  0.0381  2.3034 -2.3325
   37MOL   H56220794   7.786   4.757   1.321  1.2618  1.1286  1.3362
   38MOL     C120795   0.020   0.246   6.708 -0.1063  1.1383 -0.0292
   38MOL     C220796   0.057   0.342   6.604  0.2993  1.0578 -0.0889
   38MOL     C320797   0.145   0.454   6.619  0.3995  0.2499  0.0989
   38MOL     C420798   0.195   0.529   6.512 -0.1267 -0.1193 -0.1671
   38MOL     C520799   0.147   0.495   6.384 -0.1703 -0.2788 -0.5702
   38MOL     C620800   0.186   0.578   6.270  0.3566 -0.5475  0.1038
   38MOL     N720801   0.309   0.630   6.278  0.4862  0.1581 -0.6445
   38MOL     C820802   0.366   0.735   6.206  0.1314 -0.3247  0.0479
   38MOL     C920803   0.299   0.836   6.132  0.5727 -0.0688 -0.1018
   38MOL    C1020804   0.364   0.935   6.070  0.0620 -0.2329 -0.4936
   38MOL    C1120805   0.505   0.946   6.088  0.4032  0.0364 -0.6873
   38MOL    N1220806   0.574   1.058   6.020 -0.4462 -0.1592 -0.0134
   38MOL    C1320807   0.573   0.853   6.169 -0.5355  0.7658  0.8329
   38MOL    C1420808   0.501   0.748   6.231  0.0856 -0.0487  0.4167
   38MOL    O1520809   0.106   0.588   6.178 -0.1695 -0.1419  0.5407
   38MOL    C1620810   0.060   0.380   6.359  0.4263  0.6285 -0.0833
   38MOL    C1720811   0.021   0.305   6.472 -0.2361 -0.2301 -0.3219
   38MOL    O1820812   8.068   0.170   6.703 -0.8111 -0.5526  0.1256
   38MOL    H1920813   0.172   0.484   6.719 -1.1750 -0.2002  0.6672
   38MOL    H2020814   0.262   0.614   6.513 -0.3946  0.1008 -0.7286
   38MOL    H2120815   0.366   0.588   6.350  1.3195 -0.4354 -1.6285
   38MOL    H2220816   0.192   0.834   6.125  0.5221 -1.4069  0.8663
   38MOL    H2320817   0.316   1.016   6.017 -1.4928 -0.6426  0.2659
   38MOL    H2420818   0.591   1.148   6.062  0.0447  0.5606 -1.7082
   38MOL    H2520819   0.678   0.864   6.192  0.5790 -1.9371 -2.5840
   38MOL    H2620820   0.547   0.675   6.296 -0.5113  0.1825  1.1040
   38MOL    H2720821   0.025   0.360   6.259 -0.0887 -1.1043  0.4199
   38MOL    H2820822   8.107   0.215   6.461 -0.1561 -0.2000 -0.9908
   38MOL    H2920823   0.099   0.242   6.783  0.1158 -1.1620 -0.3743
   38MOL    C3020824   0.653   1.035   5.906  0.7137  0.3207 -0.2821
   38MOL    C3120825   0.750   1.148   5.866 -0.2589  0.1323 -0.0969
   38MOL    C3220826   0.880   1.111   5.822 -0.2130  0.0680  0.0062
   38MOL    C3320827   0.980   1.201   5.793  0.0082 -0.1453 -0.4752
   38MOL    C3420828   0.955   1.339   5.801 -0.2238 -0.5339 -0.6358
   38MOL    C3520829   1.059   1.449   5.761  0.0970  0.0015  1.0891
   38MOL    N3620830   1.047   1.571   5.806  0.1650  0.0800 -0.2554
   38MOL    C3720831   1.152   1.659   5.839 -0.4327  0.9168  0.1970
   38MOL    C3820832   1.244   1.700   5.745 -0.5380 -0.0462  0.5286
   38MOL    C3920833   1.340   1.795   5.776 -0.1915  0.1934 -0.2322
   38MOL    C4020834   1.360   1.842   5.906  0.4992 -0.1590  0.2765
   38MOL    N4120835   1.443   1.953   5.941 -0.7453  0.4667 -0.4819
   38MOL    C4220836   1.269   1.797   6.000 -0.4843 -0.0324  0.4850
   38MOL    C4320837   1.166   1.705   5.970 -0.3149 -0.2498  1.0383
   38MOL    O4420838   1.156   1.414   5.695 -0.2861  0.4322 -0.2011
   38MOL    C4520839   0.822   1.381   5.832 -0.4853 -0.3678 -0.2886
   38MOL    C4620840   0.727   1.284   5.877 -0.1473 -0.2406 -0.6575
   38MOL    O4720841   0.660   0.923   5.848  0.1245 -0.1934  0.3374
   38MOL    H4820842   0.892   1.007   5.798  0.6192  0.1759 -0.0542
   38MOL    H4920843   1.070   1.153   5.756  1.5491  1.4365  1.1338
   38MOL    H5020844   0.961   1.583   5.857 -0.1367  0.4849 -0.8463
   38MOL    H5120845   1.244   1.652   5.648  0.5409 -1.5128  1.2255
   38MOL    H5220846   1.412   1.824   5.701  0.5858  0.6009  0.6624
   38MOL    H5320847   1.403   2.009   6.014  1.0086 -0.2170  1.0311
   38MOL    H5420848   1.267   1.839   6.099  1.5885  2.2623 -0.3866
   38MOL    H5520849   1.098   1.669   6.045 -0.5139  1.0948  1.5104
   38MOL    H5620850   0.785   1.482   5.835  2.4271  0.7899 -1.6061
   38MOL    H5720851   0.631   1.320   5.910 -0.3938 -3.3287  2.1765
   38MOL    C5820852   1.554   2.002   5.885 -0.0291  0.4430  0.0458
   38MOL    C5920853   1.605   2.122   5.969 -0.4384  0.8890 -0.5282
   38MOL    C6020854   1.677   2.223   5.909  0.0617 -0.1893  0.0515
   38MOL    C6120855   1.726   2.332   5.985  0.7230  0.0177 -0.4608
   38MOL    C6220856   1.709   2.340   6.123  0.4692 -0.0799  0.5834
   38MOL    C6320857   1.746   2.469   6.198 -0.0390  0.3229 -0.6560
   38MOL    N6420858   1.794   2.457   6.326 -0.4660  0.2986 -0.0547
   38MOL    C6520859   1.857   2.557   6.413 -0.0672  0.8916  0.4173
   38MOL    C6620860   1.898   2.522   6.541 -0.3672  0.1017  0.9484
   38MOL    C6720861   1.973   2.613   6.618 -0.1793 -0.0839  0.1607
   38MOL    C6820862   1.998   2.746   6.570  0.0201  0.7870  0.0816
   38MOL    N6920863   2.081   2.836   6.631 -0.4424 -0.0673 -0.4337
   38MOL    C7020864   1.940   2.780   6.449  0.0925  0.4880  0.6601
   38MOL    C7120865   1.874   2.691   6.371 -0.5868  0.1416 -0.1793
   38MOL    O7220866   1.734   2.573   6.139  0.0433  0.1583 -0.0357
   38MOL    C7320867   1.634   2.238   6.188  0.1537  0.1614 -0.0536
   38MOL    C7420868   1.584   2.129   6.113 -0.3926  0.1416  0.7270
   38MOL    O7520869   1.607   1.961   5.784  0.1354  0.3464 -0.2687
   38MOL    H7620870   1.698   2.213   5.803 -1.7143 -0.5591 -0.2817
   38MOL    H7720871   1.779   2.406   5.926  0.5738  0.2210 -0.3426
   38MOL    H7820872   1.806   2.362   6.358  1.2346  0.5619  0.1284
   38MOL    H7920873   1.874   2.421   6.574  2.0265 -0.4540  1.0318
   38MOL    H8020874   2.012   2.582   6.713 -3.0048  3.7533  2.7136
   38MOL    H8120875   2.123   2.906   6.571 -0.2836  0.5068  0.3430
   38MOL    H8220876   1.963   2.880   6.417 -0.3472  1.1143  2.2461
   38MOL    H8320877   1.865   2.718   6.267  2.9992 -1.8602 -1.0583
   38MOL    H8420878   1.633   2.242   6.296 -0.8800  1.1537 -0.0858
   38MOL    H8520879   1.523   2.057   6.166 -0.8217 -0.4127 -0.5058
   38MOL    C8620880   2.151   2.827   6.746 -1.4117  0.0250  0.0139
   38MOL    C8720881   2.247   2.943   6.757  0.2904  0.3078 -1.3938
   38MOL    C8820882   2.383   2.923   6.758 -0.1983  0.7790  0.0945
   38MOL    C8920883   2.469   3.032   6.762 -0.6058 -0.0040 -1.1646
   38MOL    C9020884   2.417   3.167   6.749  0.1172 -0.1501 -0.0415
   38MOL    C9120885   2.509   3.284   6.732  0.1181  0.2892  0.1521
   38MOL    N9220886   2.628   3.259   6.683  0.1586 -0.3693  0.1427
   38MOL    C9320887   2.718   3.344   6.609 -0.1942  0.0186  0.0740
   38MOL    C9420888   2.855   3.305   6.610 -0.4183 -0.1371 -0.2947
   38MOL    C9520889   2.941   3.381   6.530  1.0766  0.5396  0.3141
   38MOL    C9620890   2.895   3.491   6.456  0.2282 -0.1002 -0.0280
   38MOL    N9720891   2.972   3.559   6.367 -0.3090 -0.2173  0.8549
   38MOL    C9820892   2.756   3.515   6.444  1.1013 -0.7189 -0.1131
   38MOL    C9920893   2.666   3.442   6.524 -0.3050  0.5109 -0.3590
   38MOL   O10020894   2.469   3.396   6.774 -0.4114  0.7687  0.0100
   38MOL   C10120895   2.277   3.185   6.761 -0.1919  0.4893  0.1810
   38MOL   C10220896   2.194   3.073   6.767 -0.7484  0.2316 -0.4591
   38MOL   O10320897   2.138   2.758   6.849  0.8713  0.3334 -0.2879
   38MOL   H10420898   2.426   2.824   6.760 -0.7034  0.5727  1.0552
   38MOL   H10520899   2.574   3.010   6.757 -0.8298 -2.9621  3.8665
   38MOL   H10620900   2.663   3.166   6.699 -1.9356 -1.1238  0.4655
   38MOL   H10720901   2.899   3.225   6.668 -1.7185 -1.0505 -0.5529
   38MOL   H10820902   3.044   3.350   6.524  1.3374  1.9318 -3.2925
   38MOL   H10920903   2.960   3.659   6.375 -2.7463 -0.2190 -1.7786
   38MOL   H11020904   2.722   3.592   6.377 -0.5745 -0.4167  1.0599
   38MOL   H11120905   2.559   3.455   6.518 -0.6314 -1.6194  0.3152
   38MOL   H11220906   2.244   3.287   6.744  0.4133  0.4401 -1.4004
   38MOL   H11320907   2.087   3.084   6.767 -1.0306 -2.3176  0.5531
   38MOL   C11420908   3.036   3.520   6.256 -0.0961  0.4247 -0.1678
   38MOL   C11520909   3.071   3.639   6.170 -0.4136 -0.4345 -0.3573
   38MOL   C11620910   2.971   3.732   6.138 -0.2000 -0.0252  0.2975
   38MOL   C11720911   2.998   3.836   6.056  0.3603 -1.2351 -0.5914
   38MOL   C11820912   3.127   3.872   6.017 -0.5246 -0.1369 -0.5011
   38MOL   C11920913   3.150   3.984   5.918  0.5412  0.1058  0.0990
   38MOL   N12020914   3.216   3.944   5.810  0.2384 -0.1822  0.4290
   38MOL   C12120915   3.254   4.026   5.705  0.5481 -0.4749  0.0479
   38MOL   C12220916   3.202   3.995   5.576 -0.4327  0.0560  0.0017
   38MOL   C12320917   3.223   4.087   5.473 -0.3746  0.2661 -0.1400
   38MOL   C12420918   3.292   4.209   5.496 -0.3866 -0.1476  0.4831
   38MOL   N12520919   3.312   4.288   5.384 -0.2587  0.0180 -0.4763
   38MOL   C12620920   3.338   4.240   5.627  0.1244  0.1667  0.1987
   38MOL   C12720921   3.321   4.148   5.729  0.7470 -0.4117 -0.2189
   38MOL   O12820922   3.089   4.094   5.925  0.0862  0.3436  0.6215
   38MOL   C12920923   3.230   3.783   6.053  0.3007 -0.2597 -0.3261
   38MOL   C13020924   3.203   3.663   6.124 -0.3859 -0.1057  0.0405
   38MOL   O13120925   3.060   3.406   6.223 -0.6002 -0.5343 -0.2798
   38MOL   H13220926   2.866   3.712   6.153 -0.2308 -2.3880 -2.4816
   38MOL   H13320927   2.911   3.887   6.017  0.8110  0.5698  0.6969
   38MOL   H13420928   3.243   3.847   5.817  0.2394 -0.3119 -1.1676
   38MOL   H13520929   3.154   3.900   5.557 -0.9948  0.1882  0.7558
   38MOL   H13620930   3.197   4.053   5.374 -0.2880 -0.3513  0.0459
   38MOL   H13720931   3.270   4.246   5.302  0.1139  0.3960 -0.8620
   38MOL   H13820932   3.382   4.335   5.654 -1.1084  0.6772  0.4551
   38MOL   H13920933   3.358   4.167   5.829  0.2197 -0.5507  0.0064
   38MOL   H14020934   3.328   3.793   6.010 -0.5373 -0.4192 -2.3449
   38MOL   H14120935   3.284   3.595   6.147 -1.3906 -0.8075  1.6421
   38MOL   C14220936   3.351   4.410   5.359 -0.3018  0.4073  0.5383
   38MOL   C14320937   3.313   4.469   5.227 -0.4896  0.2196  0.4901
   38MOL   C14420938   3.242   4.399   5.128 -0.1347 -0.1471  0.6517
   38MOL   C14520939   3.183   4.476   5.027 -0.1661  0.2826  0.1555
   38MOL   C14620940   3.200   4.612   5.007 -0.2431 -0.4880  0.4567
   38MOL   C14720941   3.131   4.681   4.900  0.1554  0.6335  0.7853
   38MOL   N14820942   3.066   4.788   4.940 -0.0965 -0.5131 -0.0712
   38MOL   C14920943   2.971   4.860   4.861 -0.0384  0.7946  0.2742
   38MOL   C15020944   2.890   4.794   4.768 -0.2746  0.3407 -0.3629
   38MOL   C15120945   2.787   4.858   4.694 -0.6569 -0.4115 -0.0120
   38MOL   C15220946   2.769   4.994   4.725  0.7802 -0.8374  0.0698
   38MOL   N15320947   2.667   5.066   4.651 -0.0663  0.4541  0.6020
   38MOL   C15420948   2.857   5.061   4.813  0.6184 -0.1136  1.1217
   38MOL   C15520949   2.957   4.997   4.880 -0.2424  0.3062  0.6150
   38MOL   O15620950   3.146   4.648   4.782 -0.5503  0.2959 -0.3163
   38MOL   C15720951   3.275   4.684   5.100  0.5059 -0.6222  0.5801
   38MOL   C15820952   3.341   4.607   5.208  0.7069  0.0346  0.2516
   38MOL   O15920953   3.419   4.476   5.440 -0.0742 -0.1551  0.1585
   38MOL   H16020954   3.209   4.297   5.144 -2.8969  0.7249  0.6997
   38MOL   H16120955   3.116   4.424   4.961 -0.0352 -0.1294  0.3500
   38MOL   H16220956   3.064   4.804   5.040  0.9800 -3.1345  0.4143
   38MOL   H16320957   2.904   4.690   4.741 -1.1094  0.7651 -2.5445
   38MOL   H16420958   2.727   4.794   4.631 -1.3592 -0.9505  1.1763
   38MOL   H16520959   2.668   5.166   4.638 -1.8513  0.5934  1.3076
   38MOL   H16620960   2.839   5.166   4.830  0.1291 -0.5102  3.2360
   38MOL   H16720961   3.002   5.047   4.965  1.6744 -0.8843  0.3387
   38MOL   H16820962   3.291   4.789   5.079 -1.1614 -0.6508 -1.0328
   38MOL   H16920963   3.410   4.660   5.272  1.7346 -0.0365 -0.7751
   38MOL   C17020964   2.546   5.010   4.612 -0.4727  0.0553 -0.3568
   38MOL   C17120965   2.458   5.105   4.533  0.5303  0.3632  0.3948
   38MOL   C17220966   2.529   5.211   4.466  0.0679  0.1200  0.9136
   38MOL   C17320967   2.454   5.289   4.369 -0.2164 -0.0523 -0.1907
   38MOL   C17420968   2.322   5.254   4.332 -0.6137 -0.1294 -0.3652
   38MOL   C17520969   2.245   5.327   4.230 -0.6416 -0.1239 -0.4536
   38MOL   N17620970   2.135   5.264   4.180 -0.0035  0.5373  0.5573
   38MOL   C17720971   2.049   5.313   4.078  1.0488  0.5622 -0.0383
   38MOL   C17820972   1.922   5.255   4.073  0.1218 -0.2985  0.1008
   38MOL   C17920973   1.823   5.305   3.988  0.1745 -0.9318  0.7321
   38MOL   C18020974   1.850   5.410   3.896 -0.2201 -0.2453  0.2802
   38MOL   N18120975   1.759   5.477   3.813  0.2232  0.1209  0.4044
   38MOL   C18220976   1.980   5.464   3.897 -0.0595  0.3209  0.1733
   38MOL   C18320977   2.081   5.417   3.985  0.0289 -0.1141 -0.7709
   38MOL   O18420978   2.276   5.442   4.202  0.7037 -0.4141  0.0526
   38MOL   C18520979   2.259   5.153   4.405 -0.4528  0.0828 -0.8703
   38MOL   C18620980   2.326   5.079   4.501 -0.5365  0.4041  0.6221
   38MOL   O18720981   2.504   4.897   4.638 -0.2269  0.5233 -0.3526
   38MOL   H18820982   2.633   5.235   4.486 -0.6611  2.1208  2.4849
   38MOL   H18920983   2.500   5.370   4.313 -3.3742 -0.0532 -2.9402
   38MOL   H19020984   2.111   5.172   4.214  1.8105 -0.0651  0.2897
   38MOL   H19120985   1.906   5.172   4.140  0.5282 -1.1944 -0.8811
   38MOL   H19220986   1.723   5.267   3.995 -0.7875  1.5845  1.1862
   38MOL   H19320987   1.793   5.538   3.740 -3.2827  1.5337 -0.1852
   38MOL   H19420988   2.001   5.549   3.833  1.0183 -0.9931 -1.2505
   38MOL   H19520989   2.180   5.461   3.986 -0.1484  0.2949  0.1117
   38MOL   H19620990   2.159   5.118   4.382 -0.0907 -2.4000  1.0909
   38MOL   H19720991   2.270   5.005   4.556  0.0456  1.0066  2.0430
   38MOL   C19820992   1.628   5.453   3.775  0.0407  0.3301 -0.2658
   38MOL   C19920993   1.574   5.516   3.647 -0.0461 -0.1936  0.4910
   38MOL   C20020994   1.447   5.490   3.592  0.4203 -0.0259  0.3282
   38MOL   C20120995   1.406   5.560   3.477  0.4194  0.6462  0.0562
   38MOL   C20220996   1.492   5.654   3.416 -0.2607 -0.1620  0.4098
   38MOL   C20320997   1.451   5.738   3.298 -0.2462 -0.9148 -0.1589
   38MOL   N20420998   1.355   5.822   3.323  0.5572  0.5627 -0.3970
   38MOL   C20520999   1.315   5.934   3.249 -0.3088 -0.5761  0.0608
   38MOL   C20621000   1.303   5.920   3.109  0.3926  0.0399  0.7020
   38MOL   C20721001   1.298   6.037   3.034  0.3309  0.3708 -0.6640
   38MOL   C20821002   1.285   6.163   3.096 -0.6098 -0.7895  0.2878
   38MOL   N20921003   1.272   6.285   3.018 -0.3363 -0.3178  0.7353
   38MOL   C21021004   1.289   6.174   3.234  0.7909  0.5998  0.1413
   38MOL   C21121005   1.302   6.057   3.313 -0.1836  0.6767 -0.3618
   38MOL   O21221006   1.515   5.737   3.192  0.0590  0.4661 -0.5170
   38MOL   C21321007   1.626   5.672   3.463 -0.2937 -0.1909  0.4813
   38MOL   C21421008   1.659   5.604   3.579 -0.1687 -0.5718  0.5778
   38MOL   O21521009   1.552   5.378   3.834  0.1001  0.1235 -0.1154
   38MOL   H21621010   1.379   5.420   3.637  0.1170  0.1595  0.1608
   38MOL   H21721011   1.311   5.538   3.430 -0.4797  0.4081  1.9085
   38MOL   H21821012   1.319   5.821   3.417  0.9823  0.4659 -0.2334
   38MOL   H21921013   1.302   5.824   3.059 -0.8899  0.0526  0.6932
   38MOL   H22021014   1.284   6.029   2.927 -2.0775 -0.0288 -0.3529
   38MOL   H22121015   1.321   6.368   3.048  1.6496 -0.8494 -0.9290
   38MOL   H22221016   1.282   6.271   3.282 -1.9317  1.1193 -1.2187
   38MOL   H22321017   1.308   6.066   3.420  0.8266  1.9631 -0.5129
   38MOL   H22421018   1.699   5.732   3.410  2.6409 -2.5006  1.7948
   38MOL   H22521019   1.758   5.628   3.616 -0.4142 -0.3314  1.0846
   38MOL   C22621020   1.240   6.291   2.888  0.0491  0.3084 -0.3584
   38MOL   C22721021   1.253   6.427   2.825 -0.0211  0.0463 -0.0918
   38MOL   C22821022   1.156   6.485   2.753 -0.4878 -0.2805  0.0374
   38MOL   C22921023   1.186   6.605   2.683  0.4965  0.5103 -0.5273
   38MOL   C23021024   1.309   6.673   2.701  0.1771 -0.0350  0.1801
   38MOL   C23121025   1.328   6.812   2.644 -0.1211 -0.1164 -0.3360
   38MOL   N23221026   1.449   6.843   2.612  0.7666  0.0599  0.5255
   38MOL   C23321027   1.506   6.971   2.611  0.2945  0.4306 -0.1806
   38MOL   C23421028   1.437   7.088   2.569  0.0695  0.0208 -0.2830
   38MOL   C23521029   1.489   7.217   2.594  0.0517  0.7300  0.0570
   38MOL   C23621030   1.614   7.226   2.661 -0.5370  0.0129 -0.7258
   38MOL   N23721031   1.665   7.343   2.725  0.1662 -0.7213 -0.0559
   38MOL   C23821032   1.688   7.109   2.689  0.2963  0.6747  0.3412
   38MOL   C23921033   1.635   6.985   2.667  0.8808  0.2728  0.2668
   38MOL   O24021034   1.230   6.888   2.640 -0.3041  0.1615 -0.5091
   38MOL   C24121035   1.400   6.615   2.783 -0.9913 -0.0307  0.3237
   38MOL   C24221036   1.371   6.496   2.849 -0.2853 -0.5866  0.0813
   38MOL   O24321037   1.188   6.199   2.826 -0.2759  0.0840 -0.3310
   38MOL   H24421038   1.062   6.432   2.749 -1.0756  0.7370  0.1095
   38MOL   H24521039   1.112   6.663   2.631  0.5644 -0.3896 -1.6545
   38MOL   H24621040   1.515   6.767   2.620 -0.5962 -1.3989 -1.4980
   38MOL   H24721041   1.341   7.090   2.519 -0.6301 -2.0106  0.9158
   38MOL   H24821042   1.436   7.304   2.557  1.2782  0.7019 -1.8837
   38MOL   H24921043   1.725   7.332   2.805  1.5483 -2.4436 -1.3070
   38MOL   H25021044   1.782   7.117   2.741 -0.2482  2.9055  1.0598
   38MOL   H25121045   1.687   6.896   2.697  0.7140  0.5482  1.3892
   38MOL   H25221046   1.498   6.658   2.795 -0.3962 -1.3613  0.2294
   38MOL   H25321047   1.451   6.448   2.903 -0.0484 -0.1126  0.1475
   38MOL   C25421048   1.648   7.474   2.695 -0.5128 -0.3141 -0.4703
   38MOL   C25521049   1.738   7.568   2.766  0.1331 -0.3195 -0.4118
   38MOL   C25621050   1.736   7.579   2.910 -0.0292 -0.0958 -0.3327
   38MOL   C25721051   1.824   7.667   2.969 -0.6003 -0.4159 -0.3671
   38MOL   C25821052   1.917   7.741   2.895  0.3433 -0.2546  0.0621
   38MOL   C25921053   2.029   7.822   2.960  0.4637 -0.2569  0.6515
   38MOL   N26021054   1.987   7.943   3.011  0.4137 -0.3825 -0.0779
   38MOL   C26121055   2.070   8.054   3.050 -0.1765 -0.1150  0.5381
   38MOL   C26221056   2.178   8.031   3.130 -0.5182 -0.7113  0.2360
   38MOL   C26321057   2.254   8.140   3.176 -0.0453  0.3930  0.0709
   38MOL   C26421058   2.236   0.129   3.140  0.0394 -0.2340 -0.2314
   38MOL   N26521059   2.312   0.238   3.191  0.1138  0.4022 -0.1001
   38MOL   C26621060   2.125   0.151   3.048 -0.0419 -0.1969  0.1101
   38MOL   C26721061   2.043   0.038   3.003  0.0587 -0.1742 -0.6723
   38MOL   O26821062   2.145   7.779   2.947  0.5860 -0.1385 -0.1325
   38MOL   C26921063   1.916   7.732   2.755  0.1339 -0.5875  0.1793
   38MOL   C27021064   1.826   7.645   2.689 -0.8295 -0.7077 -0.1504
   38MOL   O27121065   1.569   7.520   2.613 -0.5952  0.5835  0.0727
   38MOL   H27221066   1.665   7.527   2.973  0.4707 -1.2677 -0.7188
   38MOL   H27321067   1.834   7.674   3.076 -0.4629 -2.8789 -0.1886
   38MOL   H27421068   1.889   7.967   3.003  0.6095  0.2705 -0.5041
   38MOL   H27521069   2.204   7.934   3.170  0.9395 -0.6112 -0.4380
   38MOL   H27621070   2.340   8.115   3.237  1.2394  1.9420 -1.0538
   38MOL   H27721071   2.350   0.219   3.283 -1.8030 -0.8104  0.4680
   38MOL   H27821072   2.109   0.252   3.012 -1.8757 -0.0595  1.2019
   38MOL   H27921073   1.958   0.059   2.939 -1.1648  0.6527  1.1564
   38MOL   H28021074   1.997   7.777   2.699 -0.7728  0.9954  0.1204
   38MOL   H28121075   1.833   7.636   2.582 -2.9614  2.2813 -0.6142
   38MOL   C28221076   2.381   0.326   3.121  0.5195  0.3239  0.0895
   38MOL   C28321077   2.490   0.405   3.192  0.0295 -0.4470 -0.1893
   38MOL   C28421078   2.580   0.334   3.280  0.5399 -0.4769  0.0294
   38MOL   C28521079   2.696   0.399   3.326 -0.6808 -0.5681  0.1910
   38MOL   C28621080   2.724   0.537   3.291 -1.1771  0.1371  0.2685
   38MOL   C28721081   2.857   0.604   3.307 -0.9641  0.8569  0.6577
   38MOL   N28821082   2.914   0.597   3.431  0.5113 -0.1752  0.5329
   38MOL   C28921083   2.869   0.542   3.547 -0.7401  0.2169  0.5067
   38MOL   C29021084   2.964   0.494   3.639 -0.0755  0.4026  0.5865
   38MOL   C29121085   2.926   0.443   3.763  0.5986  0.0752 -0.1299
   38MOL   C29221086   2.788   0.437   3.801 -0.4625  0.5279  0.4575
   38MOL   N29321087   2.750   0.385   3.929 -0.3553  0.2564  0.1444
   38MOL   C29421088   2.697   0.495   3.714 -0.6020  0.3083  0.2531
   38MOL   C29521089   2.737   0.543   3.590  0.5682 -0.2416  0.4714
   38MOL   O29621090   2.909   0.653   3.209  0.5659  0.3322  0.0373
   38MOL   C29721091   2.627   0.598   3.220 -0.3711 -0.6909  0.7270
   38MOL   C29821092   2.509   0.543   3.163 -0.2707 -0.3123  0.3744
   38MOL   O29921093   2.343   0.355   3.003 -0.4282  0.0357 -0.1578
   38MOL   H30021094   2.572   0.228   3.298 -0.7187 -0.2684  0.7630
   38MOL   H30121095   2.771   0.338   3.374 -0.1421 -2.3093 -2.7182
   38MOL   H30221096   3.010   0.628   3.424  0.3160  0.7408  1.8454
   38MOL   H30321097   3.070   0.502   3.619  0.3394 -0.3109  2.4537
   38MOL   H30421098   2.996   0.404   3.834 -0.3173 -2.8968 -0.7653
   38MOL   H30521099   2.822   0.395   3.999 -1.3152  0.8547  1.0674
   38MOL   H30621100   2.591   0.497   3.737 -0.9747 -0.2617 -1.3677
   38MOL   H30721101   2.651   0.584   3.538  1.1177  1.0047  0.5321
   38MOL   H30821102   2.643   0.704   3.215  0.0862 -0.8311 -1.5121
   38MOL   H30921103   2.434   0.588   3.099 -1.0658 -0.0881  1.4325
   38MOL   C31021104   2.629   0.332   3.976 -0.0535 -0.1238  0.0508
   38MOL   C31121105   2.546   0.262   3.875  0.5944 -0.0356  0.1157
   38MOL   C31221106   2.401   0.264   3.894 -0.5290  0.4079  0.3411
   38MOL   C31321107   2.315   0.187   3.812 -0.2547  0.5341  0.5101
   38MOL   C31421108   2.369   0.112   3.704 -0.3710 -0.1825 -0.5937
   38MOL   C31521109   2.277   0.032   3.614  0.3925  0.2784  0.1215
   38MOL   N31621110   2.330   8.059   3.572  0.5836  0.4654  0.1947
   38MOL   C31721111   2.266   7.937   3.519  0.7265  0.1983  0.1581
   38MOL   C31821112   2.335   7.815   3.527 -0.0852  0.1187 -0.4086
   38MOL   C31921113   2.284   7.699   3.459  0.0588  1.4129  0.3821
   38MOL   C32021114   2.167   7.708   3.385 -0.3352 -0.3126 -0.5845
   38MOL   N32121115   2.115   7.600   3.313 -0.1750  0.0818 -0.1499
   38MOL   C32221116   2.094   7.830   3.386  1.0403  0.1726 -0.2588
   38MOL   C32321117   2.143   7.944   3.457  0.3840  0.0079  0.4825
   38MOL   O32421118   2.159   0.067   3.592 -0.5335  0.3333  0.5080
   38MOL   C32521119   2.509   0.109   3.686  0.1708  0.2421  0.4671
   38MOL   C32621120   2.602   0.176   3.774 -0.6748 -0.2641 -0.3671
   38MOL   O32721121   2.598   0.350   4.092 -0.0862 -0.1281  0.1235
   38MOL   H32821122   2.364   0.322   3.977 -1.2076  1.8995 -0.9891
   38MOL   H32921123   2.210   0.169   3.832  0.4446 -2.0495  1.9946
   38MOL   H33021124   2.430   8.048   3.583  0.5132  0.0874  0.4594
   38MOL   H33121125   2.424   7.813   3.588  1.4621  0.9417 -2.5990
   38MOL   H33221126   2.332   7.603   3.475 -0.3449  0.6533 -2.6722
   38MOL   H33321127   2.014   7.608   3.315 -0.2001 -0.4045  0.6999
   38MOL   H33421128   2.001   7.848   3.335  1.8774  3.4963 -0.7270
   38MOL   H33521129   2.087   8.035   3.440  1.5349  0.6167 -0.1187
   38MOL   H33621130   2.558   0.060   3.604 -1.3870  0.1340 -0.4155
   38MOL   H33721131   2.708   0.158   3.768 -0.2694  1.5969  0.7388
   38MOL   C33821132   2.164   7.480   3.273 -0.0755 -0.2656 -0.2459
   38MOL   C33921133   2.312   7.457   3.281  0.5379 -0.1014 -0.4820
   38MOL   C34021134   2.362   7.363   3.372  0.0258  0.6984 -0.3983
   38MOL   C34121135   2.498   7.323   3.361 -0.1342 -0.6736 -0.0702
   38MOL   C34221136   2.589   7.392   3.278  0.6328 -0.2080  0.9087
   38MOL   C34321137   2.731   7.339   3.272  0.8083 -0.4020  0.5520
   38MOL   N34421138   2.821   7.413   3.210  0.2342  0.3413 -0.2137
   38MOL   C34521139   2.960   7.393   3.227  0.3491  0.5315  0.7996
   38MOL   C34621140   3.022   7.423   3.346  0.1580 -0.7960 -0.5719
   38MOL   C34721141   3.159   7.439   3.352  0.0681  0.2151 -0.5294
   38MOL   C34821142   3.241   7.383   3.248  0.3365  0.5285  0.0973
   38MOL   N34921143   3.380   7.396   3.278  0.3197 -0.3042  0.6253
   38MOL   C35021144   3.175   7.328   3.136  0.7669  0.1543 -0.3006
   38MOL   C35121145   3.036   7.340   3.117 -0.0055 -0.0516  0.7050
   38MOL   O35221146   2.766   7.225   3.317  0.1503 -0.0506  0.5493
   38MOL   C35321147   2.539   7.490   3.190  0.2317  0.2655 -0.9200
   38MOL   C35421148   2.401   7.518   3.194 -0.2050  0.1081  0.6120
   38MOL   O35521149   2.092   7.389   3.252 -0.3455 -0.3975  0.6354
   38MOL   H35621150   2.287   7.314   3.433 -1.0272  0.0819 -2.1459
   38MOL   H35721151   2.535   7.242   3.423  1.1772  1.4408  1.9596
   38MOL   H35821152   2.800   7.500   3.162  3.6414 -0.1892 -2.8877
   38MOL   H35921153   2.968   7.453   3.434 -1.2689 -2.7759 -0.7554
   38MOL   H36021154   3.201   7.486   3.439 -0.9156  2.7654 -1.3942
   38MOL   H36121155   3.403   7.434   3.369  0.1709  1.0523  0.1150
   38MOL   H36221156   3.232   7.296   3.050  0.8999  1.8119 -0.8354
   38MOL   H36321157   2.988   7.318   3.023 -1.5234 -0.6011  1.6004
   38MOL   H36421158   2.597   7.551   3.122  1.1442 -0.3125 -0.6739
   38MOL   H36521159   2.364   7.601   3.136 -1.9905 -0.0173  1.5399
   38MOL   C36621160   3.482   7.406   3.191 -0.5180  0.1615 -0.1386
   38MOL   C36721161   3.617   7.419   3.252  0.2234 -0.9472  0.0966
   38MOL   C36821162   3.663   7.337   3.363  0.4699  0.2234  0.2775
   38MOL   C36921163   3.798   7.356   3.405 -0.7149 -0.0361 -0.1140
   38MOL   C37021164   3.881   7.451   3.353  0.3566  0.0506  0.0129
   38MOL   C37121165   4.017   7.485   3.408  0.1282  0.3156 -0.0666
   38MOL   N37221166   4.074   7.402   3.495 -0.0796 -0.1810  0.3058
   38MOL   C37321167   4.198   7.397   3.571  0.2972 -0.4598 -0.0471
   38MOL   C37421168   4.277   7.515   3.586 -0.0594  1.0345  0.1484
   38MOL   C37521169   4.383   7.514   3.674  0.1729 -0.4746  0.1445
   38MOL   C37621170   4.405   7.403   3.760 -0.8030  0.1584 -0.7384
   38MOL   N37721171   4.489   7.414   3.877 -0.5563  0.2526  0.1107
   38MOL   C37821172   4.332   7.283   3.736 -0.3321 -0.2218 -0.2538
   38MOL   C37921173   4.227   7.279   3.643  0.1922  0.4825  0.0836
   38MOL   O38021174   4.072   7.587   3.378 -0.0961  0.6085 -0.5871
   38MOL   C38121175   3.838   7.519   3.238 -0.1188  0.5178 -0.1329
   38MOL   C38221176   3.708   7.505   3.183 -0.7921 -0.0479  0.0113
   38MOL   O38321177   3.466   7.387   3.071  0.4876  0.1425 -0.2830
   38MOL   H38421178   3.604   7.262   3.413 -1.6769  2.7578  1.5967
   38MOL   H38521179   3.834   7.296   3.488  0.2149 -0.9839 -1.1913
   38MOL   H38621180   4.025   7.317   3.516 -0.3521  0.6083  3.0026
   38MOL   H38721181   4.256   7.608   3.534 -0.2336 -0.4573 -2.5122
   38MOL   H38821182   4.427   7.613   3.680 -0.2688 -0.2785  0.1414
   38MOL   H38921183   4.567   7.478   3.873  0.7573 -1.3549 -0.6036
   38MOL   H39021184   4.361   7.195   3.791 -0.4945 -0.6879 -0.9169
   38MOL   H39121185   4.165   7.192   3.625 -2.8474  2.8035 -0.9969
   38MOL   H39221186   3.903   7.572   3.170 -0.3712  1.0058 -0.0007
   38MOL   H39321187   3.686   7.549   3.087 -1.3339 -1.5789 -0.5898
   38MOL   C39421188   4.442   7.380   4.000  0.1517 -0.6393 -0.4691
   38MOL   C39521189   4.485   7.469   4.111  0.1606 -0.1713 -0.1290
   38MOL   C39621190   4.397   7.490   4.224 -0.1067 -0.0038  0.6399
   38MOL   C39721191   4.435   7.566   4.334 -0.7940  0.0234 -0.2836
   38MOL   C39821192   4.569   7.621   4.341  1.4138 -0.4113 -0.8461
   38MOL   C39921193   4.622   7.702   4.452  0.1120  0.1106 -0.2489
   38MOL   N40021194   4.530   7.749   4.540 -0.2182  1.0175  0.7364
   38MOL   C40121195   4.530   7.881   4.586  0.1044  0.2893 -0.0512
   38MOL   C40221196   4.645   7.949   4.624 -0.3380 -0.0780 -0.2217
   38MOL   C40321197   4.633   8.082   4.668  0.2325  0.1853  0.2119
   38MOL   C40421198   4.518   0.014   4.642 -0.2513 -0.1119  0.4926
   38MOL   N40521199   4.518   0.158   4.669  0.0311  0.0527 -0.9899
   38MOL   C40621200   4.402   8.091   4.594 -0.5383  0.1092  0.2470
   38MOL   C40721201   4.407   7.954   4.569 -0.1054  0.0721 -0.3622
   38MOL   O40821202   4.741   7.734   4.451 -0.5443 -0.0867 -0.4425
   38MOL   C40921203   4.655   7.595   4.237  0.2250  0.8549 -0.5628
   38MOL   C41021204   4.617   7.526   4.122  0.2871  0.9791  0.0596
   38MOL   O41121205   4.352   7.307   4.036 -0.6174  0.0364 -0.4611
   38MOL   H41221206   4.298   7.446   4.230 -0.1961  0.1520  0.3355
   38MOL   H41321207   4.362   7.571   4.414  0.7574  2.1289  1.0764
   38MOL   H41421208   4.440   7.706   4.531  0.0583  1.0217 -3.1521
   38MOL   H41521209   4.741   7.903   4.638 -0.5704 -0.0853  1.5122
   38MOL   H41621210   4.717   8.126   4.720  1.8108 -2.7933  0.3079
   38MOL   H41721211   4.610   0.197   4.655  0.2202 -1.1384 -3.2001
   38MOL   H41821212   4.304   8.135   4.593 -1.0729 -1.0480  0.0494
   38MOL   H41921213   4.318   7.903   4.537 -0.4312  0.2672  0.2237
   38MOL   H42021214   4.757   7.628   4.240  0.3550  0.4452 -0.4439
   38MOL   H42121215   4.690   7.510   4.043  1.0769  0.6238  0.8535
   38MOL   C42221216   4.404   0.237   4.699 -0.3735  0.2732 -0.3185
   38MOL   C42321217   4.415   0.388   4.672  0.2467 -0.0800  0.3063
   38MOL   C42421218   4.303   0.468   4.676 -0.1225  0.3045  0.1062
   38MOL   C42521219   4.304   0.606   4.656  0.4577 -0.4846 -0.2717
   38MOL   C42621220   4.424   0.668   4.610 -0.2549  0.4559 -0.1687
   38MOL   C42721221   4.423   0.808   4.551  0.1485  1.0783 -0.1284
   38MOL   N42821222   4.450   0.813   4.421  0.3237  0.7559 -0.3666
   38MOL   C42921223   4.447   0.921   4.325 -0.3492 -0.6563  0.0355
   38MOL   C43021224   4.418   0.890   4.188  0.3539 -0.3087 -0.2299
   38MOL   C43121225   4.391   0.996   4.095  0.1821 -0.7802 -0.2083
   38MOL   C43221226   4.398   1.133   4.140  0.0204  0.0221  0.4196
   38MOL   N43321227   4.369   1.241   4.052  0.2983 -0.5097  0.5582
   38MOL   C43421228   4.440   1.159   4.269  0.4116  0.2856 -0.3223
   38MOL   C43521229   4.465   1.057   4.364 -0.6289  0.5003 -0.7537
   38MOL   O43621230   4.394   0.909   4.630  0.3715  0.1478  0.1606
   38MOL   C43721231   4.543   0.592   4.608 -0.5764  0.3592 -0.2788
   38MOL   C43821232   4.540   0.455   4.646 -0.1766  0.7561  0.2766
   38MOL   O43921233   4.301   0.182   4.743  0.0023 -0.5852 -0.0853
   38MOL   H44021234   4.212   0.415   4.698  0.4856 -0.2461  1.3639
   38MOL   H44121235   4.212   0.662   4.662 -1.0892 -2.7247 -2.2867
   38MOL   H44221236   4.465   0.723   4.378 -2.3418 -0.0371  0.2830
   38MOL   H44321237   4.396   0.791   4.151 -1.2996  0.0592 -0.2842
   38MOL   H44421238   4.343   0.968   4.002 -0.2182 -0.0519 -0.2208
   38MOL   H44521239   4.376   1.336   4.086  0.6982  0.1584 -1.3517
   38MOL   H44621240   4.459   1.261   4.300  0.8868 -0.1445  0.8261
   38MOL   H44721241   4.502   1.093   4.459 -1.0400 -1.7601  0.2916
   38MOL   H44821242   4.632   0.646   4.577 -0.0343  0.4856  1.4542
   38MOL   H44921243   4.636   0.407   4.655 -1.0937 -1.8524 -2.9537
   38MOL   C45021244   4.371   1.238   3.918  0.1711  0.2426 -0.2957
   38MOL   C45121245   4.323   1.363   3.853 -0.2610 -0.4652  0.5695
   38MOL   C45221246   4.219   1.358   3.757  0.0324  1.1781  0.2249
   38MOL   C45321247   4.206   1.477   3.679  0.1630  0.2696 -0.2199
   38MOL   C45421248   4.279   1.597   3.692  0.5830 -0.2681  0.3114
   38MOL   C45521249   4.247   1.713   3.601 -0.2085  0.3915  0.4677
   38MOL   N45621250   4.164   1.694   3.493 -0.2446  0.8249  0.3477
   38MOL   C45721251   4.092   1.799   3.424  0.5269 -0.5667  0.3205
   38MOL   C45821252   4.081   1.936   3.460 -0.1876  0.5142  0.3194
   38MOL   C45921253   3.989   2.018   3.394 -0.3667 -1.4742 -0.8529
   38MOL   C46021254   3.920   1.966   3.285 -0.1994  0.4525 -0.2208
   38MOL   N46121255   3.830   2.055   3.227 -0.2573  0.1839 -0.2927
   38MOL   C46221256   3.929   1.827   3.249  0.1251  0.5220 -0.3646
   38MOL   C46321257   4.013   1.742   3.324 -0.0987  0.1274  0.8037
   38MOL   O46421258   4.293   1.819   3.631 -0.1961  0.3677 -0.4996
   38MOL   C46521259   4.372   1.600   3.800 -0.3568  0.4605 -0.8041
   38MOL   C46621260   4.392   1.483   3.882 -0.6337  0.1629 -0.6112
   38MOL   O46721261   4.404   1.141   3.848 -0.3313  0.1599 -0.5796
   38MOL   H46821262   4.154   1.273   3.744 -0.1887  1.4028 -0.1386
   38MOL   H46921263   4.126   1.470   3.607 -0.1231  1.9113 -0.0867
   38MOL   H47021264   4.145   1.597   3.473 -1.1159  0.8227  1.1852
   38MOL   H47121265   4.140   1.979   3.539 -1.0462  1.2445  0.5673
   38MOL   H47221266   3.977   2.116   3.437 -0.0607 -1.6063 -0.4653
   38MOL   H47321267   3.838   2.146   3.272  2.2622  0.7978 -1.8599
   38MOL   H47421268   3.870   1.787   3.168  0.8875  1.1472 -1.2323
   38MOL   H47521269   4.024   1.639   3.296 -1.0923  0.1149  0.4481
   38MOL   H47621270   4.429   1.691   3.813  1.3278 -0.6939  0.0833
   38MOL   H47721271   4.470   1.486   3.956 -1.5760 -1.2638  0.4585
   38MOL   C47821272   3.724   2.025   3.143 -0.6785 -0.0454 -0.5449
   38MOL   C47921273   3.623   2.134   3.124  0.4810  0.0901  0.1275
   38MOL   C48021274   3.545   2.133   3.008  0.0049 -0.4685  0.2866
   38MOL   C48121275   3.468   2.246   2.978  0.1773 -0.7610 -0.3866
   38MOL   C48221276   3.468   2.363   3.060 -0.0161  1.0295  0.5520
   38MOL   C48321277   3.406   2.486   3.016  0.2752 -0.4148  0.7867
   38MOL   N48421278   3.416   2.521   2.888  0.7552  0.9625 -0.1761
   38MOL   C48521279   3.391   2.651   2.843  0.1976  0.3051  0.3102
   38MOL   C48621280   3.318   2.662   2.720 -0.1369  0.4856 -0.3149
   38MOL   C48721281   3.290   2.789   2.661  0.4271  0.3089  0.2157
   38MOL   C48821282   3.326   2.908   2.728  0.2606 -0.2246 -0.3202
   38MOL   N48921283   3.295   3.026   2.659 -0.5023 -0.1961  0.1625
   38MOL   C49021284   3.405   2.901   2.846 -0.4313  0.2506  0.7154
   38MOL   C49121285   3.432   2.777   2.906 -0.0644  0.2312 -0.6549
   38MOL   O49221286   3.359   2.557   3.102  0.6128  0.1862  0.7245
   38MOL   C49321287   3.536   2.354   3.188 -0.4909 -0.2395 -0.1365
   38MOL   C49421288   3.616   2.239   3.213  0.2650 -0.2960 -0.0880
   38MOL   O49521289   3.717   1.930   3.070 -0.3441 -0.0597 -0.0738
   38MOL   H49621290   3.544   2.058   2.931 -1.9495 -1.1313  0.9250
   38MOL   H49721291   3.432   2.234   2.877  0.6606  1.0488 -0.7904
   38MOL   H49821292   3.461   2.456   2.824 -0.1301 -0.1963  0.3550
   38MOL   H49921293   3.280   2.582   2.657  0.2235 -0.9974  1.3159
   38MOL   H50021294   3.239   2.780   2.565 -0.0570  1.4675  0.3505
   38MOL   H50121295   3.259   3.011   2.566  0.6637 -1.8461 -0.0383
   38MOL   H50221296   3.446   2.987   2.897  2.2987 -0.2169 -0.6087
   38MOL   H50321297   3.491   2.778   2.997  0.2153 -1.7596 -0.7746
   38MOL   H50421298   3.533   2.439   3.254  1.6956  1.0084 -1.5680
   38MOL   H50521299   3.682   2.246   3.298  1.3529  0.3361 -0.9518
   38MOL   C50621300   3.334   3.154   2.675  0.0023 -0.4526  0.3941
   38MOL   C50721301   3.349   3.205   2.817  0.2052 -0.1320  0.1999
   38MOL   C50821302   3.473   3.257   2.865 -0.5385 -0.1626  0.8614
   38MOL   C50921303   3.493   3.282   3.002  0.6858  0.0778 -0.8083
   38MOL   C51021304   3.388   3.243   3.092 -0.3071 -0.1625 -0.3086
   38MOL   C51121305   3.412   3.253   3.244 -0.4714  0.7604  0.4771
   38MOL   N51221306   3.375   3.142   3.310 -0.8794  0.3767  0.4812
   38MOL   C51321307   3.418   3.075   3.426 -0.1108 -0.3052 -0.0534
   38MOL   C51421308   3.493   3.132   3.532  0.0548 -0.5671  0.0710
   38MOL   C51521309   3.525   3.061   3.645  0.4729 -1.1332  0.0864
   38MOL   C51621310   3.471   2.932   3.670 -0.0970  0.2366  0.1328
   38MOL   N51721311   3.492   2.876   3.796 -1.0575 -0.0663 -0.1242
   38MOL   C51821312   3.399   2.875   3.566  0.6837 -0.0081  0.4436
   38MOL   C51921313   3.368   2.949   3.452  0.1705 -0.3566  0.0334
   38MOL   O52021314   3.473   3.341   3.301 -0.1767 -0.4113  0.1527
   38MOL   C52121315   3.261   3.194   3.046  0.8688  0.1731  0.5926
   38MOL   C52221316   3.244   3.181   2.908 -0.4019 -0.2120  0.5938
   38MOL   O52321317   3.357   3.222   2.578  0.1313  0.1978 -0.0153
   38MOL   H52421318   3.555   3.280   2.798 -0.3630 -1.8185  0.4912
   38MOL   H52521319   3.592   3.296   3.043  0.2003 -0.2070  0.4813
   38MOL   H52621320   3.320   3.086   3.246 -1.6840  2.1398 -0.3985
   38MOL   H52721321   3.531   3.232   3.517 -0.2234 -0.2175  1.6047
   38MOL   H52821322   3.594   3.105   3.716  2.0182 -0.7045 -1.6690
   38MOL   H52921323   3.485   2.941   3.873 -0.9440 -0.4306  0.1914
   38MOL   H53021324   3.362   2.773   3.571  1.7477 -0.4473 -0.4763
   38MOL   H53121325   3.301   2.907   3.378 -0.5444 -0.1672  0.5625
   38MOL   H53221326   3.188   3.158   3.117 -0.6277  0.6271 -0.7083
   38MOL   H53321327   3.154   3.140   2.864 -1.1064  1.8704  0.0035
   38MOL   C53421328   3.548   2.754   3.815 -0.5176  0.8784 -0.0538
   38MOL   C53521329   3.566   2.717   3.957 -0.1596 -0.6762 -0.8086
   38MOL   C53621330   3.684   2.646   4.001  0.4237  0.0415  0.2606
   38MOL   C53721331   3.692   2.603   4.134  0.1669  0.2496 -0.5499
   38MOL   C53821332   3.595   2.643   4.231 -0.3741 -0.3536  0.2729
   38MOL   C53921333   3.618   2.594   4.368  0.3525 -1.2467  0.3767
   38MOL   N54021334   3.672   2.472   4.374 -0.8661  0.0115 -0.2921
   38MOL   C54121335   3.687   2.396   4.498  0.2940 -0.0055  0.0420
   38MOL   C54221336   3.801   2.317   4.524 -0.5062 -0.0153 -0.1286
   38MOL   C54321337   3.812   2.240   4.644  0.0044  0.0155 -0.0179
   38MOL   C54421338   3.702   2.231   4.730  0.9020  0.2577 -0.2151
   38MOL   N54521339   3.702   2.137   4.835 -0.5145  0.3931  0.6194
   38MOL   C54621340   3.594   2.321   4.713  0.3068 -0.2846  0.6786
   38MOL   C54721341   3.586   2.398   4.596  0.5505 -0.1690 -0.4431
   38MOL   O54821342   3.586   2.670   4.460  0.7106 -0.2347 -0.5886
   38MOL   C54921343   3.491   2.727   4.188 -0.1428  0.0550  0.3085
   38MOL   C55021344   3.474   2.756   4.054  0.6554 -0.8253  0.0631
   38MOL   O55121345   3.585   2.680   3.725 -0.6591 -0.0894  0.1659
   38MOL   H55221346   3.754   2.610   3.928 -0.9090 -0.1372 -0.9446
   38MOL   H55321347   3.780   2.545   4.156  1.4869  2.6450  0.6917
   38MOL   H55421348   3.690   2.417   4.291  0.1749  0.4991 -0.3929
   38MOL   H55521349   3.884   2.328   4.456 -0.9536  0.7483 -0.5591
   38MOL   H55621350   3.904   2.184   4.647 -0.0918 -0.1203  0.5773
   38MOL   H55721351   3.770   2.062   4.845 -0.7637  0.6150  4.9423
   38MOL   H55821352   3.512   2.322   4.784 -0.0339  0.2632  0.2905
   38MOL   H55921353   3.498   2.461   4.594  0.2163 -0.5019  2.3541
   38MOL   H56021354   3.427   2.766   4.265 -0.9515 -0.2296 -0.2235
   38MOL   H56121355   3.390   2.822   4.037  0.0888 -1.2196  1.2793
   38MOL   H56221356   3.611   2.098   4.854 -1.0186  0.2870 -1.8651
   39MOL     C121357   4.713   2.282   0.008 -0.0966  0.2398  0.5107
   39MOL     C221358   4.674   2.313   8.009 -0.4030 -0.6918  0.0529
   39MOL     C321359   4.536   2.342   7.981 -0.2219  0.1316  0.3051
   39MOL     C421360   4.492   2.347   7.845  0.0206  0.6629  1.3908
   39MOL     C521361   4.583   2.325   7.741  0.3194  0.5656  0.1889
   39MOL     C621362   4.542   2.329   7.594  0.1689 -0.6612 -0.2403
   39MOL     N721363   4.410   2.290   7.575 -0.7179 -0.3486  0.8087
   39MOL     C821364   4.328   2.281   7.457 -0.6775 -0.1779 -0.6627
   39MOL     C921365   4.197   2.328   7.461  0.3416  1.0973 -0.0078
   39MOL    C1021366   4.130   2.330   7.339  0.1139  0.4577  0.2496
   39MOL    C1121367   4.192   2.291   7.216  0.2562 -0.6040 -0.2137
   39MOL    N1221368   4.116   2.303   7.093  0.1374 -0.5546  0.2474
   39MOL    C1321369   4.322   2.242   7.218 -0.0432  0.3728  0.4410
   39MOL    C1421370   4.385   2.222   7.343  0.7579 -0.1214  0.2091
   39MOL    O1521371   4.624   2.350   7.509  0.3196 -0.6482  0.2296
   39MOL    C1621372   4.720   2.301   7.774 -0.3056  0.0217  0.6160
   39MOL    C1721373   4.760   2.292   7.905 -0.4931 -0.1140 -0.4103
   39MOL    O1821374   4.638   2.302   0.103 -0.3878 -0.5886 -0.3498
   39MOL    H1921375   4.455   2.343   8.052 -0.2723  0.7912  0.2473
   39MOL    H2021376   4.386   2.367   7.835 -0.3039 -1.3506  0.4665
   39MOL    H2121377   4.355   2.281   7.659 -2.9248 -0.2462 -0.5858
   39MOL    H2221378   4.159   2.365   7.554  2.1451  1.1838  0.7138
   39MOL    H2321379   4.036   2.382   7.324 -0.0803 -0.0179 -0.1910
   39MOL    H2421380   4.173   2.332   7.014  2.2007 -0.3562  1.7518
   39MOL    H2521381   4.374   2.218   7.127  1.3878 -0.0494  1.3541
   39MOL    H2621382   4.485   2.181   7.345 -0.0331 -2.1851 -0.6617
   39MOL    H2721383   4.788   2.283   7.693 -0.4098  0.5294  0.4103
   39MOL    H2821384   4.863   2.265   7.921 -0.5698 -0.7068 -0.8940
   39MOL    H2921385   4.807   2.232   0.032  0.2306  0.9384  0.6872
   39MOL    C3021386   3.978   2.273   7.082  0.2124 -0.1270  0.8638
   39MOL    C3121387   3.908   2.305   6.951 -0.3320 -0.4990 -0.1466
   39MOL    C3221388   3.965   2.405   6.869 -0.9329 -0.9135 -0.3291
   39MOL    C3321389   3.910   2.433   6.745  0.4388  0.4968  0.8474
   39MOL    C3421390   3.801   2.360   6.698  0.1960 -0.0464  0.2775
   39MOL    C3521391   3.750   2.387   6.556 -0.1156 -0.4415  0.9075
   39MOL    N3621392   3.816   2.481   6.485 -0.4132  0.2067  0.5267
   39MOL    C3721393   3.784   2.549   6.364 -0.1571  1.1219  0.3587
   39MOL    C3821394   3.882   2.644   6.333  0.4348 -0.5181 -0.1852
   39MOL    C3921395   3.870   2.721   6.216  0.4096  0.1228 -0.4108
   39MOL    C4021396   3.753   2.705   6.138 -0.3768 -0.3356  0.0938
   39MOL    N4121397   3.725   2.788   6.023  0.7587 -0.4812  0.5061
   39MOL    C4221398   3.654   2.615   6.176  0.0847 -0.1046 -0.0963
   39MOL    C4321399   3.672   2.533   6.289  0.2119  0.5165  0.7312
   39MOL    O4421400   3.656   2.325   6.506  0.0799 -0.3863  0.1070
   39MOL    C4521401   3.738   2.269   6.779  0.0249 -0.2714  0.2433
   39MOL    C4621402   3.791   2.243   6.911 -0.0039 -0.1514  0.7052
   39MOL    O4721403   3.907   2.233   7.171 -0.2034  0.2607 -0.3142
   39MOL    H4821404   4.055   2.460   6.893 -1.6528  0.0200  0.2760
   39MOL    H4921405   3.959   2.513   6.693 -1.5276  0.8932 -0.4424
   39MOL    H5021406   3.898   2.519   6.530  0.5336 -1.0107 -0.1335
   39MOL    H5121407   3.971   2.668   6.391  0.2925 -1.9415  0.6506
   39MOL    H5221408   3.951   2.789   6.196  0.5752 -0.1232 -0.5706
   39MOL    H5321409   3.644   2.848   6.028  0.5353 -0.6242 -0.9746
   39MOL    H5421410   3.560   2.614   6.124 -0.3204 -1.9846  0.6275
   39MOL    H5521411   3.590   2.470   6.318  0.4882  0.5904  1.6856
   39MOL    H5621412   3.651   2.212   6.749  0.6460  0.1918 -2.6068
   39MOL    H5721413   3.741   2.161   6.960 -1.5090  0.9868  1.1238
   39MOL    C5821414   3.816   2.842   5.940 -0.1759  0.4279 -0.9668
   39MOL    C5921415   3.771   2.957   5.858  0.2320  1.1675  0.3896
   39MOL    C6021416   3.647   3.027   5.882  0.5763  0.5821 -0.3571
   39MOL    C6121417   3.605   3.126   5.790 -0.3025 -0.0524 -0.0499
   39MOL    C6221418   3.681   3.158   5.678 -0.2290 -0.3237  1.0579
   39MOL    C6321419   3.632   3.261   5.573  0.0019 -0.5370 -0.1073
   39MOL    N6421420   3.729   3.316   5.498  0.8453 -0.0766  0.0747
   39MOL    C6521421   3.717   3.347   5.359 -0.4615  0.0881  0.3421
   39MOL    C6621422   3.610   3.436   5.309 -0.4405  0.0217 -0.1936
   39MOL    C6721423   3.597   3.457   5.171 -0.0401  0.1920  0.7946
   39MOL    C6821424   3.689   3.399   5.078  0.0950 -0.3764  0.1000
   39MOL    N6921425   3.682   3.415   4.938  0.3042  0.1464 -0.7205
   39MOL    C7021426   3.792   3.320   5.124 -0.6137  0.5408 -0.6715
   39MOL    C7121427   3.811   3.290   5.262  0.7051  0.4914  0.3527
   39MOL    O7221428   3.513   3.289   5.564 -0.0053  0.0481 -0.4584
   39MOL    C7321429   3.809   3.101   5.664 -0.0623  0.3265  0.6783
   39MOL    C7421430   3.852   3.008   5.756 -0.7270  0.5895  0.1734
   39MOL    O7521431   3.929   2.798   5.926 -0.2318 -0.0422 -0.6206
   39MOL    H7621432   3.569   2.993   5.949  0.8701  1.2439  0.3303
   39MOL    H7721433   3.504   3.161   5.808 -0.0729  0.8533 -0.5083
   39MOL    H7821434   3.821   3.283   5.526  0.2231 -0.4818  1.7299
   39MOL    H7921435   3.546   3.487   5.380  1.1641  2.1086 -0.1720
   39MOL    H8021436   3.513   3.520   5.148 -1.2559 -1.5658  0.2475
   39MOL    H8121437   3.769   3.421   4.887  2.0177  0.1527  2.1515
   39MOL    H8221438   3.865   3.268   5.064  0.0410 -1.1686  1.5388
   39MOL    H8321439   3.885   3.215   5.283 -0.5969 -0.7493  0.5667
   39MOL    H8421440   3.873   3.131   5.582  0.7435 -0.0992  1.1476
   39MOL    H8521441   3.948   2.964   5.734 -2.0932 -1.4346 -2.0475
   39MOL    C8621442   3.575   3.435   4.857  0.3366  0.7053 -0.4269
   39MOL    C8721443   3.599   3.449   4.712 -0.1135  0.6488  0.3829
   39MOL    C8821444   3.716   3.510   4.669  0.2971 -0.4053  0.1934
   39MOL    C8921445   3.731   3.539   4.530  0.1573  0.5421  0.6273
   39MOL    C9021446   3.629   3.507   4.439 -0.1962 -0.4406 -0.4232
   39MOL    C9121447   3.663   3.525   4.293  0.0598 -0.1183 -0.2678
   39MOL    N9221448   3.579   3.611   4.239  0.6798  0.4605  0.2045
   39MOL    C9321449   3.582   3.661   4.108  0.5002  0.3055  0.6266
   39MOL    C9421450   3.463   3.718   4.055  0.0046 -0.4088  0.1559
   39MOL    C9521451   3.467   3.791   3.933  0.7432  0.0751 -0.4145
   39MOL    C9621452   3.591   3.805   3.862  0.2007 -0.4552 -0.4083
   39MOL    N9721453   3.602   3.889   3.753 -0.6634  0.1151 -0.2098
   39MOL    C9821454   3.700   3.726   3.905 -0.6879 -0.8546  0.2067
   39MOL    C9921455   3.699   3.672   4.032  1.1819  0.5709  0.0459
   39MOL   O10021456   3.758   3.467   4.240 -0.5372  0.1472 -0.2164
   39MOL   C10121457   3.515   3.444   4.485 -0.8995  0.1121 -0.0410
   39MOL   C10221458   3.495   3.415   4.623 -0.4549  0.0935 -0.2009
   39MOL   O10321459   3.464   3.448   4.905  0.6606  0.0169  0.2363
   39MOL   H10421460   3.790   3.549   4.736 -0.2515  0.6172  0.2063
   39MOL   H10521461   3.825   3.582   4.502  0.3533 -1.1734 -1.4740
   39MOL   H10621462   3.491   3.632   4.285  0.0638 -2.3178  0.3982
   39MOL   H10721463   3.364   3.708   4.097 -0.1312 -1.9926 -0.5320
   39MOL   H10821464   3.380   3.827   3.881  0.1880  2.5822  2.1185
   39MOL   H10921465   3.526   3.881   3.686  0.4753  0.4214 -1.5513
   39MOL   H11021466   3.794   3.724   3.851 -0.3220 -0.2551  0.8203
   39MOL   H11121467   3.784   3.625   4.077  1.3655  0.5586 -0.3150
   39MOL   H11221468   3.438   3.401   4.422 -1.5656  0.1298  0.7460
   39MOL   H11321469   3.408   3.364   4.661  0.7352 -0.4193  1.9493
   39MOL   C11421470   3.710   3.958   3.723 -0.2349 -0.4083 -0.4047
   39MOL   C11521471   3.798   4.003   3.837  0.3939 -0.1584 -0.5111
   39MOL   C11621472   3.925   3.943   3.861 -0.9689  0.3109 -0.2043
   39MOL   C11721473   3.984   3.959   3.986 -0.7072  0.0518 -0.4258
   39MOL   C11821474   3.931   4.041   4.080  0.1778  0.1594  0.4187
   39MOL   C11921475   4.009   4.081   4.198 -0.4698 -0.2987  0.3353
   39MOL   N12021476   4.036   3.978   4.285 -0.0886 -0.4606 -0.6769
   39MOL   C12121477   4.084   3.978   4.412 -0.4675 -0.2969  0.0795
   39MOL   C12221478   4.075   3.857   4.482  0.1336  0.2207  0.6049
   39MOL   C12321479   4.132   3.850   4.612 -0.2972  0.1677 -0.0643
   39MOL   C12421480   4.197   3.956   4.677 -0.0251 -0.2114 -0.2336
   39MOL   N12521481   4.234   3.931   4.804 -0.9801  0.3352 -0.4271
   39MOL   C12621482   4.208   4.075   4.609  0.4979 -0.3926 -0.7631
   39MOL   C12721483   4.157   4.084   4.473  0.1778 -0.4866 -0.0922
   39MOL   O12821484   4.027   4.204   4.215  0.0556 -0.2547 -0.5024
   39MOL   C12921485   3.812   4.112   4.056 -0.6150  0.8912  0.5067
   39MOL   C13021486   3.744   4.085   3.937 -0.0042  0.1164 -0.6863
   39MOL   O13121487   3.731   3.986   3.608 -0.0153  0.0098 -0.1878
   39MOL   H13221488   3.984   3.887   3.790 -0.5767 -2.2797  2.1199
   39MOL   H13321489   4.081   3.916   4.005 -0.5253  0.8006  0.3722
   39MOL   H13421490   4.016   3.888   4.243  2.3021 -0.4143 -2.0227
   39MOL   H13521491   4.026   3.768   4.446  1.3346  0.8095 -2.6723
   39MOL   H13621492   4.114   3.756   4.661 -2.1387  1.0137  0.9116
   39MOL   H13721493   4.189   3.851   4.847  0.7758 -0.5905 -0.2605
   39MOL   H13821494   4.276   4.152   4.644  1.7919 -1.8277 -0.0645
   39MOL   H13921495   4.174   4.175   4.416  1.7022 -0.5003  0.3053
   39MOL   H14021496   3.777   4.175   4.136 -1.0954 -1.0147  1.8405
   39MOL   H14121497   3.651   4.138   3.922 -0.3866 -0.3670 -0.0668
   39MOL   C14221498   4.316   4.005   4.877  0.7615  1.0371  0.3932
   39MOL   C14321499   4.317   3.961   5.021  0.0066 -0.5558 -0.7600
   39MOL   C14421500   4.204   3.898   5.082  0.9190  0.6992  0.7188
   39MOL   C14521501   4.212   3.858   5.217  0.0028  0.3230  0.5435
   39MOL   C14621502   4.330   3.887   5.298  0.3785  0.4432 -0.6422
   39MOL   C14721503   4.340   3.830   5.438 -0.4548 -0.3409 -0.0932
   39MOL   N14821504   4.396   3.918   5.521  0.3559  0.0718 -0.3211
   39MOL   C14921505   4.416   3.897   5.659  0.0045 -0.2922  0.6109
   39MOL   C15021506   4.527   3.962   5.723  0.0993 -0.8070  0.0017
   39MOL   C15121507   4.549   3.948   5.857 -0.3584 -0.5154  0.0748
   39MOL   C15221508   4.475   3.851   5.937 -0.4273 -0.2448 -0.4799
   39MOL   N15321509   4.513   3.823   6.069 -0.6380 -0.0472 -0.3318
   39MOL   C15421510   4.371   3.775   5.874  0.5032  0.2058 -0.2642
   39MOL   C15521511   4.344   3.808   5.739  0.2435  0.2687 -0.4445
   39MOL   O15621512   4.305   3.717   5.469 -0.1796 -0.0925 -0.0520
   39MOL   C15721513   4.437   3.958   5.236 -0.0709 -0.0568  0.3986
   39MOL   C15821514   4.433   3.991   5.097  0.0588  0.1431  0.4179
   39MOL   O15921515   4.390   4.097   4.839 -0.3041 -0.1778 -0.1570
   39MOL   H16021516   4.118   3.870   5.024  0.8637 -1.1652  1.6553
   39MOL   H16121517   4.125   3.809   5.258  0.1869 -0.8413 -0.4375
   39MOL   H16221518   4.438   4.000   5.479  2.2977  0.2827  1.9486
   39MOL   H16321519   4.594   4.030   5.672  0.5836 -0.2946  1.2919
   39MOL   H16421520   4.635   3.999   5.897  0.7145 -1.6943 -0.6821
   39MOL   H16521521   4.492   3.728   6.098 -0.2091 -0.3877 -1.1314
   39MOL   H16621522   4.298   3.716   5.927  1.7421 -0.4008  0.7975
   39MOL   H16721523   4.249   3.773   5.700  0.1945  0.9157 -0.9136
   39MOL   H16821524   4.529   3.978   5.289  0.8200 -1.6655 -0.5224
   39MOL   H16921525   4.517   4.033   5.042 -0.4581  1.3370  0.5158
   39MOL   C17021526   4.553   3.911   6.166  0.1275 -0.9400 -0.9320
   39MOL   C17121527   4.565   3.844   6.301  0.5744  1.3772  0.2501
   39MOL   C17221528   4.511   3.718   6.330  0.8029 -0.3259 -0.0688
   39MOL   C17321529   4.554   3.654   6.445  0.0993 -0.5313 -0.3132
   39MOL   C17421530   4.641   3.712   6.542  0.0763  0.7599  0.4601
   39MOL   C17521531   4.699   3.633   6.658  0.9596  1.0746  0.1123
   39MOL   N17621532   4.660   3.680   6.775  0.5469 -0.0987  0.0455
   39MOL   C17721533   4.701   3.627   6.893 -0.4220  0.5828  0.4208
   39MOL   C17821534   4.780   3.710   6.973  0.7599  0.1439 -0.1439
   39MOL   C17921535   4.811   3.675   7.106  0.2501 -0.5137 -0.3124
   39MOL   C18021536   4.767   3.552   7.161  0.1620 -0.0672  0.2092
   39MOL   N18121537   4.798   3.509   7.297 -0.1268  0.2303 -1.3255
   39MOL   C18221538   4.694   3.463   7.075 -0.0384  0.1445  0.0469
   39MOL   C18321539   4.665   3.499   6.939  0.0805 -0.3954  0.0090
   39MOL   O18421540   4.757   3.525   6.645 -0.2356  0.5491  0.1055
   39MOL   C18521541   4.687   3.844   6.518 -0.0559  0.3781  0.0639
   39MOL   C18621542   4.651   3.907   6.397 -0.3756  0.5514 -0.0040
   39MOL   O18721543   4.561   4.035   6.144  0.1411  0.5166  0.1871
   39MOL   H18821544   4.450   3.661   6.262 -0.8691  0.3353  0.8551
   39MOL   H18921545   4.519   3.552   6.458 -0.8734 -0.2526 -0.7261
   39MOL   H19021546   4.616   3.770   6.780 -1.7662 -1.2754  1.5393
   39MOL   H19121547   4.820   3.802   6.932  1.0383  0.3650  0.6070
   39MOL   H19221548   4.870   3.734   7.175 -1.8649 -1.3998  2.3796
   39MOL   H19321549   4.801   3.410   7.314  2.6459  0.1862 -1.9485
   39MOL   H19421550   4.664   3.372   7.125  1.4824 -0.9074 -0.9089
   39MOL   H19521551   4.615   3.436   6.866 -1.1784 -0.1484  0.6501
   39MOL   H19621552   4.754   3.896   6.585  1.1450  0.9591 -1.5555
   39MOL   H19721553   4.690   4.007   6.388  1.5888 -0.2328 -0.3739
   39MOL   C19821554   4.801   3.581   7.411  0.5433  0.0578 -1.4568
   39MOL   C19921555   4.827   3.506   7.538 -0.6822 -0.3661  0.2583
   39MOL   C20021556   4.959   3.500   7.587 -0.0046 -0.0045  0.7348
   39MOL   C20121557   4.983   3.441   7.708  0.4102 -0.2410 -0.1479
   39MOL   C20221558   4.886   3.371   7.779  0.0366 -0.3524  0.0846
   39MOL   C20321559   4.921   3.305   7.912  0.2639  0.6176 -0.1746
   39MOL   N20421560   4.840   3.205   7.951  0.2361 -0.1840 -0.3455
   39MOL   C20521561   4.863   3.109   8.052  0.1294 -0.1148  0.1101
   39MOL   C20621562   4.989   3.043   8.058  0.1051 -0.7051 -0.2651
   39MOL   C20721563   5.020   2.949   0.014 -0.4700  0.9405 -0.0329
   39MOL   C20821564   4.921   2.927   0.114  0.8737  0.2414 -0.0943
   39MOL   N20921565   4.945   2.831   0.218 -0.2326 -0.5677 -0.2101
   39MOL   C21021566   4.790   2.981   0.100 -1.0759 -0.4554 -0.5019
   39MOL   C21121567   4.765   3.076   8.145  0.3229 -0.0122  0.5993
   39MOL   O21221568   5.023   3.340   7.970 -0.0677  0.6313 -0.6053
   39MOL   C21321569   4.748   3.372   7.723 -0.6374 -0.0187 -0.4793
   39MOL   C21421570   4.721   3.445   7.606 -0.0053 -0.6290  0.4592
   39MOL   O21521571   4.777   3.698   7.422  0.0323 -0.1598  0.3921
   39MOL   H21621572   5.041   3.555   7.542  2.0248 -0.0372  4.2451
   39MOL   H21721573   5.083   3.455   7.746 -0.0152  2.2901  0.1724
   39MOL   H21821574   4.746   3.204   7.914  0.1280 -1.4922 -0.0706
   39MOL   H21921575   5.062   3.063   7.980 -1.1470  1.2994 -0.9655
   39MOL   H22021576   5.121   2.911   0.019 -0.3528  1.4834  2.3449
   39MOL   H22121577   4.858   2.790   0.249 -0.7636  0.2712 -0.5798
   39MOL   H22221578   4.712   2.959   0.171 -1.1471 -1.2419 -0.8216
   39MOL   H22321579   4.666   3.118   0.007  0.2765 -0.1490  0.7500
   39MOL   H22421580   4.671   3.323   7.782  0.6681  0.8879  2.0542
   39MOL   H22521581   4.623   3.444   7.560  0.3715 -0.0606 -0.3632
   39MOL   C22621582   5.061   2.803   0.280 -0.2025 -0.3074 -0.3016
   39MOL   C22721583   5.044   2.691   0.382 -0.9053  0.2163 -0.1989
   39MOL   C22821584   5.142   2.681   0.487  0.5418  0.4240  0.3337
   39MOL   C22921585   5.124   2.580   0.579 -0.2285  0.9323  0.2960
   39MOL   C23021586   5.038   2.473   0.563  0.6705  0.3003 -0.3567
   39MOL   C23121587   5.056   2.349   0.646 -0.1185  0.2914  0.8900
   39MOL   N23221588   4.949   2.298   0.708 -0.4907  0.3215  0.1393
   39MOL   C23321589   4.936   2.194   0.805  0.3820  0.4076 -0.3768
   39MOL   C23421590   4.812   2.180   0.870 -0.1810  0.4431  0.2358
   39MOL   C23521591   4.788   2.087   0.971 -0.2707 -0.0367 -0.5141
   39MOL   C23621592   4.895   2.016   1.024  0.5375  0.4099 -0.2608
   39MOL   N23721593   4.872   1.933   1.138 -0.5102 -0.0455  0.9056
   39MOL   C23821594   5.018   2.026   0.959  0.1963  0.2096  0.5287
   39MOL   C23921595   5.038   2.114   0.851 -0.0224  0.4668  0.2050
   39MOL   O24021596   5.172   2.311   0.656 -0.4563 -0.4703  0.8271
   39MOL   C24121597   4.945   2.481   0.457  0.2862 -0.0714  0.1981
   39MOL   C24221598   4.945   2.588   0.362  0.3623 -0.3074 -0.0796
   39MOL   O24321599   5.164   2.861   0.276 -0.4110  0.1410  0.2749
   39MOL   H24421600   5.223   2.749   0.509  2.5982 -1.3276 -1.4254
   39MOL   H24521601   5.202   2.560   0.652 -1.0366  1.4685  1.3223
   39MOL   H24621602   4.857   2.330   0.680 -0.9868 -1.3829 -0.1979
   39MOL   H24721603   4.725   2.229   0.829 -0.7301  1.0324  2.0856
   39MOL   H24821604   4.692   2.064   1.015 -0.3751  1.0415 -0.1649
   39MOL   H24921605   4.804   1.974   1.200 -1.8421 -1.0369  0.1247
   39MOL   H25021606   5.111   1.978   0.986  0.2817  0.2777  0.3556
   39MOL   H25121607   5.141   2.115   0.816 -0.4795 -0.0636 -1.1868
   39MOL   H25221608   4.867   2.406   0.452  2.0751 -1.8825 -1.6455
   39MOL   H25321609   4.871   2.592   0.283 -0.6383 -0.3241  0.8519
   39MOL   C25421610   4.951   1.836   1.186 -0.3197 -0.0010  0.6001
   39MOL   C25521611   4.964   1.826   1.334  0.4573 -0.3539  0.5568
   39MOL   C25621612   4.958   1.943   1.416 -0.3035  0.4674  0.0822
   39MOL   C25721613   5.004   1.939   1.549 -0.4028  0.4120 -1.0911
   39MOL   C25821614   5.080   1.828   1.596 -0.4979  0.3461 -0.2196
   39MOL   C25921615   5.156   1.826   1.730 -0.0926  0.9068 -0.5930
   39MOL   N26021616   5.228   1.719   1.766 -0.4387 -0.1858 -0.0551
   39MOL   C26121617   5.347   1.725   1.844 -0.6113  0.0268  0.2235
   39MOL   C26221618   5.459   1.795   1.796  0.8213  0.6072 -0.4959
   39MOL   C26321619   5.576   1.802   1.877  0.0454  0.2348 -0.0440
   39MOL   C26421620   5.580   1.737   2.003 -0.4832  0.0997 -0.4434
   39MOL   N26521621   5.678   1.748   2.101  0.6052  0.1654 -0.4105
   39MOL   C26621622   5.465   1.664   2.047  0.3864  0.7803 -0.3698
   39MOL   C26721623   5.355   1.652   1.963  0.5102 -0.0238 -0.4038
   39MOL   O26821624   5.154   1.925   1.798 -0.2131  0.4349 -0.2745
   39MOL   C26921625   5.084   1.711   1.514 -0.6035 -0.2916  0.7065
   39MOL   C27021626   5.032   1.712   1.388  0.4348 -0.1048 -0.3489
   39MOL   O27121627   5.007   1.758   1.111  0.8016 -0.3796  0.3675
   39MOL   H27221628   4.928   2.040   1.378  0.2730  0.6256  0.0279
   39MOL   H27321629   5.009   2.027   1.612  0.9052  0.5863 -1.4177
   39MOL   H27421630   5.206   1.632   1.719 -2.7745 -1.5109  3.2292
   39MOL   H27521631   5.456   1.852   1.704 -1.0764  0.5753 -0.4560
   39MOL   H27621632   5.662   1.860   1.845 -0.4935  0.8280 -0.4309
   39MOL   H27721633   5.691   1.664   2.156 -2.0051 -1.7112 -2.5199
   39MOL   H27821634   5.461   1.609   2.140 -1.8114 -1.3872 -1.6742
   39MOL   H27921635   5.271   1.593   1.996 -1.0815  2.1004 -0.5507
   39MOL   H28021636   5.132   1.619   1.541  1.1557  0.1682 -0.7925
   39MOL   H28121637   5.059   1.627   1.327 -2.9924 -0.3495 -1.5992
   39MOL   C28221638   5.769   1.849   2.117 -0.0554 -0.1194 -0.3957
   39MOL   C28321639   5.722   1.991   2.098  0.0258 -0.3702 -0.1018
   39MOL   C28421640   5.592   2.037   2.138  0.1937 -0.4404 -0.8519
   39MOL   C28521641   5.566   2.175   2.123  0.2857 -0.5947 -0.5611
   39MOL   C28621642   5.657   2.263   2.066  0.2134  0.2208 -0.0665
   39MOL   C28721643   5.619   2.404   2.050  0.2118  0.5382  0.9130
   39MOL   N28821644   5.604   2.443   1.920 -0.0683  0.3467 -0.5927
   39MOL   C28921645   5.531   2.545   1.866  0.1073 -0.2934  0.1456
   39MOL   C29021646   5.524   2.570   1.724  0.4054  0.0823 -0.4040
   39MOL   C29121647   5.430   2.651   1.660  0.5561  0.6002  0.6672
   39MOL   C29221648   5.321   2.704   1.739  0.1571 -0.4197  0.3380
   39MOL   N29321649   5.204   2.765   1.680  0.0762 -0.1817  0.4670
   39MOL   C29421650   5.333   2.694   1.882 -0.1837 -1.0248  0.1977
   39MOL   C29521651   5.432   2.609   1.945 -0.2032  0.1747  0.4496
   39MOL   O29621652   5.617   2.485   2.144 -0.1631 -0.1314 -0.1615
   39MOL   C29721653   5.783   2.220   2.025 -0.0186 -0.0595  0.4986
   39MOL   C29821654   5.815   2.089   2.050 -0.2181  0.5391 -0.4426
   39MOL   O29921655   5.884   1.824   2.143  0.6994 -0.5176  0.0438
   39MOL   H30021656   5.513   1.972   2.174 -0.7113  1.5224  0.7969
   39MOL   H30121657   5.467   2.209   2.151 -0.1846 -1.0399 -1.6849
   39MOL   H30221658   5.651   2.375   1.862 -1.3130 -1.6890  0.7132
   39MOL   H30321659   5.593   2.525   1.655 -0.9502  0.4018 -1.9837
   39MOL   H30421660   5.424   2.657   1.552  1.0269 -1.4386  0.5077
   39MOL   H30521661   5.188   2.735   1.585 -0.4089  0.2868  0.3967
   39MOL   H30621662   5.246   2.728   1.935 -0.6144 -0.5879 -0.7763
   39MOL   H30721663   5.417   2.579   2.048 -3.5709 -0.4815 -0.1926
   39MOL   H30821664   5.854   2.283   1.974 -0.0546 -0.7740 -0.4319
   39MOL   H30921665   5.913   2.054   2.024 -1.2619 -2.6378 -0.3666
   39MOL   C31021666   5.115   2.857   1.727  0.1715 -0.0892  0.5977
   39MOL   C31121667   4.983   2.865   1.655 -0.1007 -0.4175 -0.1928
   39MOL   C31221668   4.951   2.993   1.600  0.2112  0.7650 -0.1967
   39MOL   C31321669   4.819   3.014   1.549  0.3580  0.2715 -0.1538
   39MOL   C31421670   4.723   2.908   1.547  0.0417  0.0779 -0.3890
   39MOL   C31521671   4.581   2.928   1.497 -0.1775 -0.2343 -0.4929
   39MOL   N31621672   4.556   3.036   1.419 -0.3538  0.2517  0.2995
   39MOL   C31721673   4.432   3.082   1.367 -0.3133 -0.2288 -0.5561
   39MOL   C31821674   4.415   3.229   1.370  0.3156  0.4493 -0.2976
   39MOL   C31921675   4.298   3.284   1.309 -0.0145  0.2103 -0.0942
   39MOL   C32021676   4.217   3.206   1.226 -0.2124  0.0120 -0.0108
   39MOL   N32121677   4.114   3.270   1.150  0.2661 -0.5614  0.5111
   39MOL   C32221678   4.241   3.068   1.223 -0.2069 -0.8185  0.5230
   39MOL   C32321679   4.345   3.000   1.292  0.4544 -0.2854  0.6683
   39MOL   O32421680   4.489   2.848   1.528 -0.2608 -0.2792  0.6622
   39MOL   C32521681   4.758   2.785   1.601 -0.0876  0.1878  0.8410
   39MOL   C32621682   4.890   2.761   1.653  0.0345 -0.0902  0.2660
   39MOL   O32721683   5.144   2.933   1.818  0.1952  0.3148  0.2495
   39MOL   H32821684   5.029   3.066   1.607  0.7069  0.1735  0.5693
   39MOL   H32921685   4.795   3.110   1.506 -0.1387  0.2358  0.0325
   39MOL   H33021686   4.634   3.095   1.397 -0.4582 -0.1601 -1.2486
   39MOL   H33121687   4.489   3.293   1.417  1.8829 -0.5011 -1.4049
   39MOL   H33221688   4.278   3.388   1.333 -1.2076  0.1466 -0.8026
   39MOL   H33321689   4.023   3.255   1.192  1.0766 -0.4020  2.3586
   39MOL   H33421690   4.178   3.013   1.154 -1.7041 -1.4588  2.3687
   39MOL   H33521691   4.358   2.893   1.298 -1.5471 -0.6283 -0.5951
   39MOL   H33621692   4.683   2.708   1.610  0.4423 -0.6842 -1.8469
   39MOL   H33721693   4.921   2.667   1.697 -0.5218 -0.6810 -0.6011
   39MOL   C33821694   4.136   3.362   1.054  0.1680 -0.3858  0.4239
   39MOL   C33921695   4.024   3.460   1.031 -0.1587 -0.0590 -0.2699
   39MOL   C34021696   3.985   3.509   0.898 -0.0398 -0.1431 -0.8973
   39MOL   C34121697   3.893   3.611   0.888 -0.0410 -0.4530  0.5029
   39MOL   C34221698   3.819   3.662   0.999 -0.1134  0.9583 -0.1109
   39MOL   C34321699   3.713   3.767   0.988 -0.4855 -0.0358  0.1329
   39MOL   N34421700   3.651   3.800   0.877  0.1530  0.5172 -0.6225
   39MOL   C34521701   3.541   3.898   0.859  0.2899  0.2873  0.2791
   39MOL   C34621702   3.561   4.005   0.765  0.2081  0.3230  0.9072
   39MOL   C34721703   3.457   4.098   0.759  0.0704 -0.6425 -0.3189
   39MOL   C34821704   3.334   4.079   0.831  0.4369  0.4503  0.6303
   39MOL   N34921705   3.234   4.182   0.836 -0.2490 -0.0240  0.4543
   39MOL   C35021706   3.322   3.971   0.923 -0.6510 -0.0034 -0.4209
   39MOL   C35121707   3.423   3.878   0.932 -0.5289  0.2743  0.0896
   39MOL   O35221708   3.677   3.838   1.082  0.6419  0.8394 -0.5060
   39MOL   C35321709   3.870   3.618   1.123  0.2578 -0.0260 -0.2904
   39MOL   C35421710   3.967   3.521   1.142  0.9254 -0.2226 -0.2386
   39MOL   O35521711   4.241   3.367   0.986  0.2486  0.1684 -0.1831
   39MOL   H35621712   4.030   3.479   0.804 -0.7338 -0.4407 -1.1404
   39MOL   H35721713   3.865   3.657   0.794  1.8998 -0.4637 -0.1045
   39MOL   H35821714   3.683   3.751   0.795 -2.3352  0.9317 -1.8781
   39MOL   H35921715   3.645   4.005   0.697 -1.4044  0.5341 -1.1336
   39MOL   H36021716   3.469   4.186   0.699 -1.4874 -1.2906 -1.6222
   39MOL   H36121717   3.255   4.261   0.894 -0.7135 -0.4572  1.2178
   39MOL   H36221718   3.231   3.954   0.979  1.0816  1.0812  2.9030
   39MOL   H36321719   3.406   3.794   0.998 -1.0493 -2.3743 -3.3143
   39MOL   H36421720   3.827   3.668   1.209  1.4926  1.4639 -0.5287
   39MOL   H36521721   3.996   3.497   1.243  2.3531  0.8435 -0.3881
   39MOL   C36621722   3.114   4.172   0.789  1.1139  0.0028  0.4902
   39MOL   C36721723   3.017   4.281   0.830 -0.4425 -0.0009 -0.2284
   39MOL   C36821724   2.961   4.357   0.728  0.3198  1.0322  0.1214
   39MOL   C36921725   2.884   4.468   0.765  0.0033 -0.5914 -0.3733
   39MOL   C37021726   2.862   4.501   0.898 -0.6110  0.1146  0.0197
   39MOL   C37121727   2.797   4.630   0.942  0.2690 -0.3862  0.9836
   39MOL   N37221728   2.734   4.635   1.057  0.2623  0.0940 -0.3351
   39MOL   C37321729   2.667   4.749   1.111  0.5377  0.2921 -0.4262
   39MOL   C37421730   2.634   4.871   1.047 -0.5088  0.6691 -0.4435
   39MOL   C37521731   2.596   4.983   1.125 -0.5521 -0.0512 -0.3104
   39MOL   C37621732   2.567   4.966   1.259  0.1933 -0.0534  0.0119
   39MOL   N37721733   2.533   5.073   1.343 -0.0843 -0.7986 -0.2633
   39MOL   C37821734   2.578   4.840   1.320  0.4802  0.6362 -0.1399
   39MOL   C37921735   2.632   4.735   1.247 -0.3260  0.0047  0.0786
   39MOL   O38021736   2.790   4.721   0.860 -0.5890 -0.2248  0.4005
   39MOL   C38121737   2.915   4.422   1.005 -0.4577  0.3192  0.5985
   39MOL   C38221738   2.992   4.310   0.973  0.9666  0.2316  0.3863
   39MOL   O38321739   3.066   4.078   0.715 -0.2156  0.0227  0.4716
   39MOL   H38421740   2.977   4.327   0.625 -1.1960  0.2057  0.1157
   39MOL   H38521741   2.851   4.530   0.683 -0.1956  0.7809  0.7199
   39MOL   H38621742   2.738   4.547   1.107  0.4760  0.7490  0.8264
   39MOL   H38721743   2.654   4.894   0.943 -2.7388  1.3341 -0.7652
   39MOL   H38821744   2.587   5.077   1.073  2.0656  0.1621 -0.4622
   39MOL   H38921745   2.516   5.050   1.440  3.4187 -3.8398 -0.2738
   39MOL   H39021746   2.552   4.816   1.422 -1.5128 -0.0166 -0.7863
   39MOL   H39121747   2.643   4.641   1.300 -1.7487  0.0361  0.4520
   39MOL   H39221748   2.921   4.447   1.110 -2.2220 -1.2821  1.1011
   39MOL   H39321749   3.040   4.253   1.050  0.5373 -0.7722 -0.0814
   39MOL   C39421750   2.512   5.205   1.317 -0.3121 -0.1904  0.0907
   39MOL   C39521751   2.486   5.288   1.442  0.4052 -0.5053  0.0557
   39MOL   C39621752   2.519   5.236   1.567  0.1583 -0.1660  0.5481
   39MOL   C39721753   2.501   5.312   1.688  0.2594 -1.0648 -0.2700
   39MOL   C39821754   2.451   5.439   1.674 -0.4120  0.1117  0.1741
   39MOL   C39921755   2.423   5.527   1.794  0.0060 -0.2661 -0.2009
   39MOL   N40021756   2.507   5.511   1.902 -0.0306 -0.0535 -0.4227
   39MOL   C40121757   2.646   5.472   1.895  0.3193 -0.2904 -0.5117
   39MOL   C40221758   2.696   5.387   1.997  0.3283  0.2006  0.4421
   39MOL   C40321759   2.821   5.327   1.994 -0.0176  1.1193  0.0735
   39MOL   C40421760   2.906   5.379   1.893 -0.9101 -0.1144  0.4031
   39MOL   N40521761   3.037   5.324   1.877 -0.1881 -0.1243  0.2394
   39MOL   C40621762   2.865   5.479   1.796  0.6787  0.1755  0.1645
   39MOL   C40721763   2.735   5.522   1.796  0.8621  0.0872  0.4473
   39MOL   O40821764   2.321   5.595   1.798 -0.2495  0.6016 -0.2150
   39MOL   C40921765   2.428   5.495   1.547  0.4807  0.3642 -0.1456
   39MOL   C41021766   2.449   5.424   1.436  0.2223 -1.1546  0.3634
   39MOL   O41121767   2.528   5.260   1.207  0.5616  0.1404  0.0270
   39MOL   H41221768   2.561   5.138   1.584  0.5282  0.1342  1.3747
   39MOL   H41321769   2.524   5.269   1.784 -0.0470 -1.2199 -0.2654
   39MOL   H41421770   2.492   5.589   1.964  1.1888 -0.7812  0.8239
   39MOL   H41521771   2.627   5.356   2.075  1.5089 -1.6552  0.7994
   39MOL   H41621772   2.848   5.254   2.069  0.8905  0.9853 -0.3793
   39MOL   H41721773   3.047   5.224   1.890  2.1022  0.2569  1.5751
   39MOL   H41821774   2.928   5.508   1.713 -0.7159 -0.8433 -1.2671
   39MOL   H41921775   2.706   5.595   1.722 -1.0369 -1.2435 -0.1564
   39MOL   H42021776   2.395   5.598   1.537 -1.3051 -0.1013  0.7259
   39MOL   H42121777   2.439   5.472   1.339 -0.5278  0.2251  1.1214
   39MOL   C42221778   3.151   5.398   1.883 -0.2642  0.5370  0.2879
   39MOL   C42321779   3.280   5.319   1.866  0.2939 -0.4728 -0.6236
   39MOL   C42421780   3.285   5.185   1.824  0.5170  0.6422  0.1242
   39MOL   C42521781   3.408   5.121   1.802  0.4047  0.4806 -0.0036
   39MOL   C42621782   3.533   5.181   1.845 -0.0112 -0.8845 -0.0545
   39MOL   C42721783   3.661   5.097   1.833  0.0547 -0.4129  0.2067
   39MOL   N42821784   3.774   5.135   1.901  0.4781  0.3416 -0.5321
   39MOL   C42921785   3.885   5.049   1.931 -0.0751 -0.3245 -1.3099
   39MOL   C43021786   3.874   4.911   1.935 -0.1006  0.5438 -0.4853
   39MOL   C43121787   3.981   4.829   1.961 -0.4782  0.6402 -0.5217
   39MOL   C43221788   4.109   4.881   1.985 -1.0285 -0.2078 -1.2424
   39MOL   N43321789   4.209   4.787   2.030  0.5499  0.3263  0.3031
   39MOL   C43421790   4.123   5.023   1.973  0.4586 -0.4613  0.7196
   39MOL   C43521791   4.014   5.110   1.953 -0.2616  0.2384 -0.7096
   39MOL   O43621792   3.656   5.001   1.759  0.3711 -0.1501  0.2047
   39MOL   C43721793   3.521   5.318   1.886 -0.6782 -0.5565 -0.5229
   39MOL   C43821794   3.402   5.383   1.895 -0.2340  0.2462 -0.4924
   39MOL   O43921795   3.153   5.518   1.895  0.2394  0.2881  0.5219
   39MOL   H44021796   3.205   5.115   1.807  1.2608 -0.6343  1.6593
   39MOL   H44121797   3.407   5.018   1.768 -4.1430  0.1459  0.8826
   39MOL   H44221798   3.769   5.224   1.948  0.2410  0.1842 -0.2559
   39MOL   H44321799   3.776   4.868   1.924  1.0576 -1.9760 -1.2414
   39MOL   H44421800   3.964   4.723   1.974 -0.2997  0.5369 -1.0730
   39MOL   H44521801   4.187   4.689   2.015  0.5893 -0.0990  2.8223
   39MOL   H44621802   4.217   5.067   2.005 -1.3942  2.1804  2.8430
   39MOL   H44721803   4.036   5.216   1.959  1.3639 -0.1214  0.2750
   39MOL   H44821804   3.610   5.372   1.917 -1.4908  1.0792 -1.0106
   39MOL   H44921805   3.400   5.487   1.926 -0.3143  0.0971  0.0050
   39MOL   C45021806   4.341   4.816   2.054  0.4012 -0.0800  0.0487
   39MOL   C45121807   4.428   4.714   2.123 -0.4178  0.3705 -0.6961
   39MOL   C45221808   4.372   4.646   2.233 -0.3042 -0.9518 -0.1814
   39MOL   C45321809   4.450   4.543   2.297  0.0550 -0.3677  0.2437
   39MOL   C45421810   4.579   4.516   2.255  0.2289 -0.4799  0.1255
   39MOL   C45521811   4.651   4.402   2.319  0.0799  0.6617  0.2182
   39MOL   N45621812   4.781   4.401   2.282 -0.5136 -0.7573  0.2833
   39MOL   C45721813   4.870   4.302   2.302 -0.2130 -0.3555  0.0017
   39MOL   C45821814   4.883   4.237   2.430  0.0304  1.1013 -0.6594
   39MOL   C45921815   4.977   4.133   2.448 -0.4259 -0.4962  0.4116
   39MOL   C46021816   5.063   4.098   2.341 -0.4944  0.2116 -1.0610
   39MOL   N46121817   5.173   4.009   2.349  0.4430 -0.5851  0.0037
   39MOL   C46221818   5.057   4.167   2.218  0.0646 -0.4119 -0.8666
   39MOL   C46321819   4.958   4.265   2.200  0.2058 -0.6188  0.5501
   39MOL   O46421820   4.593   4.320   2.388 -0.0440 -0.2534 -0.2151
   39MOL   C46521821   4.636   4.583   2.147  1.0387  0.4613  0.4829
   39MOL   C46621822   4.565   4.688   2.086 -0.0993  0.0932  0.3134
   39MOL   O46721823   4.403   4.916   2.012  0.0406 -0.3670  0.1708
   39MOL   H46821824   4.271   4.666   2.265 -1.0798 -1.8360 -2.0041
   39MOL   H46921825   4.405   4.483   2.375  1.0695 -0.4469  0.7708
   39MOL   H47021826   4.809   4.487   2.236 -0.0580 -1.9193 -1.6452
   39MOL   H47121827   4.832   4.286   2.512 -1.3731  1.4211 -1.7234
   39MOL   H47221828   4.998   4.083   2.541  1.7018 -0.2917  0.0635
   39MOL   H47321829   5.219   4.004   2.259 -0.7171  3.5925 -0.9350
   39MOL   H47421830   5.133   4.150   2.144  0.5869 -1.8146 -0.0358
   39MOL   H47521831   4.951   4.315   2.104  1.4553 -2.2720 -0.4525
   39MOL   H47621832   4.736   4.568   2.110  0.5934 -1.3147 -0.0595
   39MOL   H47721833   4.612   4.750   2.011 -0.0131  2.2046  2.0258
   39MOL   C47821834   5.227   3.935   2.446  0.4664 -0.8736  0.1066
   39MOL   C47921835   5.344   3.850   2.411 -0.3593 -0.1024 -0.4526
   39MOL   C48021836   5.465   3.874   2.478  0.9002 -0.2804  0.4063
   39MOL   C48121837   5.582   3.820   2.424  0.2756 -0.3049 -0.6895
   39MOL   C48221838   5.572   3.726   2.320  0.7343  0.1355 -0.2931
   39MOL   C48321839   5.696   3.655   2.268  0.2006 -0.7538  0.6906
   39MOL   N48421840   5.805   3.738   2.259  0.6817  0.6231 -0.3899
   39MOL   C48521841   5.935   3.690   2.229 -0.2513 -0.6792  0.2166
   39MOL   C48621842   6.051   3.733   2.300 -1.1498 -0.2847 -0.1467
   39MOL   C48721843   6.179   3.692   2.268  0.1668 -0.3387 -0.0343
   39MOL   C48821844   6.191   3.600   2.161  0.2978  0.3266 -0.5075
   39MOL   N48921845   6.317   3.553   2.109  0.5013  0.1586  0.2243
   39MOL   C49021846   6.082   3.559   2.086 -0.0566 -0.0702 -0.4711
   39MOL   C49121847   5.955   3.603   2.120 -0.3535 -0.9373 -0.5375
   39MOL   O49221848   5.692   3.537   2.231 -0.1503  0.3940 -0.3230
   39MOL   C49321849   5.450   3.693   2.259  0.4942 -0.3518 -0.2034
   39MOL   C49421850   5.334   3.762   2.303 -0.0564 -0.4052  0.2484
   39MOL   O49521851   5.192   3.941   2.564  0.1579 -0.4059  0.0412
   39MOL   H49621852   5.461   3.943   2.561  1.7123 -0.0424  0.2511
   39MOL   H49721853   5.671   3.832   2.484 -0.5129  1.8875  0.1259
   39MOL   H49821854   5.786   3.834   2.282 -0.5858  0.4196 -0.5204
   39MOL   H49921855   6.039   3.804   2.381 -1.5511  0.4520 -0.8335
   39MOL   H50021856   6.270   3.733   2.310  1.1110 -0.6192 -1.7431
   39MOL   H50121857   6.317   3.532   2.010 -0.2067  1.1585  0.0004
   39MOL   H50221858   6.088   3.497   1.998  1.6037 -1.1222  0.3715
   39MOL   H50321859   5.881   3.574   2.047 -0.7199  0.7722 -0.8716
   39MOL   H50421860   5.429   3.620   2.183 -2.8506  0.1909  0.1193
   39MOL   H50521861   5.235   3.741   2.266 -0.2664 -2.0437  1.6926
   39MOL   C50621862   6.416   3.505   2.183 -0.0235 -0.1402 -0.1782
   39MOL   C50721863   6.526   3.443   2.111 -0.5920 -0.3586  0.6225
   39MOL   C50821864   6.630   3.378   2.181 -0.5612 -0.6110 -0.5374
   39MOL   C50921865   6.738   3.315   2.115  0.2836  0.0469 -0.4328
   39MOL   C51021866   6.754   3.318   1.976  0.3749  0.3417 -0.2982
   39MOL   C51121867   6.871   3.261   1.901 -0.3362 -0.4354 -0.1372
   39MOL   N51221868   6.943   3.166   1.980  0.0295 -0.4653  0.6416
   39MOL   C51321869   7.049   3.077   1.947  0.0504 -0.8051  0.2852
   39MOL   C51421870   7.107   2.999   2.049 -0.3790  0.1593 -0.3415
   39MOL   C51521871   7.206   2.909   2.015 -0.6967 -0.1080 -0.2075
   39MOL   C51621872   7.266   2.906   1.889  0.1240  0.9439 -0.0612
   39MOL   N51721873   7.387   2.826   1.857 -0.1902  0.0793 -0.1823
   39MOL   C51821874   7.223   3.003   1.799  0.0285 -0.6848 -0.5035
   39MOL   C51921875   7.114   3.086   1.824 -0.0701  0.1566 -0.5220
   39MOL   O52021876   6.899   3.306   1.786 -0.0205 -0.4488 -0.5951
   39MOL   C52121877   6.660   3.394   1.906 -0.6042  0.2484 -0.9121
   39MOL   C52221878   6.547   3.458   1.969  0.0852  0.3157 -0.0834
   39MOL   O52321879   6.411   3.507   2.307  0.0978  0.0295 -0.7504
   39MOL   H52421880   6.636   3.350   2.285  0.4836 -1.3609 -0.7947
   39MOL   H52521881   6.809   3.259   2.174 -0.1161  0.6270  0.5971
   39MOL   H52621882   6.906   3.161   2.074 -3.3230  0.9481 -0.4978
   39MOL   H52721883   7.078   3.003   2.153  1.6817  1.0134  0.2322
   39MOL   H52821884   7.234   2.846   2.098  2.8846  0.0642 -1.2163
   39MOL   H52921885   7.453   2.864   1.791  0.7625 -1.6928 -0.2598
   39MOL   H53021886   7.277   3.019   1.707 -1.2707 -2.7098 -1.6494
   39MOL   H53121887   7.071   3.148   1.747 -0.1396  1.1463  0.2927
   39MOL   H53221888   6.676   3.402   1.800 -0.1877  0.5529 -0.8255
   39MOL   H53321889   6.478   3.514   1.908 -1.6927  0.1443  1.7068
   39MOL   C53421890   7.412   2.696   1.880 -0.5570 -0.5891 -0.3673
   39MOL   C53521891   7.533   2.646   1.814  0.4497 -0.5970 -1.0380
   39MOL   C53621892   7.615   2.726   1.732  0.3206  0.1625 -0.3296
   39MOL   C53721893   7.717   2.666   1.657 -0.4378  0.4259 -0.5164
   39MOL   C53821894   7.750   2.531   1.663  0.6618  0.6847 -0.5211
   39MOL   C53921895   7.853   2.467   1.576 -0.1782 -0.0706 -0.1587
   39MOL   N54021896   7.941   2.555   1.527 -0.0256  0.5855 -0.3004
   39MOL   C54121897   8.051   2.529   1.444 -0.4705 -0.0773 -0.0532
   39MOL   C54221898   0.022   2.602   1.456 -0.2583  0.0876 -0.2482
   39MOL   C54321899   0.130   2.587   1.373 -0.0974 -0.3456 -0.7042
   39MOL   C54421900   0.127   2.494   1.265 -0.8610  0.2192 -0.3050
   39MOL   N54521901   0.242   2.475   1.185  0.1535  0.0958 -0.4036
   39MOL   C54621902   0.012   2.419   1.248  0.8015  0.4527 -0.2700
   39MOL   C54721903   8.048   2.431   1.338 -0.6236 -0.7797 -0.6982
   39MOL   O54821904   7.865   2.346   1.552  0.3597  0.3321  0.4722
   39MOL   C54921905   7.670   2.448   1.747 -0.4478 -0.1962 -0.3519
   39MOL   C55021906   7.567   2.505   1.828 -0.4153 -0.1903 -0.1873
   39MOL   O55121907   7.336   2.627   1.942 -0.4002  0.3181 -0.0310
   39MOL   H55221908   7.592   2.831   1.725 -0.3566  0.0705  0.3987
   39MOL   H55321909   7.768   2.735   1.591  2.7404 -0.5518  0.8313
   39MOL   H55421910   7.913   2.649   1.551 -0.9889  0.5025 -1.0617
   39MOL   H55521911   0.023   2.671   1.540  0.4788 -2.0462  1.5535
   39MOL   H55621912   0.222   2.635   1.402 -1.5392  0.7047  2.3867
   39MOL   H55721913   0.326   2.529   1.198  0.5456 -0.4056 -0.8667
   39MOL   H55821914   0.004   2.353   1.163  1.2139 -0.7163  0.5825
   39MOL   H55921915   7.958   2.374   1.321 -1.0574  0.0217 -1.1170
   39MOL   H56021916   7.696   2.347   1.774  0.3159 -0.3965 -1.7949
   39MOL   H56121917   7.497   2.454   1.891 -1.5785 -0.7405 -1.8847
   39MOL   H56221918   0.245   2.397   1.120 -0.8027  0.7969 -1.3094
   40MOL     C121919   0.476   5.397   7.351 -0.3543 -0.5538  0.1674
   40MOL     C221920   0.419   5.504   7.444 -0.2644  0.7090 -0.2193
   40MOL     C321921   0.291   5.550   7.430 -0.0467  0.4804 -0.3187
   40MOL     C421922   0.245   5.642   7.522 -0.1024 -0.7191 -0.2205
   40MOL     C521923   0.318   5.680   7.634 -0.1101 -0.4759 -0.1870
   40MOL     C621924   0.268   5.777   7.736  0.9396  0.3730 -0.1351
   40MOL     N721925   0.362   5.845   7.807  0.0942 -0.1764  0.1488
   40MOL     C821926   0.340   5.967   7.874  0.3230 -0.4538  1.0566
   40MOL     C921927   0.224   5.999   7.947  0.1230 -0.2665  0.2325
   40MOL    C1021928   0.217   6.117   8.020 -0.6588 -0.8440  0.3373
   40MOL    C1121929   0.328   6.203   8.041 -0.1004  0.8353  0.5517
   40MOL    N1221930   0.319   6.308   8.129  0.7263 -0.1446  0.2326
   40MOL    C1321931   0.438   6.172   7.962 -0.0971 -0.1060 -0.8844
   40MOL    C1421932   0.449   6.061   7.883  0.1324  0.0550  0.1203
   40MOL    O1521933   0.149   5.795   7.750 -0.2356 -0.5678  0.2757
   40MOL    C1621934   0.444   5.621   7.657  0.2020 -0.1474 -0.5555
   40MOL    C1721935   0.495   5.536   7.559 -0.2401 -0.0015  0.0499
   40MOL    O1821936   0.416   5.362   7.247  0.4231 -0.4966  0.2975
   40MOL    H1921937   0.226   5.522   7.348 -1.0844  0.3310  0.5393
   40MOL    H2021938   0.153   5.691   7.499 -0.0374 -0.1787  0.6290
   40MOL    H2121939   0.458   5.829   7.781  0.6554  0.6272  1.6413
   40MOL    H2221940   0.146   5.925   7.955 -0.0529 -0.0548  0.4851
   40MOL    H2321941   0.129   6.121   8.081 -0.9900 -0.5466 -0.1584
   40MOL    H2421942   0.234   6.362   8.134  0.5736 -0.0557 -2.2847
   40MOL    H2521943   0.519   6.244   7.963 -0.5872  0.4926  2.4562
   40MOL    H2621944   0.545   6.038   7.840  1.4234  1.3048  2.2212
   40MOL    H2721945   0.500   5.636   7.748  0.1580 -0.1433 -0.5293
   40MOL    H2821946   0.589   5.489   7.584  1.4435  2.7540 -0.9267
   40MOL    H2921947   0.574   5.357   7.376  0.0588  0.7754  0.7067
   40MOL    C3021948   0.417   6.354   0.056 -0.5988 -0.4523 -0.5264
   40MOL    C3121949   0.393   6.473   0.148  0.2340 -0.1692 -0.4851
   40MOL    C3221950   0.487   6.498   0.254  0.7105 -0.1431  0.1079
   40MOL    C3321951   0.474   6.612   0.336  0.2648  0.4383  0.1486
   40MOL    C3421952   0.368   6.706   0.318 -0.2627 -0.3225 -0.6136
   40MOL    C3521953   0.356   6.834   0.397  0.0964  0.7705  0.3466
   40MOL    N3621954   0.467   6.911   0.370  0.7878 -1.2153 -0.0400
   40MOL    C3721955   0.507   7.029   0.446  0.0056 -0.1468  0.7101
   40MOL    C3821956   0.473   7.046   0.583 -0.7889 -0.5467  0.2869
   40MOL    C3921957   0.517   7.153   0.654  0.4681  0.0769  0.8214
   40MOL    C4021958   0.592   7.255   0.589  0.0814  0.4987 -0.2008
   40MOL    N4121959   0.631   7.365   0.662 -0.4437 -0.1946 -0.3131
   40MOL    C4221960   0.629   7.234   0.457  1.2260 -0.0932 -0.2768
   40MOL    C4321961   0.580   7.122   0.383  0.2803 -0.4709  0.2193
   40MOL    O4421962   0.262   6.868   0.468  0.5454 -0.4205  0.2718
   40MOL    C4521963   0.263   6.675   0.227 -0.0681 -0.7108 -0.1579
   40MOL    C4621964   0.284   6.562   0.140  0.4695 -0.0066  1.2093
   40MOL    O4721965   0.535   6.318   0.045  0.0218 -0.3385  0.5209
   40MOL    H4821966   0.567   6.426   0.266  0.8181 -0.2386 -1.1267
   40MOL    H4921967   0.557   6.641   0.399  0.2325 -0.1249  0.4553
   40MOL    H5021968   0.505   6.898   0.278 -2.7819 -1.5562 -1.5537
   40MOL    H5121969   0.443   6.959   0.641  0.6977 -1.7186 -0.6669
   40MOL    H5221970   0.492   7.156   0.759  3.8719 -1.4195  1.7266
   40MOL    H5321971   0.601   7.370   0.759  0.3137  0.3941 -0.0994
   40MOL    H5421972   0.694   7.310   0.416 -0.4648  3.0336  2.5393
   40MOL    H5521973   0.601   7.106   0.278 -1.1128 -0.9382 -0.0019
   40MOL    H5621974   0.176   6.737   0.211 -0.8835 -1.5568  0.9285
   40MOL    H5721975   0.222   6.550   0.052  1.3121  0.6497  0.5188
   40MOL    C5821976   0.679   7.484   0.623  0.1370 -0.7555 -0.1655
   40MOL    C5921977   0.681   7.592   0.734  0.3453 -0.0652 -0.2024
   40MOL    C6021978   0.562   7.608   0.810  0.1093 -0.2970 -0.5997
   40MOL    C6121979   0.554   7.715   0.904  0.1589  0.4715 -0.3579
   40MOL    C6221980   0.660   7.806   0.914  0.0988  0.3817 -0.3444
   40MOL    C6321981   0.649   7.914   1.019  0.7081  0.1938 -0.3051
   40MOL    N6421982   0.537   7.980   1.001 -0.1670  0.0990  0.6818
   40MOL    C6521983   0.487   8.084   1.089  0.0952  0.3454 -0.0432
   40MOL    C6621984   0.566   0.011   1.182  0.0465  0.0777 -0.2556
   40MOL    C6721985   0.506   0.116   1.261  0.4911 -0.2027  0.0022
   40MOL    C6821986   0.368   0.145   1.248  0.4315 -0.3831 -0.1706
   40MOL    N6921987   0.322   0.250   1.322  0.1843 -0.1474  0.5916
   40MOL    C7021988   0.292   0.065   1.156  0.4909 -0.4021 -0.7335
   40MOL    C7121989   0.348   8.111   1.084  0.3680  0.1896 -0.1161
   40MOL    O7221990   0.727   7.937   1.109  0.3928  0.1255 -0.0167
   40MOL    C7321991   0.778   7.784   0.843  0.2010 -0.0157  0.7596
   40MOL    C7421992   0.789   7.683   0.748 -0.0505  0.0855 -0.5408
   40MOL    O7521993   0.756   7.504   0.524  0.4014 -0.5590 -0.5677
   40MOL    H7621994   0.480   7.539   0.813 -0.6233  0.5315 -1.2298
   40MOL    H7721995   0.463   7.729   0.961  0.4976  0.9789  0.0580
   40MOL    H7821996   0.477   7.958   0.923  1.9857  0.8334 -1.2386
   40MOL    H7921997   0.667   8.125   1.204 -0.3934 -0.9145  0.3483
   40MOL    H8021998   0.565   0.165   1.337  0.7150 -0.6981  0.1487
   40MOL    H8121999   0.392   0.321   1.338 -0.6645  1.2406 -1.5966
   40MOL    H8222000   0.185   0.077   1.146 -0.0901 -2.9644  1.6673
   40MOL    H8322001   0.287   8.042   1.027 -2.6793  0.6968  2.3851
   40MOL    H8422002   0.860   7.852   0.863 -1.9591  3.2964 -1.1608
   40MOL    H8522003   0.880   7.675   0.691  1.8900  1.2075  2.2594
   40MOL    C8622004   0.200   0.275   1.372  0.6283 -0.2243 -0.4616
   40MOL    C8722005   0.181   0.401   1.453 -0.2361  0.3646  0.2950
   40MOL    C8822006   0.105   0.396   1.570  0.3032 -0.1373  0.0924
   40MOL    C8922007   0.083   0.514   1.647  0.2325 -0.5332 -0.1618
   40MOL    C9022008   0.136   0.638   1.599  0.1878 -0.1200  0.1652
   40MOL    C9122009   0.118   0.766   1.667 -0.1980  0.3111 -0.2116
   40MOL    N9222010   8.140   0.776   1.723 -0.2044 -0.5480  0.3714
   40MOL    C9322011   8.091   0.865   1.821  0.2875  0.6498  0.1558
   40MOL    C9422012   8.112   1.002   1.809 -0.2568 -1.2395  0.8461
   40MOL    C9522013   8.048   1.096   1.895  0.0821  0.5465 -0.1375
   40MOL    C9622014   7.966   1.040   1.998  0.4941  0.5378 -0.8383
   40MOL    N9722015   7.900   1.116   2.102 -0.4549 -0.2306 -0.4784
   40MOL    C9822016   7.945   0.902   2.014 -0.3170 -0.2745 -0.6281
   40MOL    C9922017   8.002   0.822   1.922 -0.6558  0.6162  0.3064
   40MOL   O10022018   0.208   0.851   1.670 -0.2444  0.0087  0.2450
   40MOL   C10122019   0.211   0.642   1.476  0.4056  0.4470 -0.0823
   40MOL   C10222020   0.228   0.525   1.404 -0.7011  0.4305  0.3188
   40MOL   O10322021   0.104   0.205   1.360 -0.0286 -0.2860  0.6078
   40MOL   H10422022   0.066   0.304   1.613  2.4986 -0.7658  0.7729
   40MOL   H10522023   0.026   0.498   1.737 -0.1314  2.3854  0.1516
   40MOL   H10622024   8.084   0.694   1.705  1.6059 -1.9928  1.0890
   40MOL   H10722025   0.008   1.042   1.718 -1.8986  1.5793  1.2693
   40MOL   H10822026   8.048   1.203   1.878  0.7568  0.6946  0.7604
   40MOL   H10922027   7.874   1.067   2.187  1.0463 -0.5835 -0.2010
   40MOL   H11022028   7.888   0.859   2.095  0.0059  0.4484 -0.0100
   40MOL   H11122029   7.979   0.717   1.931 -1.3990  0.7578  0.0418
   40MOL   H11222030   0.244   0.736   1.433 -1.0991  1.5353  1.0826
   40MOL   H11322031   0.277   0.531   1.308 -0.6973 -1.8574  0.1468
   40MOL   C11422032   7.870   1.249   2.101 -0.4607  0.0934 -0.3947
   40MOL   C11522033   7.800   1.286   2.225 -0.0767 -0.2901  0.4296
   40MOL   C11622034   7.664   1.308   2.222 -0.3931  0.8772  0.3506
   40MOL   C11722035   7.587   1.338   2.341  0.0858  0.5550  0.1007
   40MOL   C11822036   7.663   1.349   2.464 -0.1086 -0.8582  0.1709
   40MOL   C11922037   7.593   1.377   2.592 -0.0177 -0.1717  0.4688
   40MOL   N12022038   7.458   1.375   2.589  0.1316  0.1190 -0.0954
   40MOL   C12122039   7.358   1.407   2.689  0.8122 -0.3977  0.2153
   40MOL   C12222040   7.389   1.394   2.823 -0.2242  0.3189 -0.0903
   40MOL   C12322041   7.284   1.418   2.913 -0.4258  0.7289 -0.8920
   40MOL   C12422042   7.156   1.469   2.883  1.0707  0.7073 -0.1560
   40MOL   N12522043   7.055   1.493   2.985 -0.2541  0.0955  0.0389
   40MOL   C12622044   7.127   1.474   2.744  0.2178 -0.2545 -0.2857
   40MOL   C12722045   7.228   1.437   2.654 -0.2077  0.1404 -0.3337
   40MOL   O12822046   7.650   1.385   2.700 -0.2010 -0.1175 -0.1631
   40MOL   C12922047   7.799   1.330   2.465  0.6075  0.2044  0.0912
   40MOL   C13022048   7.869   1.301   2.346  0.8489 -0.3709 -0.2499
   40MOL   O13122049   7.882   1.324   2.003 -0.0870  0.2582 -0.1825
   40MOL   H13222050   7.608   1.302   2.129  0.7337  0.6742 -0.3325
   40MOL   H13322051   7.480   1.349   2.341  0.0833  0.5642  0.8469
   40MOL   H13422052   7.421   1.370   2.495 -1.4867  1.0256  0.4610
   40MOL   H13522053   7.487   1.362   2.853 -0.8213 -2.4072 -0.8529
   40MOL   H13622054   7.294   1.412   3.020  0.4423 -1.0174 -1.0392
   40MOL   H13722055   7.089   1.477   3.079 -2.4882 -2.9094  0.4043
   40MOL   H13822056   7.030   1.509   2.713  0.4104  0.5765  0.0380
   40MOL   H13922057   7.204   1.422   2.549 -1.8893 -0.0940  0.0630
   40MOL   H14022058   7.846   1.334   2.563 -0.5658 -0.2669  0.6825
   40MOL   H14122059   7.976   1.287   2.341  0.9104 -0.0943  0.2671
   40MOL   C14222060   6.921   1.485   2.977  0.1287  0.4689 -0.0738
   40MOL   C14322061   6.849   1.495   3.103  0.0580  0.2542  0.5864
   40MOL   C14422062   6.897   1.434   3.220 -0.3354  0.7027  0.0881
   40MOL   C14522063   6.826   1.433   3.339 -0.6859 -0.4701  0.0173
   40MOL   C14622064   6.700   1.491   3.341 -0.3024  0.0909 -0.0240
   40MOL   C14722065   6.630   1.482   3.476 -0.0986  0.7444  0.1215
   40MOL   N14822066   6.514   1.415   3.483  0.0685  0.0027  0.2312
   40MOL   C14922067   6.421   1.355   3.389  0.1314  0.3754 -0.1513
   40MOL   C15022068   6.455   1.312   3.259 -0.0503 -0.1412 -0.0591
   40MOL   C15122069   6.352   1.262   3.175  0.5025 -0.3601 -0.0524
   40MOL   C15222070   6.216   1.259   3.216  0.6876  0.4849 -0.7159
   40MOL   N15322071   6.114   1.229   3.121  0.5427 -0.4571 -0.0806
   40MOL   C15422072   6.191   1.298   3.343 -0.3274 -0.0915  0.1343
   40MOL   C15522073   6.287   1.345   3.434  0.0465 -0.1231 -0.2780
   40MOL   O15622074   6.682   1.532   3.571  0.3126 -0.1741  0.0125
   40MOL   C15722075   6.646   1.552   3.224 -0.1350 -0.1665 -0.1250
   40MOL   C15822076   6.726   1.566   3.107 -0.3369 -0.1001 -0.0872
   40MOL   O15922077   6.855   1.488   2.877  0.0976  0.4000 -0.6743
   40MOL   H16022078   6.995   1.387   3.220 -0.5859  0.1732  0.5583
   40MOL   H16122079   6.866   1.391   3.431  0.1061 -1.1741 -0.6363
   40MOL   H16222080   6.479   1.407   3.578  1.1425 -1.3365  0.5300
   40MOL   H16322081   6.555   1.305   3.221  0.1148 -1.0594  0.5317
   40MOL   H16422082   6.389   1.218   3.084  1.5037  0.6682 -0.1528
   40MOL   H16522083   6.130   1.236   3.021 -0.1279 -3.0235 -0.4007
   40MOL   H16622084   6.086   1.304   3.366 -0.7076 -1.7596 -1.1204
   40MOL   H16722085   6.256   1.361   3.536  0.6294 -1.7577  0.1709
   40MOL   H16822086   6.546   1.592   3.233 -0.5310 -1.2307  0.2401
   40MOL   H16922087   6.679   1.613   3.022 -0.0674 -1.6825 -1.1350
   40MOL   C17022088   6.018   1.139   3.137 -0.1946 -0.4706 -0.2537
   40MOL   C17122089   5.974   1.072   3.011 -0.2670  1.2839 -0.0287
   40MOL   C17222090   5.837   1.070   2.974 -0.0967  0.0056 -0.9330
   40MOL   C17322091   5.798   1.010   2.855 -0.4034  0.0065  0.0834
   40MOL   C17422092   5.893   0.922   2.785  0.1021 -0.0776  0.0627
   40MOL   C17522093   5.862   0.866   2.652 -0.3233 -0.2534  0.0932
   40MOL   N17622094   5.894   0.742   2.637  0.2571 -0.5508 -0.3155
   40MOL   C17722095   5.906   0.673   2.519 -0.0931 -0.4718  0.1702
   40MOL   C17822096   5.823   0.564   2.493  0.1942  0.5173  0.0039
   40MOL   C17922097   5.850   0.476   2.385  0.5260 -0.1478 -0.6895
   40MOL   C18022098   5.942   0.510   2.284 -0.2730 -0.5440  0.4575
   40MOL   N18122099   5.953   0.417   2.175 -0.1696 -0.2818 -0.4673
   40MOL   C18222100   6.019   0.624   2.306  0.2214 -0.0515  0.7851
   40MOL   C18322101   6.011   0.697   2.429  0.2213 -0.1304 -0.3792
   40MOL   O18422102   5.811   0.935   2.561 -0.0280 -0.1437  0.6516
   40MOL   C18522103   6.028   0.917   2.831  0.4626 -0.4490 -0.4083
   40MOL   C18622104   6.068   0.999   2.936  0.4589  0.0237 -1.2311
   40MOL   O18722105   5.960   1.116   3.243  0.6975 -0.3122  0.0134
   40MOL   H18822106   5.764   1.128   3.029 -0.3488  0.0891 -1.3545
   40MOL   H18922107   5.700   1.023   2.813 -0.2394 -2.4824 -1.1372
   40MOL   H19022108   5.911   0.688   2.720  1.7046  0.1110 -0.1724
   40MOL   H19122109   5.734   0.546   2.552 -0.2275 -0.0086 -0.7732
   40MOL   H19222110   5.781   0.393   2.375 -1.4862  1.6516 -2.0215
   40MOL   H19322111   5.899   0.331   2.175  0.6887 -0.8377  0.4932
   40MOL   H19422112   6.104   0.632   2.240 -0.5671 -1.9474 -0.4931
   40MOL   H19522113   6.082   0.772   2.460 -0.9774  1.0241 -0.3845
   40MOL   H19622114   6.107   0.861   2.782 -0.7156 -3.1078  0.6482
   40MOL   H19722115   6.166   0.996   2.980 -0.0696  0.1963 -0.0315
   40MOL   C19822116   6.007   0.442   2.058  0.4786 -0.4265 -0.1949
   40MOL   C19922117   5.973   0.336   1.954 -0.7999  0.2573 -0.0474
   40MOL   C20022118   5.955   0.372   1.823 -0.4556 -0.4859  0.3877
   40MOL   C20122119   5.908   0.279   1.728  0.8090 -0.2587 -0.4618
   40MOL   C20222120   5.883   0.150   1.761  0.8193  0.4214 -0.5719
   40MOL   C20322121   5.824   0.056   1.656 -0.1967 -0.3621  1.1022
   40MOL   N20422122   5.895   8.091   1.630 -0.1349  0.5539  0.0157
   40MOL   C20522123   5.857   7.973   1.559 -0.0858  0.4868 -0.7354
   40MOL   C20622124   5.770   7.967   1.445  0.4561  0.4167 -0.8624
   40MOL   C20722125   5.722   7.847   1.387  0.0997  0.2045  0.3931
   40MOL   C20822126   5.771   7.724   1.435  0.5029  0.0118  0.1075
   40MOL   N20922127   5.724   7.596   1.376 -1.1161  0.1601 -0.0099
   40MOL   C21022128   5.864   7.727   1.547  0.0565 -0.0149  0.3460
   40MOL   C21122129   5.904   7.849   1.607 -0.4404  0.2459  0.0533
   40MOL   O21222130   5.726   0.087   1.589  0.1507 -0.4036 -0.2724
   40MOL   C21322131   5.916   0.102   1.894 -0.0492  0.4839 -0.4230
   40MOL   C21422132   5.961   0.200   1.988  0.3704  0.1414 -0.3267
   40MOL   O21522133   6.063   0.548   2.023 -0.1227  0.2951  0.0287
   40MOL   H21622134   5.954   0.477   1.797 -1.2693 -0.8771 -1.2391
   40MOL   H21722135   5.886   0.316   1.629 -3.0137 -0.7187  0.1727
   40MOL   H21822136   5.981   8.076   1.681 -0.8010 -0.6043  0.8266
   40MOL   H21922137   5.718   8.054   1.408 -0.2774  0.5475  0.4271
   40MOL   H22022138   5.651   7.867   1.308 -3.6188  3.9003  4.4207
   40MOL   H22122139   5.724   7.515   1.436  3.1092  0.4426  0.5309
   40MOL   H22222140   5.890   7.627   1.579  0.3559 -0.5693 -1.5643
   40MOL   H22322141   5.960   7.856   1.699  0.2682 -2.5546 -0.1170
   40MOL   H22422142   5.889   8.145   1.914  0.9512  0.3028  0.0304
   40MOL   H22522143   6.002   0.180   2.087  0.1168  1.6038  0.0830
   40MOL   C22622144   5.693   7.586   1.245  0.8947  0.0091 -1.0338
   40MOL   C22722145   5.667   7.444   1.210 -0.2054 -0.1632 -0.1774
   40MOL   C22822146   5.761   7.367   1.139  0.8248 -0.5689  0.0443
   40MOL   C22922147   5.733   7.231   1.103  0.6212 -0.8276 -0.1694
   40MOL   C23022148   5.615   7.168   1.140 -0.3358 -0.7095 -0.2434
   40MOL   C23122149   5.582   7.028   1.085 -0.3250  0.1368 -0.0697
   40MOL   N23222150   5.682   6.961   1.022  0.2801 -0.6622 -0.2989
   40MOL   C23322151   5.674   6.889   0.900 -0.5531 -0.4574  0.5689
   40MOL   C23422152   5.742   6.764   0.894  0.4417 -0.2066 -0.2447
   40MOL   C23522153   5.758   6.695   0.772  0.1114 -0.1354 -0.6628
   40MOL   C23622154   5.701   6.753   0.657  0.2496 -0.5184  0.4603
   40MOL   N23722155   5.722   6.685   0.532 -0.3916 -0.1751 -0.1186
   40MOL   C23822156   5.621   6.866   0.661 -0.5412  0.2823 -0.2155
   40MOL   C23922157   5.607   6.938   0.783 -0.2985  0.3317 -0.3532
   40MOL   O24022158   5.465   6.987   1.089  0.0658 -0.5038 -0.2603
   40MOL   C24122159   5.521   7.244   1.207  0.0196 -0.3013 -0.1031
   40MOL   C24222160   5.547   7.380   1.242 -0.8479  0.0825 -0.5960
   40MOL   O24322161   5.686   7.673   1.155 -0.3351 -0.2952 -0.6439
   40MOL   H24422162   5.852   7.415   1.105 -0.1494  2.2463  1.3077
   40MOL   H24522163   5.808   7.179   1.045  2.2763 -0.3180  1.4655
   40MOL   H24622164   5.776   6.982   1.053 -0.2669 -0.6228  1.3844
   40MOL   H24722165   5.782   6.727   0.987  0.6723 -1.2763 -0.7550
   40MOL   H24822166   5.807   6.599   0.762 -0.1513 -0.3321 -0.0964
   40MOL   H24922167   5.820   6.678   0.510 -0.0209 -1.3902  1.7212
   40MOL   H25022168   5.580   6.909   0.570 -0.1332  0.5361 -0.2841
   40MOL   H25122169   5.557   7.033   0.789 -1.3141 -0.2463  0.4956
   40MOL   H25222170   5.425   7.199   1.226  0.4158 -0.9965  0.2715
   40MOL   H25322171   5.472   7.435   1.298  0.8756 -0.2237  2.0805
   40MOL   C25422172   5.638   6.674   0.431 -0.3504 -0.3582 -0.1616
   40MOL   C25522173   5.695   6.643   0.292  0.1736  0.3330  0.7539
   40MOL   C25622174   5.829   6.662   0.254 -1.0411 -0.1053  1.0971
   40MOL   C25722175   5.874   6.635   0.120  0.5588  0.0409  0.8173
   40MOL   C25822176   5.783   6.574   0.028 -0.2831  0.1923 -0.2453
   40MOL   C25922177   5.815   6.544   8.028 -0.4551  0.1887 -0.0203
   40MOL   N26022178   5.739   6.454   7.963 -0.4516  0.3925  0.6627
   40MOL   C26122179   5.734   6.435   7.817 -0.3113 -0.1144 -0.0536
   40MOL   C26222180   5.609   6.376   7.771  0.3720  0.6096 -0.0716
   40MOL   C26322181   5.594   6.350   7.636 -0.6150  0.9595  0.9055
   40MOL   C26422182   5.690   6.405   7.543 -0.4461 -0.0176  0.1203
   40MOL   N26522183   5.674   6.406   7.396 -0.3209  0.1420  0.0115
   40MOL   C26622184   5.805   6.464   7.587 -0.1136 -0.2270 -0.3547
   40MOL   C26722185   5.828   6.480   7.719 -0.3554 -0.3717 -0.8559
   40MOL   O26822186   5.922   6.586   7.981 -0.4982  0.6273 -0.0759
   40MOL   C26922187   5.644   6.555   0.065  0.8224  0.9630  0.4840
   40MOL   C27022188   5.604   6.585   0.197  0.1608  0.3718 -0.2076
   40MOL   O27122189   5.520   6.684   0.443  0.0787 -0.2972 -0.2617
   40MOL   H27222190   5.902   6.713   0.316  1.2249 -0.2886 -1.3076
   40MOL   H27322191   5.977   6.660   0.098 -0.0034  3.2323  1.6611
   40MOL   H27422192   5.676   6.395   8.016 -0.5263 -0.1857 -0.0659
   40MOL   H27522193   5.547   6.341   7.852  2.2824  0.7269  1.4640
   40MOL   H27622194   5.505   6.301   7.601 -0.3522  0.2472  1.2287
   40MOL   H27722195   5.741   6.455   7.338  1.1484 -0.8375  0.8374
   40MOL   H27822196   5.874   6.508   7.517 -0.9546  1.2288 -0.2697
   40MOL   H27922197   5.918   6.532   7.747  0.4830 -2.5570  0.6781
   40MOL   H28022198   5.565   6.513   0.005  1.2220 -0.6406  1.0499
   40MOL   H28122199   5.504   6.557   0.227  0.4024 -1.2648 -0.8950
   40MOL   C28222200   5.596   6.321   7.323  0.2586  0.2783 -0.8840
   40MOL   C28322201   5.587   6.357   7.180 -0.7730 -0.0213  0.8233
   40MOL   C28422202   5.600   6.495   7.143 -0.3514  0.0014 -0.2941
   40MOL   C28522203   5.591   6.528   7.006 -0.0176 -0.8998  0.2720
   40MOL   C28622204   5.547   6.436   6.906  0.9454 -0.5680 -0.4403
   40MOL   C28722205   5.523   6.483   6.762  0.3190 -0.1428 -0.6081
   40MOL   N28822206   5.523   6.389   6.666 -0.3214  0.0130 -0.2275
   40MOL   C28922207   5.532   6.404   6.526  0.2871  0.2198  0.6510
   40MOL   C29022208   5.462   6.500   6.452 -0.0299 -0.3383  0.4012
   40MOL   C29122209   5.490   6.526   6.316 -0.3465  0.3734 -0.6748
   40MOL   C29222210   5.585   6.445   6.250  0.1523  0.2200  0.2956
   40MOL   N29322211   5.620   6.466   6.116 -0.5619 -0.8113  0.6633
   40MOL   C29422212   5.632   6.328   6.314 -0.5416  0.4451  0.2231
   40MOL   C29522213   5.613   6.313   6.452 -0.2899 -0.8741 -0.0405
   40MOL   O29622214   5.512   6.601   6.737 -0.2392  0.0056 -0.4562
   40MOL   C29722215   5.532   6.300   6.947  0.6395 -0.1800  0.4000
   40MOL   C29822216   5.555   6.264   7.084  0.0187  0.3271 -0.2716
   40MOL   O29922217   5.544   6.219   7.368 -0.3395  0.6727  0.3318
   40MOL   H30022218   5.637   6.556   7.224  0.0133 -1.6870  0.8397
   40MOL   H30122219   5.623   6.630   6.990 -0.1673 -1.1445 -1.6468
   40MOL   H30222220   5.535   6.294   6.699 -2.5915  0.4888  2.0704
   40MOL   H30322221   5.397   6.573   6.497  0.3483  0.1376  0.1845
   40MOL   H30422222   5.443   6.611   6.268 -2.0776  0.2093  0.6667
   40MOL   H30522223   5.573   6.413   6.043  1.7222  0.0408 -1.5049
   40MOL   H30622224   5.694   6.265   6.252 -2.9784 -2.7182  0.8743
   40MOL   H30722225   5.650   6.221   6.496  0.9411 -0.4865 -0.2634
   40MOL   H30822226   5.504   6.221   6.880 -1.0404  3.3353 -3.2636
   40MOL   H30922227   5.546   6.158   7.103  0.1177  0.7958  2.5644
   40MOL   C31022228   5.671   6.583   6.071 -0.7123  0.7762  0.5802
   40MOL   C31122229   5.708   6.681   6.179  0.2422  0.1607  0.1737
   40MOL   C31222230   5.629   6.797   6.184  0.5946 -0.2808 -0.4259
   40MOL   C31322231   5.640   6.877   6.301  0.0070 -0.2527 -0.0500
   40MOL   C31422232   5.726   6.837   6.405  0.7601  0.5197 -0.5210
   40MOL   C31522233   5.711   6.895   6.544 -0.8180 -0.0624 -0.3326
   40MOL   N31622234   5.722   6.796   6.635 -0.6510  0.3686 -0.6901
   40MOL   C31722235   5.755   6.814   6.770 -1.9279 -0.0440  0.7047
   40MOL   C31822236   5.676   6.889   6.855  0.6995  0.6120 -0.7722
   40MOL   C31922237   5.703   6.896   6.991 -0.1371  0.0387  0.0559
   40MOL   C32022238   5.815   6.835   7.046  0.2577 -0.0692  0.1310
   40MOL   N32122239   5.823   6.842   7.187  0.4609 -0.0457 -0.4417
   40MOL   C32222240   5.906   6.763   6.965  0.5146  0.5485 -0.5029
   40MOL   C32322241   5.871   6.749   6.825  0.5832 -0.4157 -0.4792
   40MOL   O32422242   5.675   7.010   6.569  0.4700  0.1876  0.5343
   40MOL   C32522243   5.807   6.722   6.389  0.2034 -0.1672  0.6510
   40MOL   C32622244   5.804   6.650   6.274 -0.4348  0.0509  0.0513
   40MOL   O32722245   5.690   6.610   5.950 -0.2930  0.4655 -0.2256
   40MOL   H32822246   5.552   6.814   6.110 -1.0520 -0.4106  1.2051
   40MOL   H32922247   5.580   6.967   6.310 -0.6713 -0.5996 -1.0840
   40MOL   H33022248   5.753   6.711   6.590  0.6161  0.4805 -0.0525
   40MOL   H33122249   5.590   6.943   6.819 -0.5560 -2.2280 -2.1381
   40MOL   H33222250   5.642   6.958   7.055 -0.4440 -0.5080  0.2905
   40MOL   H33322251   5.744   6.869   7.244  0.6316  1.0769 -0.7232
   40MOL   H33422252   5.992   6.716   7.010  0.1285  0.4199  0.1048
   40MOL   H33522253   5.942   6.690   6.769  0.0511 -1.8121  0.2875
   40MOL   H33622254   5.871   6.687   6.468  0.0991 -1.8381  0.0246
   40MOL   H33722255   5.863   6.559   6.268 -1.4785 -0.6875  0.8941
   40MOL   C33822256   5.932   6.831   7.264  0.0364  0.8459  0.1022
   40MOL   C33922257   5.886   6.845   7.406  1.0943  0.2628  0.4997
   40MOL   C34022258   5.756   6.803   7.457 -0.1454  0.1030 -0.8143
   40MOL   C34122259   5.727   6.822   7.597 -0.1153  0.3126 -0.1867
   40MOL   C34222260   5.824   6.883   7.685 -0.1198  0.3039  0.0387
   40MOL   C34322261   5.787   6.906   7.835  0.5730 -0.4262  0.3040
   40MOL   N34422262   5.895   6.905   7.913  0.1085 -0.1431  0.3545
   40MOL   C34522263   5.912   6.953   8.047 -0.9900 -0.1246  0.3905
   40MOL   C34622264   5.827   7.043   8.111 -0.3033  0.6214  0.1825
   40MOL   C34722265   5.849   7.084   0.100  0.3161 -0.6804 -0.0082
   40MOL   C34822266   5.963   7.038   0.168 -0.8491 -0.2238 -0.5988
   40MOL   N34922267   5.988   7.076   0.303 -0.1238  0.0146  0.4368
   40MOL   C35022268   6.046   6.944   0.109  0.0072  0.3916  0.3168
   40MOL   C35122269   6.018   6.900   8.120 -0.0566  0.3630 -1.0099
   40MOL   O35222270   5.670   6.897   7.876 -0.0394  0.2737 -0.1727
   40MOL   C35322271   5.948   6.920   7.633  0.0813  0.1921 -0.3247
   40MOL   C35422272   5.974   6.906   7.496 -0.3191 -0.1069  0.2000
   40MOL   O35522273   6.048   6.818   7.230  0.0056 -0.3964  0.3373
   40MOL   H35622274   5.673   6.761   7.402 -1.0043 -0.2439  0.7291
   40MOL   H35722275   5.632   6.784   7.631 -2.1906  1.8150 -3.9535
   40MOL   H35822276   5.984   6.885   7.868  0.2459  0.1603  0.4909
   40MOL   H35922277   5.746   7.080   8.050 -0.2569 -0.7911 -0.7671
   40MOL   H36022278   5.785   7.159   0.144 -0.1281 -0.9376 -0.2052
   40MOL   H36122279   6.082   7.102   0.329  0.0708 -1.2439  1.0056
   40MOL   H36222280   6.140   6.919   0.156  1.5568  1.0243 -2.3519
   40MOL   H36322281   6.089   6.833   8.073  0.6461  0.1541  0.3197
   40MOL   H36422282   6.030   6.955   7.694 -1.8770  0.7216  2.1106
   40MOL   H36522283   6.064   6.944   7.451 -0.2045  0.8269  1.2073
   40MOL   C36622284   5.897   7.074   0.400 -0.0352  0.3167  0.3967
   40MOL   C36722285   5.935   7.141   0.525  0.7800  0.2846  0.3040
   40MOL   C36822286   5.903   7.081   0.649 -0.3958  0.1813 -0.0761
   40MOL   C36922287   5.941   7.145   0.766 -0.3275  0.1611  0.2642
   40MOL   C37022288   5.994   7.274   0.760 -0.0263 -0.3955 -0.7475
   40MOL   C37122289   6.040   7.344   0.887 -0.2060  0.3087  0.2571
   40MOL   N37222290   6.000   7.474   0.888  0.0649  0.2977  0.8872
   40MOL   C37322291   6.025   7.563   0.991 -0.1143 -0.1800 -0.2211
   40MOL   C37422292   6.068   7.528   1.123 -0.0944 -0.0845  0.2720
   40MOL   C37522293   6.090   7.628   1.213  0.3854  0.2297  0.5501
   40MOL   C37622294   6.067   7.767   1.180  0.0394 -0.1849  0.5207
   40MOL   N37722295   6.085   7.883   1.266 -0.9198  0.2769  0.2566
   40MOL   C37822296   6.011   7.793   1.053  0.7891 -0.5661  0.9147
   40MOL   C37922297   5.992   7.693   0.958 -0.9585 -0.3076  0.0675
   40MOL   O38022298   6.113   7.284   0.966 -0.0447 -0.0197 -0.3136
   40MOL   C38122299   6.016   7.342   0.635  0.4441 -0.9723  0.0892
   40MOL   C38222300   6.000   7.267   0.518 -0.7252 -0.0837 -0.5792
   40MOL   O38322301   5.783   7.027   0.382 -0.4631  0.0302 -0.3844
   40MOL   H38422302   5.856   6.984   0.651 -1.7605  0.8539  0.3825
   40MOL   H38522303   5.926   7.090   0.858 -0.7047  1.3916  0.9562
   40MOL   H38622304   5.967   7.508   0.798 -0.0919  1.3926  1.3535
   40MOL   H38722305   6.088   7.430   1.164  0.0557  0.1459  0.7504
   40MOL   H38822306   6.133   7.606   1.310  0.0983  0.3176  0.6973
   40MOL   H38922307   6.013   7.953   1.258 -0.6521  0.2742 -2.4921
   40MOL   H39022308   5.972   7.890   1.026 -1.1884 -0.7461  2.9181
   40MOL   H39122309   5.946   7.721   0.865 -0.7779 -0.8507 -0.1818
   40MOL   H39222310   6.058   7.441   0.626 -1.2330 -0.4003 -1.8113
   40MOL   H39322311   6.025   7.312   0.423 -0.0238  0.1149 -0.3031
   40MOL   C39422312   6.188   7.917   1.344 -0.7071 -0.3687 -0.1183
   40MOL   C39522313   6.309   7.825   1.368 -0.0051 -0.2040  0.7150
   40MOL   C39622314   6.351   7.793   1.502 -0.0125 -0.2127  0.2934
   40MOL   C39722315   6.459   7.710   1.520 -0.0054  0.5025 -0.0706
   40MOL   C39822316   6.524   7.647   1.411  0.2578  0.1194 -0.6553
   40MOL   C39922317   6.632   7.547   1.437 -0.5880 -0.6464 -0.8830
   40MOL   N40022318   6.713   7.517   1.330  0.3103  0.2926 -0.2620
   40MOL   C40122319   6.787   7.393   1.316 -0.3011  0.3383  0.6250
   40MOL   C40222320   6.869   7.342   1.423  0.1216  0.7252  0.0081
   40MOL   C40322321   6.939   7.225   1.405 -0.9085  0.2602 -0.3700
   40MOL   C40422322   6.929   7.145   1.284  0.1668  0.2150 -0.3488
   40MOL   N40522323   6.992   7.020   1.260 -0.1104 -0.1361 -0.7097
   40MOL   C40622324   6.855   7.199   1.180 -0.2918  0.1146 -0.8482
   40MOL   C40722325   6.782   7.319   1.192 -0.3220 -0.1833 -0.0915
   40MOL   O40822326   6.636   7.503   1.551 -0.1005 -0.6888  0.4998
   40MOL   C40922327   6.474   7.671   1.279  0.0517 -0.1373 -0.0165
   40MOL   C41022328   6.379   7.768   1.259  0.3217  0.2602 -0.0849
   40MOL   O41122329   6.196   8.030   1.399 -0.3346  0.4901 -0.0777
   40MOL   H41222330   6.292   7.826   1.587  0.4619  1.6125 -0.0620
   40MOL   H41322331   6.486   7.685   1.622  0.4168  0.4448 -0.1925
   40MOL   H41422332   6.709   7.582   1.253  1.3321  2.0771  1.1672
   40MOL   H41522333   6.882   7.402   1.513 -0.9957 -0.2933  0.8578
   40MOL   H41622334   7.001   7.188   1.485  1.6759  0.0729 -2.3608
   40MOL   H41722335   6.991   6.993   1.163 -1.6802  2.0402 -1.3594
   40MOL   H41822336   6.857   7.153   1.082 -0.2966 -0.1399 -0.7276
   40MOL   H41922337   6.727   7.363   1.110 -2.7328  0.3697  1.7555
   40MOL   H42022338   6.526   7.624   1.197 -2.1188 -1.6390 -0.5729
   40MOL   H42122339   6.332   7.792   1.165 -0.5150  1.8313  0.7028
   40MOL   C42222340   7.007   6.927   1.352 -0.9209 -0.3831 -0.4000
   40MOL   C42322341   7.032   6.790   1.296 -0.0186  0.0120 -0.4059
   40MOL   C42422342   6.958   6.737   1.191  0.9041  0.5944  0.1785
   40MOL   C42522343   6.978   6.607   1.148  0.8556 -0.4647  0.3894
   40MOL   C42622344   7.074   6.525   1.209 -0.0854 -0.3128 -0.2206
   40MOL   C42722345   7.097   6.384   1.161 -0.8358  0.4789 -0.4102
   40MOL   N42822346   7.061   6.363   1.029 -0.0588 -0.4363 -1.3628
   40MOL   C42922347   7.076   6.249   0.953 -0.6735  0.2945  0.0118
   40MOL   C43022348   7.024   6.258   0.827 -0.5794 -0.2557 -0.0611
   40MOL   C43122349   7.025   6.149   0.737  0.0302 -0.3154  0.2161
   40MOL   C43222350   7.084   6.030   0.780  0.0662 -0.1232 -0.1186
   40MOL   N43322351   7.090   5.916   0.700 -0.2662  0.1512  0.6488
   40MOL   C43422352   7.137   6.014   0.912 -0.0490 -0.2772  0.9715
   40MOL   C43522353   7.133   6.124   0.997  0.3672 -0.1056 -0.5246
   40MOL   O43622354   7.156   6.296   1.225  0.0978  0.1993 -0.0540
   40MOL   C43722355   7.147   6.579   1.313  0.0666  0.0640 -0.4293
   40MOL   C43822356   7.137   6.716   1.350 -0.1437 -0.5339  1.0088
   40MOL   O43922357   6.998   6.944   1.476  0.1478  0.5844  0.1955
   40MOL   H44022358   6.877   6.792   1.145 -1.0031 -0.8064  1.7653
   40MOL   H44122359   6.904   6.570   1.078  0.4992  0.6141  0.1878
   40MOL   H44222360   7.038   6.450   0.983 -1.2920  0.5389  1.0303
   40MOL   H44322361   6.986   6.351   0.787  1.7408  0.9525  0.4363
   40MOL   H44422362   6.995   6.163   0.634 -0.7533  3.9261  0.9157
   40MOL   H44522363   7.161   5.845   0.712 -0.0908  0.1894 -0.1171
   40MOL   H44622364   7.165   5.914   0.940  0.3144 -0.7180 -0.9191
   40MOL   H44722365   7.172   6.115   1.097 -1.0086  1.1946  0.1465
   40MOL   H44822366   7.219   6.518   1.366  1.6554 -0.6863 -3.3503
   40MOL   H44922367   7.200   6.768   1.421 -1.8157  2.1797  0.5541
   40MOL   C45022368   7.003   5.876   0.613 -0.5617  0.1533 -0.0380
   40MOL   C45122369   7.040   5.754   0.533 -0.3857 -0.5433 -0.7013
   40MOL   C45222370   7.092   5.632   0.593  0.1454 -0.4418 -0.2871
   40MOL   C45322371   7.093   5.515   0.513 -0.1253  0.8086  0.4754
   40MOL   C45422372   7.051   5.511   0.380 -0.2766 -0.2240  0.0694
   40MOL   C45522373   7.053   5.385   0.302  0.1764 -0.2598 -0.5271
   40MOL   N45622374   7.021   5.396   0.172  0.3013 -0.8977 -0.4199
   40MOL   C45722375   7.006   5.298   0.078  0.2139  0.0278  0.2856
   40MOL   C45822376   7.088   5.314   8.106 -0.2747  0.1560 -0.0323
   40MOL   C45922377   7.066   5.231   7.998 -0.9429 -0.0171 -0.1081
   40MOL   C46022378   6.957   5.139   7.993  0.1548 -0.2679  0.5814
   40MOL   N46122379   6.923   5.054   7.882  0.1666  0.4789 -0.3079
   40MOL   C46222380   6.878   5.129   8.110  0.1353  0.0115  0.4350
   40MOL   C46322381   6.904   5.207   0.078  1.1685  0.3007 -0.1102
   40MOL   O46422382   7.082   5.277   0.355  0.6873  0.4413 -0.4579
   40MOL   C46522383   7.002   5.628   0.322  0.6883  0.4517  0.3102
   40MOL   C46622384   7.003   5.746   0.398 -0.4053  0.6493  0.5386
   40MOL   O46722385   6.911   5.948   0.575 -0.4534 -0.2558  0.8037
   40MOL   H46822386   7.126   5.633   0.695 -0.1048 -0.4217 -0.2043
   40MOL   H46922387   7.128   5.422   0.555  2.2285  1.2830 -0.3344
   40MOL   H47022388   7.003   5.488   0.135  0.4113 -1.5002 -2.0347
   40MOL   H47122389   7.169   5.385   8.109  0.8744 -1.1320  0.1907
   40MOL   H47222390   7.143   5.229   7.922 -0.5727  2.3954  0.1610
   40MOL   H47322391   6.849   4.989   7.904  1.7709 -1.0334  0.8102
   40MOL   H47422392   6.791   5.067   8.092  0.3669  0.3245 -2.0323
   40MOL   H47522393   6.844   5.200   0.167 -0.2886  1.4903 -0.9670
   40MOL   H47622394   6.962   5.635   0.222  0.5083 -2.3485  0.1438
   40MOL   H47722395   6.977   5.840   0.353  2.2426  2.2160  2.1104
   40MOL   C47822396   6.948   5.079   7.749  0.3759  0.2888  0.4016
   40MOL   C47922397   6.865   4.995   7.653  0.6787 -0.5592 -0.0184
   40MOL   C48022398   6.892   4.994   7.513 -0.2532  0.3376 -0.7159
   40MOL   C48122399   6.818   4.924   7.422  0.8165  0.2545 -0.1447
   40MOL   C48222400   6.719   4.836   7.473  0.0249 -0.7053 -0.3285
   40MOL   C48322401   6.637   4.743   7.382 -0.3476 -0.3741  0.6447
   40MOL   N48422402   6.705   4.696   7.273 -0.6209  0.0410 -0.8068
   40MOL   C48522403   6.672   4.596   7.185 -0.4921  0.3710 -0.7437
   40MOL   C48622404   6.736   4.593   7.064 -0.2708 -0.6778 -0.3539
   40MOL   C48722405   6.702   4.502   6.962 -0.3143 -0.1843 -0.0269
   40MOL   C48822406   6.611   4.397   6.992  0.7246  0.3144 -0.5529
   40MOL   N48922407   6.562   4.293   6.908  0.7224  0.3864  0.2962
   40MOL   C49022408   6.553   4.395   7.122  0.2176 -0.3948  0.1268
   40MOL   C49122409   6.578   4.499   7.211 -0.4973 -0.5629  0.3075
   40MOL   O49222410   6.521   4.714   7.419 -0.5328 -0.1293 -0.1137
   40MOL   C49322411   6.683   4.835   7.609 -0.1669  0.8653 -0.0954
   40MOL   C49422412   6.750   4.925   7.697 -0.0903 -0.1538 -0.2738
   40MOL   O49522413   7.036   5.154   7.706  0.2408  0.6893  0.3973
   40MOL   H49622414   6.967   5.052   7.462  0.8816 -1.7178 -1.4455
   40MOL   H49722415   6.826   4.936   7.315  2.1703 -0.7967 -0.1707
   40MOL   H49822416   6.781   4.753   7.240 -0.1934 -0.2906 -0.4003
   40MOL   H49922417   6.799   4.676   7.034 -1.1480  1.1611  2.6773
   40MOL   H50022418   6.735   4.526   6.862 -0.5651  2.1006  0.4101
   40MOL   H50122419   6.475   4.250   6.937  0.9854  0.6121  1.4373
   40MOL   H50222420   6.478   4.319   7.141  1.1108 -1.5647 -0.9745
   40MOL   H50322421   6.526   4.494   7.306  1.2627  2.1714  1.4630
   40MOL   H50422422   6.594   4.781   7.639  0.8930 -0.7607  0.2089
   40MOL   H50522423   6.700   4.942   7.791 -0.7188  1.1328 -0.8267
   40MOL   C50622424   6.631   4.252   6.789 -0.1763 -0.2952 -0.1150
   40MOL   C50722425   6.552   4.163   6.706  0.1554 -0.0603 -0.2005
   40MOL   C50822426   6.438   4.098   6.755 -0.0207  0.1819 -0.1608
   40MOL   C50922427   6.357   4.010   6.678  0.9156  0.8586 -0.2857
   40MOL   C51022428   6.396   3.984   6.546  0.4416  0.4776  0.3098
   40MOL   C51122429   6.309   3.898   6.456 -0.2416 -0.3628 -0.2298
   40MOL   N51222430   6.307   3.947   6.336  0.4088  0.2355 -0.6012
   40MOL   C51322431   6.245   3.893   6.224 -0.3451  0.8802 -0.9815
   40MOL   C51422432   6.314   3.870   6.105 -0.2068 -0.5725 -0.0614
   40MOL   C51522433   6.256   3.823   5.990 -0.3112 -0.0241  0.0596
   40MOL   C51622434   6.125   3.779   6.000  0.7334 -0.7135 -0.7397
   40MOL   N51722435   6.082   3.695   5.893 -0.2394  0.5306  0.0832
   40MOL   C51822436   6.044   3.801   6.113 -0.5608  0.5372 -0.0761
   40MOL   C51922437   6.108   3.861   6.226  0.2606  0.1189 -0.2444
   40MOL   O52022438   6.232   3.812   6.498  0.3456  0.3639  0.2008
   40MOL   C52122439   6.513   4.049   6.496 -0.1162  0.3323 -0.4926
   40MOL   C52222440   6.585   4.143   6.574 -0.0265  0.0862 -0.8016
   40MOL   O52322441   6.728   4.308   6.740 -0.3665 -0.3657 -0.0101
   40MOL   H52422442   6.411   4.112   6.858 -1.1906 -0.4129 -0.3867
   40MOL   H52522443   6.271   3.961   6.720 -0.9580  2.3786 -2.2324
   40MOL   H52622444   6.363   4.029   6.315  1.8212 -0.6006 -0.2105
   40MOL   H52722445   6.421   3.887   6.104 -0.1446 -1.0020 -0.3608
   40MOL   H52822446   6.320   3.806   5.906 -0.4673 -1.5184  0.2342
   40MOL   H52922447   6.156   3.637   5.856 -0.6640 -1.3264  1.9852
   40MOL   H53022448   5.940   3.772   6.119 -1.6252  3.7353 -1.6133
   40MOL   H53122449   6.047   3.879   6.313  2.3496  2.8857  0.7548
   40MOL   H53222450   6.540   4.030   6.393  2.2715 -1.5199  0.4161
   40MOL   H53322451   6.671   4.195   6.535  0.9180 -1.0048 -0.1974
   40MOL   C53422452   5.960   3.665   5.843  0.1938 -0.3541  0.1273
   40MOL   C53522453   5.949   3.539   5.761  0.8512  0.4463 -0.6030
   40MOL   C53622454   5.844   3.446   5.781  0.0775  0.3165 -0.0016
   40MOL   C53722455   5.846   3.323   5.704  0.2416 -0.1830  0.3493
   40MOL   C53822456   5.953   3.279   5.626  0.3282 -0.8373 -0.6296
   40MOL   C53922457   5.956   3.145   5.555 -0.1467  0.5189 -0.1611
   40MOL   N54022458   5.994   3.145   5.424 -0.2642 -0.5512  0.1334
   40MOL   C54122459   6.046   3.042   5.341  0.0060 -0.6348  0.5482
   40MOL   C54222460   6.039   2.904   5.375 -0.1834 -0.1276  0.7038
   40MOL   C54322461   6.088   2.806   5.284  0.2895  0.4073 -0.5906
   40MOL   C54422462   6.143   2.845   5.162 -0.0797  0.0259 -0.4852
   40MOL   N54522463   6.189   2.743   5.077  0.1217 -0.0572 -0.4479
   40MOL   C54622464   6.159   2.984   5.138  0.0382 -0.7303  0.7270
   40MOL   C54722465   6.104   3.081   5.221  0.1390  0.7976 -0.5390
   40MOL   O54822466   5.930   3.046   5.626  0.2486  0.0294  0.0321
   40MOL   C54922467   6.060   3.374   5.618 -0.4038 -0.0853 -0.0904
   40MOL   C55022468   6.053   3.505   5.673  0.4381 -0.6685 -0.2168
   40MOL   O55122469   5.859   3.734   5.860  0.4755  0.1221  0.2960
   40MOL   H55222470   5.768   3.467   5.855 -1.6170 -0.3369 -1.5498
   40MOL   H55322471   5.763   3.255   5.721 -0.5178  0.1502 -1.9129
   40MOL   H55422472   6.002   3.241   5.393  1.4127 -1.0492 -1.0303
   40MOL   H55522473   6.001   2.880   5.473  0.1309 -0.2497  0.7965
   40MOL   H55622474   6.081   2.701   5.310  0.9758  0.6263  0.4882
   40MOL   H55722475   6.193   2.651   5.117 -0.0585  0.9931  2.0988
   40MOL   H55822476   6.204   3.006   5.043  0.1981 -1.0269  0.7341
   40MOL   H55922477   6.097   3.186   5.197 -1.2201  1.3297  1.9995
   40MOL   H56022478   6.139   3.350   5.549 -2.5660  0.2099 -2.7389
   40MOL   H56122479   6.141   3.566   5.656  2.1838 -2.9364  0.4543
   40MOL   H56222480   6.256   2.758   5.003 -0.2379  1.6832 -0.4521
   41MOL     C122481   7.671   4.934   0.428 -0.2237 -0.1499 -0.6640
   41MOL     C222482   7.716   5.039   0.521  0.2184 -0.2560 -0.2088
   41MOL     C322483   7.825   5.123   0.493 -0.3862  0.1080  0.0755
   41MOL     C422484   7.863   5.225   0.588 -0.5607 -0.7533  0.7265
   41MOL     C522485   7.780   5.248   0.704  0.7600 -0.3530 -0.5131
   41MOL     C622486   7.801   5.365   0.794  0.6832 -0.2486  0.1353
   41MOL     N722487   7.874   5.471   0.747  0.2913  0.3449  0.1421
   41MOL     C822488   7.871   5.599   0.805 -0.9154 -0.2334  0.0242
   41MOL     C922489   7.820   5.704   0.732  0.0784  0.5107  0.6231
   41MOL    C1022490   7.821   5.837   0.780 -0.5299  0.5575  0.5155
   41MOL    C1122491   7.888   5.871   0.897 -0.1298 -0.2770 -0.7664
   41MOL    N1222492   7.894   6.008   0.941  0.4892 -0.1939  0.2355
   41MOL    C1322493   7.943   5.764   0.966  0.1948 -0.0823 -0.1125
   41MOL    C1422494   7.932   5.629   0.930  0.4128  0.2251  0.9684
   41MOL    O1522495   7.774   5.358   0.915 -0.5857  0.2128  0.0670
   41MOL    C1622496   7.679   5.154   0.732 -0.8326  0.2130  0.7813
   41MOL    C1722497   7.649   5.051   0.644  0.8792 -0.3230  0.2381
   41MOL    O1822498   7.563   4.880   0.425  0.0401 -0.2388  0.0677
   41MOL    H1922499   7.883   5.104   0.404 -0.2904  0.7983 -0.0106
   41MOL    H2022500   7.943   5.291   0.559 -0.6814  0.5723  3.2793
   41MOL    H2122501   7.894   5.463   0.649 -0.2378 -1.7478  0.1863
   41MOL    H2222502   7.785   5.682   0.633  1.7003 -1.4531  0.4547
   41MOL    H2322503   7.778   5.908   0.711 -2.5545 -0.7037  0.4297
   41MOL    H2422504   7.863   6.037   1.033 -0.6264 -0.4778 -0.0391
   41MOL    H2522505   7.995   5.788   1.058  1.6681 -0.1813 -0.8938
   41MOL    H2622506   7.970   5.552   0.995  1.4021 -0.2727 -0.1671
   41MOL    H2722507   7.615   5.159   0.820 -0.4521 -0.3057  1.0899
   41MOL    H2822508   7.564   4.985   0.648 -0.2595  0.9510 -2.2123
   41MOL    H2922509   7.747   4.910   0.354 -0.4868  1.3685 -1.4673
   41MOL    C3022510   7.940   6.109   0.861  0.7068  0.3429  0.9154
   41MOL    C3122511   7.927   6.244   0.918 -0.3423 -0.0265 -0.1669
   41MOL    C3222512   7.850   6.346   0.855 -0.1267 -0.1607 -0.1917
   41MOL    C3322513   7.833   6.474   0.915  0.2687 -0.7248 -0.0484
   41MOL    C3422514   7.902   6.502   1.033  0.2371  0.4615 -0.1543
   41MOL    C3522515   7.881   6.626   1.107  0.7158 -0.3172  0.1483
   41MOL    N3622516   7.991   6.702   1.111  0.5812 -0.9970  0.0223
   41MOL    C3722517   8.008   6.822   1.186 -0.1309 -0.7180  0.2644
   41MOL    C3822518   7.959   6.838   1.316 -0.0884 -0.5587  0.0520
   41MOL    C3922519   7.981   6.958   1.390 -0.0999 -0.2266  0.1648
   41MOL    C4022520   8.067   7.057   1.334  0.9021 -0.6472  0.9631
   41MOL    N4122521   8.071   7.181   1.403  0.0615  0.2663 -1.1848
   41MOL    C4222522   8.130   7.027   1.215  0.1048  1.0064 -0.2203
   41MOL    C4322523   8.098   6.914   1.136 -0.1421 -1.6153  0.3296
   41MOL    O4422524   7.775   6.661   1.161  0.3286 -0.1882  0.6393
   41MOL    C4522525   7.971   6.403   1.101 -0.2018 -0.1117 -0.0858
   41MOL    C4622526   7.985   6.274   1.041 -0.3668 -0.1854  0.2487
   41MOL    O4722527   7.982   6.093   0.749 -0.2358 -0.3063  0.0680
   41MOL    H4822528   7.794   6.330   0.764 -1.1322 -2.5530  0.7712
   41MOL    H4922529   7.767   6.551   0.878 -0.5027 -0.3905  1.9660
   41MOL    H5022530   8.072   6.661   1.068  0.5054  0.3716 -1.4671
   41MOL    H5122531   7.880   6.772   1.351 -0.1746 -0.6345 -0.2848
   41MOL    H5222532   7.934   6.975   1.486 -0.9039  0.8578 -0.4105
   41MOL    H5322533   8.012   7.194   1.484  2.4196 -0.5106  0.7173
   41MOL    H5422534   0.054   7.093   1.166  0.8170  0.5496  0.1821
   41MOL    H5522535   8.140   6.898   1.039  4.2532  0.4857  1.7663
   41MOL    H5622536   8.021   6.427   1.194  1.5981  0.6795 -1.2387
   41MOL    H5722537   8.048   6.203   1.093 -2.0024 -1.4547  0.5477
   41MOL    C5822538   8.124   7.297   1.363  0.0695  0.4038 -0.2856
   41MOL    C5922539   8.092   7.414   1.452 -0.5210 -0.0447  0.2430
   41MOL    C6022540   7.996   7.410   1.553 -0.0008  0.1583 -0.7514
   41MOL    C6122541   7.971   7.527   1.631 -0.2287 -0.2138  0.0197
   41MOL    C6222542   8.055   7.635   1.622 -0.2375 -0.8121  0.3883
   41MOL    C6322543   8.050   7.754   1.719  0.4823 -0.0128  0.3701
   41MOL    N6422544   0.014   7.827   1.722  0.6104 -0.5247 -0.1739
   41MOL    C6522545   0.035   7.957   1.775  0.6830  0.1100 -0.7928
   41MOL    C6622546   0.166   7.982   1.833 -0.1444 -0.5471  0.6213
   41MOL    C6722547   0.188   8.107   1.881 -0.4300  0.2820 -0.1150
   41MOL    C6822548   0.089   0.060   1.887  0.2870  0.2091  0.5778
   41MOL    N6922549   0.119   0.193   1.937  0.3532  0.7783 -0.0152
   41MOL    C7022550   8.103   0.032   1.835 -0.5757 -0.3539  0.1283
   41MOL    C7122551   8.076   8.048   1.785 -0.2046  0.3513 -0.5682
   41MOL    O7222552   7.954   7.778   1.792 -0.5127 -0.0941 -0.6215
   41MOL    C7322553   8.145   7.650   1.512 -0.1657  0.0899  0.5334
   41MOL    C7422554   0.015   7.538   1.432 -0.2540  0.5114 -0.1137
   41MOL    O7522555   0.066   7.309   1.278  0.3040 -0.1670 -0.0067
   41MOL    H7622556   7.934   7.323   1.565 -2.2534  1.6315 -1.3037
   41MOL    H7722557   7.903   7.531   1.714  0.2498 -1.6441  0.4946
   41MOL    H7822558   0.097   7.789   1.679  2.2463  3.6220 -0.9407
   41MOL    H7922559   0.244   7.908   1.839  0.5476 -0.0679 -1.8995
   41MOL    H8022560   0.288   8.135   1.909  0.0707 -1.7093  0.1769
   41MOL    H8122561   0.217   0.215   1.922  0.9744  0.1183  2.7377
   41MOL    H8222562   8.016   0.096   1.835 -1.2714 -1.2749  0.6351
   41MOL    H8322563   7.979   8.029   1.743  1.2257 -1.8618 -3.0503
   41MOL    H8422564   0.078   7.723   1.505  1.3905 -1.7800 -2.1492
   41MOL    H8522565   0.093   7.541   1.358  1.1101  2.6592  1.3669
   41MOL    C8622566   0.053   0.280   2.014 -0.9682 -0.0211 -0.3025
   41MOL    C8722567   0.134   0.393   2.071  0.2342 -0.6236 -0.1119
   41MOL    C8822568   0.142   0.414   2.207  0.4946  0.7529  0.7917
   41MOL    C8922569   0.217   0.519   2.259  0.4394  0.4089 -0.4799
   41MOL    C9022570   0.286   0.609   2.174 -0.5605  0.0080 -0.2602
   41MOL    C9122571   0.365   0.725   2.236  0.1718 -0.2705 -0.0758
   41MOL    N9222572   0.470   0.769   2.162  0.1349 -0.2508 -0.3238
   41MOL    C9322573   0.577   0.845   2.208 -0.4292 -0.5703 -0.1421
   41MOL    C9422574   0.706   0.806   2.184  0.4808  0.0745  0.0214
   41MOL    C9522575   0.813   0.875   2.243  0.4985  0.1485  0.0104
   41MOL    C9622576   0.784   0.976   2.335  0.3212 -0.4116  0.3976
   41MOL    N9722577   0.896   1.037   2.401  0.0854 -0.7295 -0.2719
   41MOL    C9822578   0.655   1.021   2.349  0.5682 -0.7686 -0.4378
   41MOL    C9922579   0.550   0.954   2.288  0.1667  0.1076 -0.6921
   41MOL   O10022580   0.332   0.779   2.340  0.7121  0.1269 -0.2021
   41MOL   C10122581   0.279   0.588   2.033  0.4189  0.0696  0.0312
   41MOL   C10222582   0.204   0.478   1.984 -0.5766  0.1766  0.2219
   41MOL   O10322583   8.091   0.254   2.061  0.2352 -0.3742  0.2806
   41MOL   H10422584   0.079   0.349   2.266  0.4363 -1.1451 -1.3022
   41MOL   H10522585   0.225   0.524   2.366 -0.6512 -0.0998 -0.3676
   41MOL   H10622586   0.501   0.712   2.085 -2.6093 -1.0010 -0.9144
   41MOL   H10722587   0.726   0.717   2.127  0.2504 -1.2312  1.9342
   41MOL   H10822588   0.914   0.844   2.222  1.3930  2.7182  0.2706
   41MOL   H10922589   0.963   1.076   2.336 -0.6261 -0.2360 -0.7198
   41MOL   H11022590   0.644   1.113   2.404 -1.4055 -2.2089  1.6402
   41MOL   H11122591   0.452   0.987   2.319  0.2860  0.3542 -0.5716
   41MOL   H11222592   0.327   0.649   1.958 -1.7288  2.4041  0.4823
   41MOL   H11322593   0.210   0.453   1.879 -1.3205  1.0106 -0.0205
   41MOL   C11422594   0.924   1.049   2.534 -0.3454 -0.9431 -0.2161
   41MOL   C11522595   0.819   0.993   2.627  0.4142 -0.1148  0.0383
   41MOL   C11622596   0.707   1.075   2.665 -0.5104 -0.7168  1.1611
   41MOL   C11722597   0.617   1.035   2.762 -0.2630  0.7942 -0.3389
   41MOL   C11822598   0.634   0.908   2.822  0.4744  0.1928  0.4308
   41MOL   C11922599   0.537   0.866   2.927 -0.1698 -0.3854  0.1214
   41MOL   N12022600   0.414   0.912   2.898 -0.7594 -0.5719 -0.4826
   41MOL   C12122601   0.298   0.884   2.970  0.3924  1.0791 -0.5191
   41MOL   C12222602   0.195   0.977   2.971 -0.6733 -0.9410 -0.0572
   41MOL   C12322603   0.079   0.953   3.042  1.4495 -0.6152  0.1646
   41MOL   C12422604   0.053   0.831   3.097 -0.2012 -1.1484 -0.5643
   41MOL   N12522605   8.069   0.801   3.158 -0.3117 -0.4697  0.9768
   41MOL   C12622606   0.151   0.736   3.095  0.3703 -0.0743  0.6816
   41MOL   C12722607   0.271   0.756   3.025 -0.1840 -0.1344 -0.1445
   41MOL   O12822608   0.571   0.791   3.021  0.2661 -0.0846 -0.0230
   41MOL   C12922609   0.750   0.831   2.790 -0.2569 -0.3054 -0.3418
   41MOL   C13022610   0.846   0.876   2.700 -0.2738 -0.0250 -0.0695
   41MOL   O13122611   1.026   1.110   2.574  0.0960 -0.3168  0.1108
   41MOL   H13222612   0.697   1.173   2.622  0.4318 -1.5163 -0.9605
   41MOL   H13322613   0.535   1.102   2.786 -0.3250  0.9874 -1.0648
   41MOL   H13422614   0.411   0.958   2.809 -0.2012  1.2151  0.4126
   41MOL   H13522615   0.206   1.072   2.921 -0.7385 -2.3269 -2.7465
   41MOL   H13622616   0.009   1.033   3.025  1.8038 -0.2355  0.4769
   41MOL   H13722617   8.043   0.703   3.158  2.0633 -1.1714  3.1003
   41MOL   H13822618   0.130   0.642   3.144  1.7845 -0.7368  0.0214
   41MOL   H13922619   0.347   0.680   3.015  0.6194  0.8482 -1.7583
   41MOL   H14022620   0.764   0.735   2.838  0.1349  1.2613  2.8344
   41MOL   H14122621   0.929   0.809   2.682  1.4616  2.0131  0.0764
   41MOL   C14222622   7.979   0.893   3.201 -0.5244  0.2519  0.2643
   41MOL   C14322623   7.842   0.847   3.232 -0.1623  0.4822 -0.4497
   41MOL   C14422624   7.762   0.760   3.153  0.2559  0.5847 -0.1687
   41MOL   C14522625   7.640   0.710   3.197  0.8606  0.2766  0.6055
   41MOL   C14622626   7.589   0.742   3.320  0.3806  0.4362 -0.1169
   41MOL   C14722627   7.455   0.694   3.368  0.3516 -0.1703 -0.6595
   41MOL   N14822628   7.364   0.790   3.364 -0.5274 -0.4619 -0.2467
   41MOL   C14922629   7.243   0.781   3.436  0.4338 -0.1319  0.1025
   41MOL   C15022630   7.151   0.679   3.401  0.2017  0.1383 -0.2653
   41MOL   C15122631   7.023   0.666   3.446 -0.0066  0.3651  0.0714
   41MOL   C15222632   6.979   0.761   3.538  0.1558 -0.2958 -1.0148
   41MOL   N15322633   6.841   0.761   3.575 -0.1532  0.1188 -0.2686
   41MOL   C15422634   7.062   0.863   3.580  0.2770 -0.4899  0.2583
   41MOL   C15522635   7.198   0.872   3.533 -0.3988 -0.1162  0.2709
   41MOL   O15622636   7.439   0.581   3.416 -0.3407  0.7642 -0.0329
   41MOL   C15722637   7.658   0.835   3.393  0.3034  0.8185 -0.2475
   41MOL   C15822638   7.776   0.894   3.350  0.6227 -0.4286 -0.0808
   41MOL   O15922639   8.013   1.006   3.230  0.8613 -0.8681 -0.4874
   41MOL   H16022640   7.789   0.727   3.054 -1.0207  2.8033 -1.2880
   41MOL   H16122641   7.581   0.656   3.124  1.6139  0.8719 -0.4514
   41MOL   H16222642   7.378   0.876   3.313 -0.1525 -1.2460 -1.4801
   41MOL   H16322643   7.175   0.594   3.338  1.4756 -1.9042  2.8421
   41MOL   H16422644   6.955   0.587   3.417  0.1126 -0.1617  1.1846
   41MOL   H16522645   6.787   0.745   3.492  0.9590 -0.4620 -0.8829
   41MOL   H16622646   7.029   0.944   3.643  0.8463  0.0233 -0.0887
   41MOL   H16722647   7.261   0.957   3.553 -1.5653  0.9061 -0.2898
   41MOL   H16822648   7.624   0.857   3.493 -0.6583  2.2074 -0.8619
   41MOL   H16922649   7.833   0.958   3.416 -0.0631  0.4091 -0.2953
   41MOL   C17022650   6.782   0.792   3.693 -0.0850  0.4230  0.4179
   41MOL   C17122651   6.632   0.765   3.707  0.3273 -0.1991  0.0966
   41MOL   C17222652   6.553   0.741   3.593  0.0673 -0.1612 -0.0503
   41MOL   C17322653   6.422   0.696   3.602  0.2810 -0.1021 -0.1093
   41MOL   C17422654   6.367   0.686   3.732 -0.1962  0.1845  0.3544
   41MOL   C17522655   6.225   0.647   3.744 -0.2681 -0.1252  0.3109
   41MOL   N17622656   6.205   0.526   3.693 -0.3691  0.0933  0.2733
   41MOL   C17722657   6.084   0.471   3.656 -0.2885  0.5939  0.2999
   41MOL   C17822658   6.013   0.387   3.748  0.7880 -0.2450 -0.0362
   41MOL   C17922659   5.919   0.295   3.698  0.3536  0.6755  0.8645
   41MOL   C18022660   5.878   0.299   3.566 -0.2492  0.0942  0.6400
   41MOL   N18122661   5.780   0.208   3.522 -0.3421  0.4090  0.0317
   41MOL   C18222662   5.933   0.394   3.475  0.5767  0.7476 -0.4653
   41MOL   C18322663   6.037   0.477   3.519  0.5357  0.0118 -0.5679
   41MOL   O18422664   6.138   0.723   3.795 -0.5456  0.9688 -0.2843
   41MOL   C18522665   6.440   0.710   3.845 -0.9230  0.5982 -0.4965
   41MOL   C18622666   6.571   0.750   3.831  0.0333  0.0804  0.2410
   41MOL   O18722667   6.847   0.823   3.790 -0.8663  0.2229 -0.3531
   41MOL   H18822668   6.604   0.740   3.497 -0.6720  2.3673 -0.5104
   41MOL   H18922669   6.355   0.673   3.521 -0.8120 -0.8696  0.9900
   41MOL   H19022670   6.291   0.477   3.674 -0.0079 -0.1843  2.5141
   41MOL   H19122671   6.043   0.390   3.852  0.2133  1.2700  0.1033
   41MOL   H19222672   5.870   0.225   3.763 -0.1983  0.4155  0.1712
   41MOL   H19322673   5.780   0.121   3.574  0.2134  0.9536  0.9460
   41MOL   H19422674   5.904   0.387   3.371  1.3368 -1.7474 -0.5274
   41MOL   H19522675   6.089   0.545   3.453 -0.6722  1.0438 -0.4735
   41MOL   H19622676   6.394   0.688   3.941 -0.3127 -0.7287 -0.4900
   41MOL   H19722677   6.631   0.751   3.921  0.7612 -2.1047 -0.2020
   41MOL   C19822678   5.696   0.216   3.413 -0.4156 -0.1857 -0.7400
   41MOL   C19922679   5.642   0.087   3.367  0.9041  0.1841 -0.3186
   41MOL   C20022680   5.499   0.066   3.354 -0.1640  0.2715  0.6183
   41MOL   C20122681   5.445   8.086   3.325 -0.1442  0.7182  0.0147
   41MOL   C20222682   5.537   7.986   3.278 -0.2519  0.3550 -0.6513
   41MOL   C20322683   5.486   7.857   3.231  0.9411 -0.1871  0.1323
   41MOL   N20422684   5.525   7.830   3.108  0.7408 -0.4719  0.0495
   41MOL   C20522685   5.550   7.703   3.045 -0.5232 -0.1458 -0.5394
   41MOL   C20622686   5.493   7.584   3.093 -0.2574 -0.1749 -0.7548
   41MOL   C20722687   5.536   7.455   3.043  0.1246 -0.2053  0.6589
   41MOL   C20822688   5.625   7.456   2.934  0.3124 -0.2861  0.2003
   41MOL   N20922689   5.670   7.335   2.884  0.1864 -0.5017 -0.3880
   41MOL   C21022690   5.681   7.578   2.888 -0.5228 -0.0618 -0.4068
   41MOL   C21122691   5.642   7.705   2.940 -0.4713  0.1299 -0.3427
   41MOL   O21222692   5.402   7.795   3.301  0.0724  0.6193  0.2265
   41MOL   C21322693   5.675   8.004   3.286 -0.4535  0.9624 -0.8197
   41MOL   C21422694   5.732   8.124   3.340  0.3225  0.2439 -0.0214
   41MOL   O21522695   5.662   0.320   3.367 -0.0077  0.4528  0.3463
   41MOL   H21622696   5.434   0.147   3.381 -0.4831  0.9530 -2.0381
   41MOL   H21722697   5.339   8.068   3.328  0.0355 -0.2399  2.5307
   41MOL   H21822698   5.563   7.915   3.068 -0.4950  0.2066  0.3044
   41MOL   H21922699   5.423   7.584   3.175  1.0022  0.6205  0.3470
   41MOL   H22022700   5.502   7.360   3.082  1.3645 -1.3833 -1.0446
   41MOL   H22122701   5.683   7.259   2.950  2.0321  0.5041  0.4208
   41MOL   H22222702   5.754   7.566   2.810  1.4681 -1.4908  1.5925
   41MOL   H22322703   5.687   7.795   2.902  0.2862  0.1795  0.6371
   41MOL   H22422704   5.738   7.920   3.262  0.2596  1.1517  0.3698
   41MOL   H22522705   5.839   8.136   3.355  0.3102  1.4598 -0.8107
   41MOL   C22622706   5.682   7.298   2.754 -0.0608 -0.2110  0.1026
   41MOL   C22722707   5.720   7.155   2.731  0.3269 -0.0545 -0.2173
   41MOL   C22822708   5.751   7.122   2.596 -0.3231 -0.0586 -0.2669
   41MOL   C22922709   5.802   6.995   2.564 -0.1100 -0.3238  0.2807
   41MOL   C23022710   5.817   6.893   2.660  0.1734  0.0845  0.1215
   41MOL   C23122711   5.858   6.755   2.626  0.5568 -0.1265  0.2928
   41MOL   N23222712   5.824   6.712   2.505 -0.1518 -0.3528  0.3643
   41MOL   C23322713   5.850   6.586   2.448 -0.8775  0.0553  0.1204
   41MOL   C23422714   5.881   6.581   2.309 -0.1840 -0.1344  0.0579
   41MOL   C23522715   5.898   6.453   2.250  0.3649 -0.6752  0.1227
   41MOL   C23622716   5.877   6.327   2.318 -0.0544  0.2996 -0.6597
   41MOL   N23722717   5.878   6.208   2.247  0.0033  0.2464  0.1148
   41MOL   C23822718   5.852   6.335   2.458  0.6964  0.4541 -0.7144
   41MOL   C23922719   5.842   6.461   2.521 -0.0001 -0.3519  0.5640
   41MOL   O24022720   5.920   6.683   2.701 -0.6116  0.0435 -0.1308
   41MOL   C24122721   5.788   6.933   2.792  0.1580  0.0862 -0.3633
   41MOL   C24222722   5.745   7.062   2.829 -0.7854  0.5957 -0.0108
   41MOL   O24322723   5.672   7.380   2.657  0.1120  0.2278  0.1634
   41MOL   H24422724   5.738   7.197   2.519  0.2846  0.1077 -0.2089
   41MOL   H24522725   5.820   6.972   2.460 -1.4358 -1.0597  0.1989
   41MOL   H24622726   5.778   6.781   2.447  2.1655 -0.7689 -2.0637
   41MOL   H24722727   5.894   6.667   2.245  0.2207  1.0926  1.7547
   41MOL   H24822728   5.913   6.445   2.143 -0.4170 -2.9947  0.1377
   41MOL   H24922729   5.840   6.129   2.297  2.1544 -0.5312  0.5597
   41MOL   H25022730   5.851   6.249   2.524  0.5177  1.3766  0.4922
   41MOL   H25122731   5.824   6.473   2.627  1.7874  1.9251  0.6684
   41MOL   H25222732   5.817   6.869   2.875 -2.3564 -1.3859 -0.5768
   41MOL   H25322733   5.742   7.082   2.935 -2.2410 -1.2114  0.3347
   41MOL   C25422734   5.934   6.180   2.130  0.5808  0.2741  0.0498
   41MOL   C25522735   5.874   6.056   2.065  0.5532 -0.6386 -0.1653
   41MOL   C25622736   5.862   5.934   2.135  0.0974  0.1833  0.6383
   41MOL   C25722737   5.799   5.822   2.075 -0.1473  0.0310  0.1212
   41MOL   C25822738   5.766   5.829   1.934 -0.1551 -0.1114  0.4339
   41MOL   C25922739   5.718   5.715   1.856 -0.3227  0.2734 -0.3224
   41MOL   N26022740   5.625   5.645   1.921 -0.2331  0.0141 -0.5934
   41MOL   C26122741   5.532   5.546   1.871  0.0275 -0.1238  0.0662
   41MOL   C26222742   5.579   5.438   1.801  0.5583  0.6200 -0.5401
   41MOL   C26322743   5.497   5.336   1.747 -0.3656  0.5183  0.5354
   41MOL   C26422744   5.361   5.338   1.774  0.2536  0.9911 -0.6961
   41MOL   N26522745   5.277   5.247   1.714  0.2073  0.2757 -0.3938
   41MOL   C26622746   5.315   5.438   1.858  0.2233 -0.4743  0.2320
   41MOL   C26722747   5.398   5.540   1.913  0.7228  0.7695 -0.4255
   41MOL   O26822748   5.756   5.692   1.743 -0.3269 -0.2288 -0.3079
   41MOL   C26922749   5.793   5.950   1.866  0.4613 -0.1173  0.1885
   41MOL   C27022750   5.838   6.069   1.931 -0.2091  0.3651  0.2188
   41MOL   O27122751   6.017   6.249   2.073 -0.2538  0.5584 -0.2236
   41MOL   H27222752   5.894   5.922   2.238 -0.6187 -2.1174  0.6191
   41MOL   H27322753   5.781   5.727   2.123  2.4891  0.3167  1.7754
   41MOL   H27422754   5.586   5.698   1.998 -1.7889 -2.3348  0.3049
   41MOL   H27522755   5.684   5.441   1.775  0.9340  1.9134  1.0478
   41MOL   H27622756   5.534   5.262   1.676 -0.0396 -0.4834  1.7390
   41MOL   H27722757   5.258   5.250   1.615 -0.5685  0.8070 -0.2321
   41MOL   H27822758   5.211   5.452   1.881  0.1529 -2.2312  1.0519
   41MOL   H27922759   5.359   5.622   1.972  2.2006 -0.0175  1.6856
   41MOL   H28022760   5.775   5.950   1.760  1.8095 -0.2308 -0.0494
   41MOL   H28122761   5.839   6.170   1.892  2.1579  0.8131  1.3589
   41MOL   C28222762   5.235   5.144   1.790 -0.0279 -0.0904  0.4735
   41MOL   C28322763   5.139   5.047   1.727 -0.7064  0.0439 -0.1742
   41MOL   C28422764   5.053   4.966   1.808 -0.5616 -0.7679  0.5185
   41MOL   C28522765   4.955   4.886   1.751  0.4627 -0.3251 -0.1004
   41MOL   C28622766   4.937   4.878   1.612  0.4437  0.1461 -0.8204
   41MOL   C28722767   4.817   4.803   1.560 -0.9632 -0.1533  0.4874
   41MOL   N28822768   4.841   4.736   1.445 -0.2254  0.5039  0.5940
   41MOL   C28922769   4.743   4.670   1.350  0.8734 -0.5691 -0.0726
   41MOL   C29022770   4.608   4.642   1.387 -0.0915 -0.2134 -0.3134
   41MOL   C29122771   4.518   4.585   1.292 -0.7863 -1.1164  0.2650
   41MOL   C29222772   4.556   4.559   1.164 -0.1578 -0.9096 -0.2379
   41MOL   N29322773   4.465   4.498   1.071  0.5528  0.0582  0.4060
   41MOL   C29422774   4.691   4.575   1.124  0.4244  0.6169 -0.0535
   41MOL   C29522775   4.782   4.635   1.216 -0.2997  0.1878  0.5037
   41MOL   O29622776   4.714   4.809   1.623 -0.0975 -0.2412  0.0324
   41MOL   C29722777   5.034   4.934   1.531 -0.0857 -0.1163 -0.3618
   41MOL   C29822778   5.124   5.029   1.587  0.5060  0.6081 -0.0471
   41MOL   O29922779   5.267   5.135   1.909  0.3717 -0.5968 -0.0345
   41MOL   H30022780   5.053   4.967   1.916  1.7924  0.4387  0.5360
   41MOL   H30122781   4.885   4.839   1.818  0.5910  0.4030  0.5473
   41MOL   H30222782   4.930   4.753   1.402  0.2829  1.6941  2.0658
   41MOL   H30322783   4.567   4.691   1.474  0.3599 -0.9059  0.2947
   41MOL   H30422784   4.419   4.569   1.333 -1.3009  1.1544 -0.0401
   41MOL   H30522785   4.412   4.561   1.013 -0.5575 -0.0728  1.2561
   41MOL   H30622786   4.718   4.558   1.021 -0.9866 -3.0063  0.0844
   41MOL   H30722787   4.882   4.656   1.181 -0.2920  0.1100  0.4789
   41MOL   H30822788   5.037   4.924   1.424  1.9350  1.6717 -0.5130
   41MOL   H30922789   5.176   5.079   1.506  0.5155 -0.3408 -0.6309
   41MOL   C31022790   4.429   4.366   1.063 -0.4917  0.1181 -0.4777
   41MOL   C31122791   4.499   4.264   1.154 -0.2152  0.1448 -0.3160
   41MOL   C31222792   4.591   4.176   1.102 -0.6347  0.1212  0.3095
   41MOL   C31322793   4.636   4.076   1.190  0.1492 -0.4667  0.3450
   41MOL   C31422794   4.606   4.069   1.326  0.8053  0.1357 -0.6444
   41MOL   C31522795   4.668   3.964   1.415  0.7237  0.1858  0.6588
   41MOL   N31622796   4.785   3.986   1.480 -0.1401 -0.8068  0.1276
   41MOL   C31722797   4.886   4.091   1.495  0.2119  0.4705  0.1678
   41MOL   C31822798   5.012   4.053   1.552 -0.2843 -0.3901  0.0181
   41MOL   C31922799   5.107   4.155   1.573 -0.0532  0.5194 -0.8461
   41MOL   C32022800   5.083   4.284   1.530 -0.0686 -0.2234  0.3328
   41MOL   N32122801   5.187   4.377   1.559 -0.2225 -0.0077  0.0103
   41MOL   C32222802   4.956   4.324   1.484  0.4648 -0.1907  0.4464
   41MOL   C32322803   4.860   4.222   1.459  0.2921  0.4348  0.2321
   41MOL   O32422804   4.614   3.857   1.436 -0.5978 -0.1239  0.8936
   41MOL   C32522805   4.516   4.168   1.377  1.0705  1.0232  0.4395
   41MOL   C32622806   4.461   4.262   1.290 -0.8746 -0.0242 -0.5416
   41MOL   O32722807   4.356   4.328   0.974 -0.0648 -0.1687  0.1871
   41MOL   H32822808   4.625   4.169   1.000  0.8867 -0.7955  0.8558
   41MOL   H32922809   4.705   4.001   1.155 -1.2675 -1.1063 -1.1656
   41MOL   H33022810   4.807   3.907   1.538 -0.7196 -0.3787  0.9493
   41MOL   H33122811   5.036   3.952   1.580  2.8627  0.3785  0.2584
   41MOL   H33222812   5.199   4.125   1.621  0.5697 -0.9785 -2.9032
   41MOL   H33322813   5.263   4.329   1.606 -0.2438 -0.3501 -0.3006
   41MOL   H33422814   4.938   4.428   1.461  0.9956 -0.7285 -2.6873
   41MOL   H33522815   4.765   4.264   1.426 -0.2344 -1.2002 -0.3988
   41MOL   H33622816   4.496   4.170   1.483 -0.0103 -0.2259  0.2813
   41MOL   H33722817   4.386   4.332   1.323  1.2751  2.1604 -0.1308
   41MOL   C33822818   5.195   4.511   1.527  0.4581  0.2502 -1.1401
   41MOL   C33922819   5.307   4.580   1.588  0.1518 -0.3394 -0.6659
   41MOL   C34022820   5.289   4.710   1.638 -0.3327 -0.1502  0.9892
   41MOL   C34122821   5.394   4.779   1.698  0.4613  0.1584  0.5183
   41MOL   C34222822   5.529   4.722   1.694 -0.8806 -0.6035 -0.2769
   41MOL   C34322823   5.644   4.802   1.749 -0.1852  0.7347  0.6974
   41MOL   N34422824   5.613   4.893   1.838 -0.0601 -0.7661  0.3311
   41MOL   C34522825   5.700   4.984   1.906 -0.2721  0.5826  0.4566
   41MOL   C34622826   5.655   5.110   1.944 -0.7282 -0.4633  0.1040
   41MOL   C34722827   5.739   5.201   2.012  0.6120 -0.6431  0.6700
   41MOL   C34822828   5.871   5.171   2.042 -0.3735  0.3597 -0.3360
   41MOL   N34922829   5.957   5.262   2.111 -0.2037 -0.7434  1.0762
   41MOL   C35022830   5.912   5.039   2.010  0.4653 -0.2713 -0.7801
   41MOL   C35122831   5.834   4.948   1.943 -0.6159  0.2606  0.0458
   41MOL   O35222832   5.757   4.778   1.708 -0.5063 -0.6427  0.0502
   41MOL   C35322833   5.547   4.593   1.635  0.4341 -0.5834 -0.3506
   41MOL   C35422834   5.436   4.523   1.591 -0.2347  0.0792 -0.4679
   41MOL   O35522835   5.119   4.578   1.455 -0.0593 -0.2376 -0.0941
   41MOL   H35622836   5.192   4.754   1.621  2.1231  3.7852 -4.1442
   41MOL   H35722837   5.382   4.876   1.745 -0.4152  0.8582 -1.0925
   41MOL   H35822838   5.515   4.918   1.839 -0.3301 -1.3643 -3.3063
   41MOL   H35922839   5.557   5.143   1.911 -0.8194  0.2218  1.0385
   41MOL   H36022840   5.687   5.294   2.033  2.5324  0.1911  1.8723
   41MOL   H36122841   6.043   5.224   2.149  1.4139  0.6539 -1.0891
   41MOL   H36222842   6.010   5.008   2.043 -0.1045 -0.9483  0.3033
   41MOL   H36322843   5.879   4.856   1.909 -0.2649 -0.0536  1.3285
   41MOL   H36422844   5.643   4.545   1.648  0.4899 -0.1908  0.6352
   41MOL   H36522845   5.445   4.426   1.543  0.8804  0.0872 -0.2709
   41MOL   C36622846   5.934   5.383   2.155 -0.5705 -0.4816  0.0771
   41MOL   C36722847   6.055   5.444   2.233 -0.6657 -0.2257 -0.4013
   41MOL   C36822848   6.063   5.587   2.252 -0.1470  0.1595 -0.3265
   41MOL   C36922849   6.169   5.633   2.340 -0.2244  0.1158 -0.2389
   41MOL   C37022850   6.267   5.547   2.394  0.1174 -0.0368 -0.1043
   41MOL   C37122851   6.377   5.603   2.480 -0.5143  1.1837 -0.6073
   41MOL   N37222852   6.486   5.525   2.473 -0.2382 -0.3312  0.4863
   41MOL   C37322853   6.579   5.505   2.581  0.3592 -0.0405  0.2129
   41MOL   C37422854   6.566   5.556   2.706  0.4244 -0.1860 -0.0888
   41MOL   C37522855   6.648   5.514   2.815 -0.2273  1.0778  0.4332
   41MOL   C37622856   6.743   5.408   2.792 -0.3218 -0.4137  0.3923
   41MOL   N37722857   6.812   5.350   2.902  0.6986  0.1762 -0.8479
   41MOL   C37822858   6.767   5.366   2.660 -0.0063  0.1499  0.2501
   41MOL   C37922859   6.693   5.417   2.552  0.6004  0.4598 -0.0204
   41MOL   O38022860   6.369   5.712   2.534  0.2757 -0.0919 -0.4378
   41MOL   C38122861   6.248   5.410   2.380 -0.9528 -0.0536 -0.3477
   41MOL   C38222862   6.139   5.362   2.305 -0.1753  0.3181 -0.0534
   41MOL   O38322863   5.836   5.454   2.134  0.9483  0.0593 -0.1815
   41MOL   H38422864   5.987   5.650   2.209 -0.0515  0.6070  0.1616
   41MOL   H38522865   6.188   5.739   2.347 -0.8896  0.0928  2.1654
   41MOL   H38622866   6.479   5.466   2.392  1.6500  1.1310 -0.7791
   41MOL   H38722867   6.492   5.633   2.723  3.0908  2.5852 -0.5025
   41MOL   H38822868   6.620   5.553   2.912 -2.4177 -0.9047  0.6411
   41MOL   H38922869   6.784   5.386   2.992 -0.0455 -0.4432 -0.8329
   41MOL   H39022870   6.852   5.302   2.637  0.0051  0.3753 -0.3597
   41MOL   H39122871   6.702   5.364   2.459 -1.3994  1.5051 -0.8533
   41MOL   H39222872   6.309   5.334   2.426 -1.0366  0.6031  0.8629
   41MOL   H39322873   6.139   5.254   2.293  3.6528  0.2269 -0.0847
   41MOL   C39422874   6.855   5.223   2.912 -0.7047  0.5725 -0.1461
   41MOL   C39522875   6.847   5.168   3.050  0.5423 -0.5172 -0.1132
   41MOL   C39622876   6.721   5.185   3.123  0.3512  0.0835  0.1869
   41MOL   C39722877   6.708   5.122   3.247 -0.0364  0.5343  0.0185
   41MOL   C39822878   6.802   5.026   3.293 -1.3614  0.1364  0.2966
   41MOL   C39922879   6.772   4.926   3.406 -0.2565 -0.0981 -0.0599
   41MOL   N40022880   6.713   4.993   3.501  0.2247 -0.0454 -0.1498
   41MOL   C40122881   6.597   4.964   3.570 -0.3192 -0.7263 -0.3246
   41MOL   C40222882   6.563   4.834   3.609 -0.9459  0.1061 -0.2421
   41MOL   C40322883   6.439   4.807   3.674  0.5584 -0.4677  0.1907
   41MOL   C40422884   6.348   4.909   3.690  0.0453 -0.0206  0.2578
   41MOL   N40522885   6.220   4.888   3.744  0.2426 -0.0733  0.1515
   41MOL   C40622886   6.383   5.043   3.653  0.3251  0.1403 -0.7854
   41MOL   C40722887   6.505   5.073   3.592 -0.5943 -0.2317 -0.1325
   41MOL   O40822888   6.828   4.809   3.421  0.2630 -0.6776 -0.3340
   41MOL   C40922889   6.920   5.009   3.217 -0.1196 -0.4352 -0.9541
   41MOL   C41022890   6.943   5.081   3.099  0.1836 -0.1303  0.2810
   41MOL   O41122891   6.921   5.162   2.826 -0.0270 -0.1005  0.5544
   41MOL   H41222892   6.641   5.242   3.079  1.1878  2.1325  1.2561
   41MOL   H41322893   6.607   5.121   3.287 -0.8494 -2.2206 -1.9860
   41MOL   H41422894   6.730   5.091   3.483 -1.7544  0.1110 -1.3196
   41MOL   H41522895   6.641   4.760   3.602  0.7184  1.6463  1.4732
   41MOL   H41622896   6.421   4.706   3.706  2.2392 -0.4732  1.1840
   41MOL   H41722897   6.177   4.972   3.780 -2.1730  0.1978 -3.1745
   41MOL   H41822898   6.314   5.125   3.665  0.4111  0.1800 -0.5528
   41MOL   H41922899   6.534   5.168   3.550 -0.7196  0.4013  1.1884
   41MOL   H42022900   6.984   4.928   3.249 -1.3617 -1.0747 -0.0675
   41MOL   H42122901   7.037   5.071   3.046  0.6637  0.5027  0.9988
   41MOL   C42222902   6.146   4.776   3.762  0.2727  0.0494 -0.8958
   41MOL   C42322903   6.006   4.804   3.813 -0.6567 -0.5168  0.7959
   41MOL   C42422904   5.901   4.718   3.771  0.7043 -0.2873  0.3898
   41MOL   C42522905   5.769   4.751   3.808 -0.2952  0.6819 -0.9052
   41MOL   C42622906   5.742   4.871   3.883 -0.0698 -0.1694 -0.4040
   41MOL   C42722907   5.604   4.911   3.921  0.7168  0.4951  1.2017
   41MOL   N42822908   5.584   5.037   3.972  0.1371  1.1479 -0.0041
   41MOL   C42922909   5.464   5.118   3.969 -0.2198  0.1152 -0.5184
   41MOL   C43022910   5.460   5.229   4.058  0.8323  0.0241 -0.6343
   41MOL   C43122911   5.345   5.318   4.057  0.3346  0.0325  0.3188
   41MOL   C43222912   5.241   5.294   3.961  0.1219 -0.0059 -0.7053
   41MOL   N43322913   5.123   5.370   3.956  0.0759 -0.9112  0.0130
   41MOL   C43422914   5.240   5.181   3.886  1.2940  0.5025  0.7115
   41MOL   C43522915   5.349   5.090   3.893 -0.2593  0.1456  0.3514
   41MOL   O43622916   5.515   4.824   3.914  0.1669  0.0969  0.2384
   41MOL   C43722917   5.849   4.956   3.923 -0.3770 -0.1647 -0.0955
   41MOL   C43822918   5.983   4.923   3.885  0.3697  0.3095  0.6972
   41MOL   O43922919   6.183   4.662   3.733  0.1484 -0.6267 -0.2416
   41MOL   H44022920   5.910   4.631   3.708 -1.5505  0.9202 -1.6735
   41MOL   H44122921   5.689   4.683   3.785  0.3694 -0.1347 -0.8373
   41MOL   H44222922   5.658   5.077   4.027  1.5971  1.3932 -2.0978
   41MOL   H44322923   5.553   5.251   4.108 -0.5376  2.7311  0.8775
   41MOL   H44422924   5.346   5.397   4.131 -2.1128 -2.0157  2.6761
   41MOL   H44522925   5.029   5.334   3.969 -0.4796  0.4463 -0.1561
   41MOL   H44622926   5.155   5.166   3.822  1.0180 -0.1416  1.2250
   41MOL   H44722927   5.347   5.000   3.833 -2.0639  0.3227  0.0940
   41MOL   H44822928   5.848   5.049   3.978 -0.3124 -1.8068  2.7539
   41MOL   H44922929   6.063   4.993   3.908 -0.8685  2.1739 -0.5325
   41MOL   C45022930   5.119   5.499   3.904  0.7180  0.2250 -0.1659
   41MOL   C45122931   4.982   5.567   3.895 -0.1017  0.0836 -0.4249
   41MOL   C45222932   4.873   5.496   3.841  0.0024 -0.6635 -0.1024
   41MOL   C45322933   4.747   5.557   3.825 -0.2120  0.6503  0.2129
   41MOL   C45422934   4.723   5.691   3.866  0.4490  0.7685 -0.3310
   41MOL   C45522935   4.580   5.745   3.860  0.1288  0.2170  1.1304
   41MOL   N45622936   4.522   5.719   3.739  0.7808 -0.4824 -0.3439
   41MOL   C45722937   4.391   5.746   3.694 -0.2217  0.4242  0.2507
   41MOL   C45822938   4.326   5.866   3.710  0.1122 -0.0848  0.0922
   41MOL   C45922939   4.195   5.888   3.662 -0.2956  0.2711  0.6762
   41MOL   C46022940   4.133   5.788   3.580  0.0421 -0.1836 -0.0476
   41MOL   N46122941   4.012   5.824   3.520  0.0867  0.2200  0.5642
   41MOL   C46222942   4.197   5.664   3.569 -0.1653  0.2183  0.5839
   41MOL   C46322943   4.323   5.645   3.626  0.9076  0.1037  0.1201
   41MOL   O46422944   4.523   5.811   3.946 -0.1808  0.7399  0.4207
   41MOL   C46522945   4.833   5.755   3.932  0.1391 -0.2571 -0.3155
   41MOL   C46622946   4.962   5.700   3.938  0.0362  0.2884 -0.0258
   41MOL   O46722947   5.217   5.564   3.859  0.3274 -0.2860 -0.0490
   41MOL   H46822948   4.876   5.390   3.821 -1.0314 -1.2754  2.7601
   41MOL   H46922949   4.672   5.497   3.775  0.4177 -1.0010  1.1791
   41MOL   H47022950   4.583   5.673   3.673  1.0933  1.4848 -1.4802
   41MOL   H47122951   4.367   5.945   3.771 -0.0199 -0.2806  0.4412
   41MOL   H47222952   4.147   5.984   3.677  1.9620  1.3522  1.1853
   41MOL   H47322953   3.970   5.904   3.565  2.1616  0.5822  1.8890
   41MOL   H47422954   4.158   5.587   3.505  0.6862  0.1356  0.1494
   41MOL   H47522955   4.371   5.552   3.601  0.0203 -0.3420  0.0900
   41MOL   H47622956   4.821   5.853   3.976  0.1233 -0.2489 -0.3384
   41MOL   H47722957   5.045   5.745   3.990 -1.0986  2.1914  0.1773
   41MOL   C47822958   3.945   5.780   3.410 -0.2358 -0.8630 -0.5541
   41MOL   C47922959   3.815   5.846   3.364  0.7102  0.3336  0.5410
   41MOL   C48022960   3.774   5.829   3.226  0.3909  0.8566 -0.2377
   41MOL   C48122961   3.647   5.883   3.190 -0.8490  0.2343  0.1310
   41MOL   C48222962   3.563   5.959   3.277  0.6442  0.6033 -0.1899
   41MOL   C48322963   3.435   6.030   3.226  0.1591 -0.7140  0.3721
   41MOL   N48422964   3.384   5.975   3.115  0.1626 -0.7351  0.2496
   41MOL   C48522965   3.262   6.017   3.053 -0.1419  0.4144 -0.0468
   41MOL   C48622966   3.161   6.092   3.123 -0.0132  0.0148  0.6307
   41MOL   C48722967   3.037   6.120   3.062 -0.7406 -0.2542 -0.3894
   41MOL   C48822968   3.011   6.081   2.927 -0.5982 -0.2897 -0.0685
   41MOL   N48922969   2.881   6.109   2.875  0.3008  0.2201  0.0246
   41MOL   C49022970   3.110   6.013   2.854 -0.4545 -0.1885  0.0174
   41MOL   C49122971   3.236   5.983   2.917  0.3080 -0.3613  0.3972
   41MOL   O49222972   3.391   6.124   3.286  0.4937  0.2450  0.2755
   41MOL   C49322973   3.608   5.966   3.412  0.4721  0.7920 -0.9682
   41MOL   C49422974   3.730   5.913   3.455 -0.7608 -0.0993 -0.2931
   41MOL   O49522975   3.999   5.694   3.340  0.1872  0.3000  0.3279
   41MOL   H49622976   3.838   5.774   3.159 -0.2268 -0.4670  0.2387
   41MOL   H49722977   3.617   5.875   3.086  0.9038 -0.5158 -0.3271
   41MOL   H49822978   3.431   5.890   3.089  1.3928  0.1981 -0.6057
   41MOL   H49922979   3.165   6.125   3.226 -3.2717 -1.4791  1.2801
   41MOL   H50022980   2.961   6.176   3.115  0.3606 -0.5917  1.5902
   41MOL   H50122981   2.842   6.198   2.902 -1.7370 -1.2196  2.1054
   41MOL   H50222982   3.085   5.989   2.752  2.6871 -0.6430 -0.6950
   41MOL   H50322983   3.315   5.943   2.856  1.9516  0.2293  2.0978
   41MOL   H50422984   3.542   6.021   3.477 -2.9608 -3.4411 -0.5955
   41MOL   H50522985   3.750   5.912   3.561 -1.0316 -1.0108 -0.2423
   41MOL   C50622986   2.802   6.011   2.818  0.5205  0.2341  0.4020
   41MOL   C50722987   2.665   6.052   2.763  0.6489 -0.2871  0.5626
   41MOL   C50822988   2.594   5.966   2.673  0.0767  0.4383  0.5131
   41MOL   C50922989   2.467   6.004   2.630 -0.3760  0.0714 -0.3578
   41MOL   C51022990   2.405   6.127   2.674  0.8313  0.4599  0.6242
   41MOL   C51122991   2.263   6.171   2.648  0.2385 -0.2437  0.3282
   41MOL   N51222992   2.262   6.289   2.580 -0.6344 -0.5105 -0.4229
   41MOL   C51322993   2.145   6.358   2.530  0.2913  0.5787  0.8818
   41MOL   C51422994   2.164   6.492   2.494 -0.4457 -0.6426 -0.0922
   41MOL   C51522995   2.064   6.565   2.430 -0.0040 -0.3789 -0.4583
   41MOL   C51622996   1.930   6.502   2.409 -0.5249 -0.8653  0.1071
   41MOL   N51722997   1.805   6.556   2.360  0.0003 -0.2016 -0.5890
   41MOL   C51822998   1.920   6.366   2.438  0.2868  0.0524 -0.1917
   41MOL   C51922999   2.028   6.294   2.496  0.1621 -0.4600  0.6198
   41MOL   O52023000   2.165   6.098   2.667 -0.2351 -0.5640  0.5368
   41MOL   C52123001   2.484   6.209   2.762  0.1595  0.6838 -0.3692
   41MOL   C52223002   2.611   6.175   2.805  0.3323  0.5994  0.6738
   41MOL   O52323003   2.839   5.894   2.811 -0.1213  0.3509 -0.4364
   41MOL   H52423004   2.631   5.871   2.638 -0.6818 -0.2832  1.6327
   41MOL   H52523005   2.413   5.938   2.564  0.3329 -0.1373 -0.7373
   41MOL   H52623006   2.350   6.335   2.562 -1.3546  0.7745 -0.6455
   41MOL   H52723007   2.263   6.533   2.505 -0.8771  0.9107 -1.7742
   41MOL   H52823008   2.076   6.670   2.410 -2.2164  0.0185  0.1571
   41MOL   H52923009   1.727   6.497   2.337  0.4970  0.3100 -3.8382
   41MOL   H53023010   1.818   6.328   2.437 -0.2515  1.2600  3.0333
   41MOL   H53123011   2.008   6.190   2.517 -2.4458 -0.6025 -2.2294
   41MOL   H53223012   2.445   6.297   2.812 -1.1038 -1.0289  1.7096
   41MOL   H53323013   2.656   6.247   2.872  0.1523  1.5873 -0.2556
   41MOL   C53423014   1.757   6.679   2.369  0.4490 -0.0597 -0.1962
   41MOL   C53523015   1.612   6.685   2.327  0.2612 -0.6183  0.3455
   41MOL   C53623016   1.563   6.788   2.246 -0.1168 -0.1033  0.5425
   41MOL   C53723017   1.424   6.814   2.236  0.3344 -0.0921 -0.1227
   41MOL   C53823018   1.333   6.724   2.294  0.1069  0.5704  0.3724
   41MOL   C53923019   1.185   6.759   2.291  0.3346 -0.2939 -1.0451
   41MOL   N54023020   1.100   6.662   2.316 -0.1351  0.3864  0.3586
   41MOL   C54123021   0.975   6.671   2.385 -0.1712  0.3421  0.4731
   41MOL   C54223022   0.928   6.545   2.442 -0.1327 -0.1905 -0.3984
   41MOL   C54323023   0.809   6.549   2.512  1.1207  0.1096 -0.3569
   41MOL   C54423024   0.734   6.673   2.521 -0.4750 -0.3034 -0.4377
   41MOL   N54523025   0.632   6.687   2.612 -0.3122 -0.9271  0.1834
   41MOL   C54623026   0.788   6.788   2.469  0.4169  0.6342  0.8107
   41MOL   C54723027   0.901   6.783   2.392  0.0047  0.2786  0.0888
   41MOL   O54823028   1.147   6.870   2.247  0.1011  0.0237 -0.1790
   41MOL   C54923029   1.379   6.613   2.364 -0.2657 -0.2872  0.1948
   41MOL   C55023030   1.516   6.593   2.386  0.0646  0.1387 -0.3123
   41MOL   O55123031   1.817   6.782   2.407  0.9925 -0.2360 -0.1201
   41MOL   H55223032   1.628   6.862   2.201 -1.0624  0.4081 -0.0059
   41MOL   H55323033   1.379   6.897   2.184 -0.1711 -1.3256 -1.7230
   41MOL   H55423034   1.137   6.573   2.287  0.7505  0.5828  0.8950
   41MOL   H55523035   0.980   6.450   2.437  0.0497 -0.0046 -2.2272
   41MOL   H55623036   0.781   6.459   2.565 -2.4944  1.4519  0.1740
   41MOL   H55723037   0.579   6.772   2.607 -1.5860 -1.7234 -0.2414
   41MOL   H55823038   0.745   6.882   2.499 -0.2333  0.4664  0.4226
   41MOL   H55923039   0.941   6.876   2.353  1.1499 -0.7431 -1.2354
   41MOL   H56023040   1.303   6.557   2.416  0.8726 -1.5773  0.4908
   41MOL   H56123041   1.547   6.512   2.450 -0.8475 -1.1427 -1.4760
   41MOL   H56223042   0.589   6.601   2.644  0.2355 -0.4477  2.3406
   42MOL     C123043   5.870   6.948   1.771  0.5892 -0.2680  0.5238
   42MOL     C223044   5.896   6.926   1.631  0.4362 -1.0058  0.5093
   42MOL     C323045   6.015   6.860   1.585  0.6569  0.2755 -0.1152
   42MOL     C423046   6.033   6.844   1.443 -0.2544 -0.4263  0.5254
   42MOL     C523047   5.936   6.893   1.353 -0.1802  0.5076  0.6488
   42MOL     C623048   5.964   6.883   1.204  0.3201 -0.5952 -0.2944
   42MOL     N723049   6.026   6.774   1.174 -0.0255  0.1347 -0.7145
   42MOL     C823050   6.076   6.736   1.046 -1.0699 -0.3494 -0.4631
   42MOL     C923051   6.131   6.816   0.942  0.6825  0.2041 -0.0353
   42MOL    C1023052   6.158   6.760   0.814  0.1303 -0.3123 -0.2179
   42MOL    C1123053   6.145   6.620   0.797  0.4724  0.7672 -0.2631
   42MOL    N1223054   6.161   6.563   0.671  0.2922  0.1821 -0.1803
   42MOL    C1323055   6.109   6.541   0.903 -0.5009 -0.5165  0.2954
   42MOL    C1423056   6.063   6.596   1.024  0.7113  0.9984  0.0433
   42MOL    O1523057   5.927   6.971   1.124  0.0557 -0.5926  0.0195
   42MOL    C1623058   5.813   6.942   1.404 -0.2490 -0.3628 -0.2753
   42MOL    C1723059   5.795   6.971   1.540  0.2230 -0.0611 -0.2258
   42MOL    O1823060   5.943   6.908   1.861 -0.0853  0.8681 -0.3484
   42MOL    H1923061   6.096   6.834   1.651  0.8196  1.2996  0.1046
   42MOL    H2023062   6.127   6.802   1.412  0.5621  1.1697  0.7850
   42MOL    H2123063   6.042   6.710   1.250  1.7287  0.2132 -0.9998
   42MOL    H2223064   6.136   6.923   0.957 -0.2431  0.3325 -0.6075
   42MOL    H2323065   6.196   6.817   0.731  1.6969 -1.9494 -0.6552
   42MOL    H2423066   6.159   6.463   0.663 -1.8422  0.3027 -1.5755
   42MOL    H2523067   6.095   6.435   0.882 -2.0926 -0.2072 -0.2806
   42MOL    H2623068   6.023   6.524   1.094  2.3393 -0.1734 -0.2146
   42MOL    H2723069   5.739   6.956   1.327  0.5158  1.2578 -0.7391
   42MOL    H2823070   5.699   7.004   1.576  0.7157 -0.0542  1.1252
   42MOL    H2923071   5.776   6.998   1.792  0.6471  0.6912 -1.4125
   42MOL    C3023072   6.158   6.615   0.548 -0.4633 -0.8503  0.0084
   42MOL    C3123073   6.192   6.525   0.437 -0.5931  0.4150 -0.0504
   42MOL    C3223074   6.166   6.567   0.302 -0.2628  0.3740  0.1349
   42MOL    C3323075   6.190   6.486   0.195  0.0502 -0.0218  0.1958
   42MOL    C3423076   6.233   6.352   0.208 -0.3890 -0.3885 -0.6856
   42MOL    C3523077   6.228   6.254   0.095  0.4072 -0.0178  0.1041
   42MOL    N3623078   6.318   6.156   0.099  0.5043 -0.5405 -0.1862
   42MOL    C3723079   6.360   6.078   8.134  0.3637  0.5466 -0.0879
   42MOL    C3823080   6.264   6.008   8.055 -0.6629 -0.0001 -0.9809
   42MOL    C3923081   6.313   5.938   7.940  0.3650 -1.0361  0.2687
   42MOL    C4023082   6.449   5.908   7.929  0.2815 -0.3426 -0.1405
   42MOL    N4123083   6.492   5.834   7.817  0.7081 -0.2009 -0.0673
   42MOL    C4223084   6.537   5.971   8.019 -0.0421  0.1541 -0.1572
   42MOL    C4323085   6.497   6.062   8.115  0.6098  0.4776 -0.0672
   42MOL    O4423086   6.141   6.276   0.008 -0.7382  0.5633 -0.3547
   42MOL    C4523087   6.269   6.317   0.340  0.6595  0.1044 -0.0792
   42MOL    C4623088   6.255   6.399   0.453  1.0765 -0.2336 -0.1943
   42MOL    O4723089   6.147   6.736   0.518 -0.2859  0.4013  0.2409
   42MOL    H4823090   6.136   6.670   0.290 -0.5666 -0.0831 -3.5239
   42MOL    H4923091   6.180   6.517   0.092  1.3269 -0.3224 -0.0269
   42MOL    H5023092   6.390   6.158   0.170  1.2884 -2.1055 -0.9140
   42MOL    H5123093   6.160   6.036   8.056 -0.5169  0.5558 -1.1711
   42MOL    H5223094   6.243   5.894   7.871  1.6798 -1.3838 -0.8766
   42MOL    H5323095   6.421   5.791   7.758  0.7919 -1.7046  0.9166
   42MOL    H5423096   6.644   5.963   8.006 -0.2481 -0.7281 -1.4197
   42MOL    H5523097   6.569   6.119   0.026  0.5578  0.1584  0.3156
   42MOL    H5623098   6.306   6.219   0.366  0.8667  0.1688 -0.1334
   42MOL    H5723099   6.273   6.359   0.552  0.6597 -5.0340 -1.9082
   42MOL    C5823100   6.621   5.797   7.784 -0.3067  0.2308 -0.5190
   42MOL    C5923101   6.629   5.721   7.655  0.1436 -0.0157  0.2448
   42MOL    C6023102   6.696   5.601   7.644 -0.1936  0.7061 -0.9091
   42MOL    C6123103   6.706   5.533   7.524 -0.5907 -0.3067 -0.2859
   42MOL    C6223104   6.646   5.594   7.410  0.1548 -0.3591 -0.1087
   42MOL    C6323105   6.652   5.515   7.281 -0.1330 -0.3128  0.3198
   42MOL    N6423106   6.776   5.476   7.257  0.1248 -0.6218  0.0602
   42MOL    C6523107   6.819   5.364   7.183  0.3935  0.0342 -0.6274
   42MOL    C6623108   6.934   5.305   7.226 -0.0840 -0.6727  0.7919
   42MOL    C6723109   6.980   5.190   7.163  0.0584 -0.2060 -0.0143
   42MOL    C6823110   6.906   5.122   7.063  0.0878  0.4451  0.7911
   42MOL    N6923111   6.941   4.999   7.001  0.6295 -0.5455  0.0080
   42MOL    C7023112   6.793   5.187   7.007 -0.4740  0.4651 -0.3736
   42MOL    C7123113   6.754   5.308   7.068  0.0458 -0.4891 -0.7645
   42MOL    O7223114   6.560   5.507   7.201 -0.0173  0.0143  0.1460
   42MOL    C7323115   6.571   5.714   7.415 -0.8968 -0.5963  0.0566
   42MOL    C7423116   6.565   5.778   7.538 -0.6405 -0.1591  0.6099
   42MOL    O7523117   6.721   5.804   7.857  0.1504 -0.7021 -0.1759
   42MOL    H7623118   6.732   5.562   7.738 -1.4791 -0.9265 -1.0596
   42MOL    H7723119   6.765   5.443   7.521  0.2415  0.2348 -0.5150
   42MOL    H7823120   6.843   5.512   7.324 -1.7067 -0.6947  1.9645
   42MOL    H7923121   6.995   5.348   7.305  2.4048 -1.3117 -0.7445
   42MOL    H8023122   7.076   5.163   7.203 -0.4121 -3.1078 -0.7414
   42MOL    H8123123   6.912   4.978   6.907 -0.3748 -2.3195  0.7061
   42MOL    H8223124   6.743   5.141   6.924 -1.0722 -1.3053  0.9400
   42MOL    H8323125   6.661   5.358   7.042 -0.4087 -0.5340  0.7034
   42MOL    H8423126   6.524   5.751   7.325 -1.8465 -0.5991  0.5475
   42MOL    H8523127   6.528   5.879   7.537 -1.7904 -0.5718  0.4370
   42MOL    C8623128   7.010   4.899   7.054  0.0172  0.0172  1.0940
   42MOL    C8723129   7.020   4.780   6.965  0.1630 -0.7541 -0.1747
   42MOL    C8823130   7.112   4.677   7.000 -0.0100  0.0003 -0.8073
   42MOL    C8923131   7.130   4.567   6.920 -0.1328 -0.2789 -0.2221
   42MOL    C9023132   7.074   4.561   6.790  0.3700 -0.1765  0.2160
   42MOL    C9123133   7.124   4.458   6.694 -0.0703 -0.4209  0.3203
   42MOL    N9223134   7.026   4.382   6.639  0.0323  0.4844 -0.5889
   42MOL    C9323135   7.035   4.270   6.548 -0.5060  0.4115 -1.2692
   42MOL    C9423136   7.136   4.266   6.449 -0.6776  0.3729 -0.4657
   42MOL    C9523137   7.151   4.147   6.377  0.5116  0.0209 -0.4469
   42MOL    C9623138   7.073   4.033   6.401  0.4269  0.2042 -0.0081
   42MOL    N9723139   7.099   3.906   6.342 -0.1098  0.2789 -0.5617
   42MOL    C9823140   6.962   4.047   6.482 -0.2604 -0.1730 -0.7238
   42MOL    C9923141   6.950   4.156   6.567 -0.8682  1.1416  0.1103
   42MOL   O10023142   7.244   4.447   6.665  0.0782  0.5105  0.2624
   42MOL   C10123143   6.979   4.656   6.755  0.4890 -0.0890  0.3641
   42MOL   C10223144   6.947   4.762   6.844 -0.3045  0.2101 -0.4172
   42MOL   O10323145   7.063   4.895   7.162  0.1977  0.3229 -0.3275
   42MOL   H10423146   7.167   4.680   7.093 -0.7579  0.5031 -0.3740
   42MOL   H10523147   7.204   4.494   6.951  1.4326 -0.0159 -3.1304
   42MOL   H10623148   6.935   4.382   6.683 -0.1944 -0.3634 -1.0508
   42MOL   H10723149   7.210   4.343   6.434 -0.6238 -0.0496 -2.5096
   42MOL   H10823150   7.234   4.164   6.310  1.4480  0.8389  0.9124
   42MOL   H10923151   7.197   3.883   6.338 -0.8690 -3.5203  0.1029
   42MOL   H11023152   6.899   3.962   6.505 -0.0114 -0.3388 -0.6490
   42MOL   H11123153   6.881   4.166   6.650  0.2387 -0.1736  1.2058
   42MOL   H11223154   6.937   4.652   6.656 -1.7351  0.4799  1.2579
   42MOL   H11323155   6.876   4.838   6.813  0.8449  1.4848 -0.0083
   42MOL   C11423156   7.006   3.808   6.318  0.5454  0.7123 -0.9836
   42MOL   C11523157   7.049   3.660   6.323 -0.1358  0.7743 -0.0222
   42MOL   C11623158   6.959   3.557   6.276  0.2046  0.1077  0.4184
   42MOL   C11723159   6.978   3.423   6.311 -0.1418  0.9516 -0.2718
   42MOL   C11823160   7.094   3.386   6.382 -0.1701  0.6579 -0.5510
   42MOL   C11923161   7.105   3.237   6.411  0.4097 -0.0041 -0.4004
   42MOL   N12023162   7.217   3.168   6.381 -0.4688  0.2031 -0.1062
   42MOL   C12123163   7.318   3.210   6.289 -0.3662  0.2837  0.0452
   42MOL   C12223164   7.295   3.217   6.152 -0.3702 -0.1402 -0.2748
   42MOL   C12323165   7.403   3.237   6.062 -0.1770  0.0517 -0.5280
   42MOL   C12423166   7.528   3.267   6.112 -0.1138  0.3581  0.9085
   42MOL   N12523167   7.636   3.306   6.024 -0.2205 -0.0311 -0.5039
   42MOL   C12623168   7.555   3.260   6.247 -0.4748  0.8300  0.1510
   42MOL   C12723169   7.449   3.231   6.336 -0.4798  0.0169 -0.0159
   42MOL   O12823170   7.018   3.163   6.459  0.2955 -0.4639 -0.1083
   42MOL   C12923171   7.190   3.479   6.424 -0.2202 -0.9752 -0.2937
   42MOL   C13023172   7.163   3.618   6.394 -0.5128 -0.4316 -0.7197
   42MOL   O13123173   6.886   3.840   6.290 -0.0277 -0.1884 -0.0811
   42MOL   H13223174   6.867   3.584   6.226 -0.4340 -2.4584  0.1142
   42MOL   H13323175   6.904   3.348   6.288  2.3179 -1.1813 -1.3772
   42MOL   H13423176   7.214   3.071   6.409  1.0946  0.5798  1.4998
   42MOL   H13523177   7.193   3.209   6.116 -0.3972  0.9921 -0.4454
   42MOL   H13623178   7.372   3.249   5.959 -2.4867 -0.2679  0.0873
   42MOL   H13723179   7.728   3.334   6.055 -0.8503  1.4128  0.0930
   42MOL   H13823180   7.658   3.273   6.277  0.0387 -0.4749 -1.0217
   42MOL   H13923181   7.479   3.215   6.438 -1.2252 -0.8783  0.0696
   42MOL   H14023182   7.281   3.442   6.469  0.2388  0.9513  0.4258
   42MOL   H14123183   7.235   3.689   6.429  0.1423  0.2663 -3.3471
   42MOL   C14223184   7.649   3.277   5.889 -0.7332 -0.7054  0.0651
   42MOL   C14323185   7.785   3.309   5.829 -0.1056  0.1016 -0.7621
   42MOL   C14423186   7.832   3.235   5.718 -0.3029 -0.8662  0.3498
   42MOL   C14523187   7.960   3.276   5.661 -0.2567  0.5692  0.1034
   42MOL   C14623188   8.036   3.389   5.710 -0.0946 -0.2003  0.2097
   42MOL   C14723189   0.029   3.418   5.651  0.7176  0.1726 -0.2749
   42MOL   N14823190   0.099   3.503   5.722 -0.5109 -0.1149 -0.4398
   42MOL   C14923191   0.189   3.601   5.682  0.0527 -0.0069  0.2725
   42MOL   C15023192   0.289   3.593   5.583  0.0965 -0.2200  1.4127
   42MOL   C15123193   0.372   3.702   5.552  0.2171  0.5087  0.5758
   42MOL   C15223194   0.349   3.827   5.613  0.2597 -0.4003  0.1278
   42MOL   N15323195   0.424   3.947   5.592 -0.9346 -0.7864  0.0174
   42MOL   C15423196   0.253   3.837   5.712  0.7454  0.8450 -0.4076
   42MOL   C15523197   0.180   3.722   5.752  0.2361  0.3945  0.4523
   42MOL   O15623198   0.063   3.362   5.549 -0.0099 -0.0358  0.4119
   42MOL   C15723199   7.984   3.453   5.822 -0.2544 -0.4302 -0.2858
   42MOL   C15823200   7.860   3.418   5.881 -0.3973 -0.4767  0.4866
   42MOL   O15923201   7.557   3.224   5.816  0.1943 -0.8710  0.4603
   42MOL   H16023202   7.781   3.151   5.674 -0.4967  0.5574 -2.2608
   42MOL   H16123203   7.985   3.220   5.573 -0.5531  0.2486  0.2219
   42MOL   H16223204   0.059   3.525   5.812  1.9971  1.1348  0.4316
   42MOL   H16323205   0.311   3.499   5.535 -0.1966  0.6238 -0.4031
   42MOL   H16423206   0.457   3.690   5.487  0.1497 -2.0254  0.9089
   42MOL   H16523207   0.393   4.022   5.653  1.2785 -0.3225  0.5962
   42MOL   H16623208   0.238   3.931   5.763 -0.9844 -0.8328  2.2716
   42MOL   H16723209   0.100   3.720   5.825  1.0825 -0.4920  1.3685
   42MOL   H16823210   8.030   3.535   5.874 -0.4044 -2.1228  2.6208
   42MOL   H16923211   7.828   3.464   5.974 -0.1162 -2.2039  1.4563
   42MOL   C17023212   0.535   3.979   5.527  0.6872 -0.7243  0.3391
   42MOL   C17123213   0.574   4.118   5.547 -0.4147 -0.2791  0.8131
   42MOL   C17223214   0.559   4.191   5.664 -0.2729 -0.0859 -0.5132
   42MOL   C17323215   0.591   4.328   5.671 -0.1069 -0.2526 -0.5500
   42MOL   C17423216   0.633   4.396   5.557  0.0161 -0.3075  0.2089
   42MOL   C17523217   0.664   4.545   5.552 -0.0023  0.1134  0.0612
   42MOL   N17623218   0.615   4.605   5.665  0.2422 -0.1083 -0.6639
   42MOL   C17723219   0.575   4.736   5.688  0.1922 -0.1406  0.0368
   42MOL   C17823220   0.635   4.848   5.622 -0.0141 -0.5626 -0.3041
   42MOL   C17923221   0.582   4.981   5.654 -0.2393 -0.0517 -0.2388
   42MOL   C18023222   0.478   5.000   5.741 -0.1509 -1.0775 -0.2976
   42MOL   N18123223   0.436   5.133   5.764 -0.3602 -0.2720 -0.7769
   42MOL   C18223224   0.431   4.888   5.815  0.6903 -0.7302  0.3870
   42MOL   C18323225   0.480   4.758   5.791 -0.4608  0.1957  0.3282
   42MOL   O18423226   0.715   4.597   5.457 -0.6620  0.2601 -0.3800
   42MOL   C18523227   0.663   4.320   5.444  0.0934  0.3693 -0.6210
   42MOL   C18623228   0.641   4.180   5.441  0.2039 -0.1824 -0.0967
   42MOL   O18723229   0.582   3.914   5.437 -0.5422  0.5938  0.3061
   42MOL   H18823230   0.515   4.149   5.754 -1.1864 -2.0277 -1.8361
   42MOL   H18923231   0.573   4.377   5.765  0.9577 -2.1261  0.6571
   42MOL   H19023232   0.564   4.535   5.717  0.0308  0.0811 -0.6173
   42MOL   H19123233   0.721   4.831   5.559 -0.5257 -0.1369 -1.1188
   42MOL   H19223234   0.635   5.061   5.604  0.1063 -0.0736  0.0910
   42MOL   H19323235   0.469   5.169   5.852 -1.1459 -1.0498 -0.1508
   42MOL   H19423236   0.357   4.901   5.893 -0.7563 -0.2060 -1.0643
   42MOL   H19523237   0.450   4.675   5.854 -0.2963  0.7194  1.1002
   42MOL   H19623238   0.708   4.371   5.360 -1.1087 -0.5578 -1.8582
   42MOL   H19723239   0.651   4.129   5.346  4.2200  0.7540 -0.2763
   42MOL   C19823240   0.327   5.193   5.716  0.0848 -0.6549 -0.3245
   42MOL   C19923241   0.277   5.298   5.809  0.5580 -0.2944  0.0747
   42MOL   C20023242   0.190   5.271   5.912  0.2078  0.3288  0.1830
   42MOL   C20123243   0.146   5.371   5.999 -0.9216 -0.5841 -1.1722
   42MOL   C20223244   0.171   5.505   5.969 -0.4987  0.3419 -0.1125
   42MOL   C20323245   0.106   5.616   6.049 -1.1443  0.4957 -0.8069
   42MOL   N20423246   0.006   5.573   6.130 -1.1533 -0.7405 -0.1142
   42MOL   C20523247   8.096   5.658   6.223  0.0858  0.1140  0.4244
   42MOL   C20623248   7.960   5.636   6.249 -0.7346  0.2067 -0.3511
   42MOL   C20723249   7.895   5.710   6.352  0.3500  0.2160 -0.2015
   42MOL   C20823250   7.962   5.815   6.414 -0.1489 -0.1922  0.6525
   42MOL   N20923251   7.885   5.897   6.498  0.1624 -0.0439 -0.3497
   42MOL   C21023252   8.096   5.840   6.390 -0.3477 -0.2721 -0.1860
   42MOL   C21123253   0.018   5.759   6.302 -0.2957  0.2311 -0.1566
   42MOL   O21223254   0.153   5.730   6.045  0.0963  0.0157  0.7898
   42MOL   C21323255   0.257   5.539   5.859  0.0291 -0.1503  0.0412
   42MOL   C21423256   0.315   5.439   5.775  0.5684  0.2964  0.2303
   42MOL   O21523257   0.275   5.171   5.608 -0.1231  0.1157  0.5603
   42MOL   H21623258   0.162   5.169   5.930 -1.1438  0.3816 -1.4957
   42MOL   H21723259   0.084   5.340   6.081  1.7596  0.5215  1.3892
   42MOL   H21823260   8.111   5.482   6.115 -1.4444 -0.4850 -0.9139
   42MOL   H21923261   7.909   5.551   6.204 -1.6145  1.3565 -1.5847
   42MOL   H22023262   7.791   5.686   6.369  0.6991 -2.1193 -1.1584
   42MOL   H22123263   7.784   5.898   6.490  0.2351 -0.0032 -1.2854
   42MOL   H22223264   8.145   5.921   6.441  0.9669 -1.0182 -0.2510
   42MOL   H22323265   0.125   5.770   6.290 -0.5467  0.4077 -2.4575
   42MOL   H22423266   0.269   5.643   5.833 -0.0766 -0.3080 -0.6389
   42MOL   H22523267   0.362   5.475   5.684  1.4808  1.7568  1.2602
   42MOL   C22623268   7.926   5.956   6.610 -0.0520  0.3918  0.9147
   42MOL   C22723269   7.817   6.024   6.687 -0.3959 -0.0808 -0.4259
   42MOL   C22823270   7.681   5.988   6.689 -0.9266  0.0866  0.1098
   42MOL   C22923271   7.591   6.060   6.764  0.6859 -0.0407  0.0397
   42MOL   C23023272   7.625   6.169   6.840 -0.6647 -0.3400  0.0042
   42MOL   C23123273   7.511   6.242   6.910  0.4861 -0.2097  0.1691
   42MOL   N23223274   7.554   6.347   6.989 -0.5227  0.2502 -0.2626
   42MOL   C23323275   7.482   6.441   7.067 -0.2013 -0.0877  0.4439
   42MOL   C23423276   7.547   6.519   7.162 -0.4696  1.0098 -0.1345
   42MOL   C23523277   7.483   6.609   7.248  0.1393 -0.0463 -0.4815
   42MOL   C23623278   7.344   6.631   7.239  0.3625 -0.1462 -0.3996
   42MOL   N23723279   7.271   6.727   7.312  0.0078 -0.0754  0.6103
   42MOL   C23823280   7.279   6.570   7.130  0.0007 -0.2617  0.0926
   42MOL   C23923281   7.344   6.472   7.048  0.8469 -0.6132  0.0245
   42MOL   O24023282   7.392   6.200   6.903 -0.1095  0.4911  0.8755
   42MOL   C24123283   7.758   6.218   6.837  0.2914  1.4287 -0.2696
   42MOL   C24223284   7.852   6.147   6.761 -0.1545  1.0102  0.4323
   42MOL   O24323285   8.039   5.948   6.657 -0.4121 -0.0965  0.4329
   42MOL   H24423286   7.647   5.899   6.638 -1.1043  0.4493 -0.4015
   42MOL   H24523287   7.492   6.018   6.764 -0.3384  2.2902  1.8887
   42MOL   H24623288   7.653   6.354   7.005 -0.6870  0.0456  0.8237
   42MOL   H24723289   7.653   6.510   7.182 -0.6499 -2.3476 -0.4207
   42MOL   H24823290   7.535   6.683   7.308  1.1351  0.2019 -1.6402
   42MOL   H24923291   7.177   6.747   7.279  0.0470 -1.0732 -0.1404
   42MOL   H25023292   7.174   6.588   7.110  0.3978  2.6129  0.4875
   42MOL   H25123293   7.276   6.433   6.974  0.6243 -0.3992  0.1148
   42MOL   H25223294   7.799   6.304   6.887  3.1792  1.5104 -2.6530
   42MOL   H25323295   7.958   6.167   6.767 -0.3934  2.4909 -0.0750
   42MOL   C25423296   7.285   6.761   7.439  0.1169  0.5216  0.1226
   42MOL   C25523297   7.176   6.847   7.496  0.0698 -0.1252  0.4227
   42MOL   C25623298   7.202   6.936   7.603 -0.2766  0.5270 -0.6581
   42MOL   C25723299   7.101   7.006   7.670  0.2503 -0.3796 -0.3861
   42MOL   C25823300   6.972   7.000   7.617  0.5769  0.1166 -0.8535
   42MOL   C25923301   6.850   7.063   7.690 -0.2638 -1.1466 -0.2978
   42MOL   N26023302   6.873   7.131   7.798  0.3967  0.1370 -0.4509
   42MOL   C26123303   6.781   7.204   7.885  0.3668 -0.8274  0.7070
   42MOL   C26223304   6.826   7.318   7.953  0.3522  0.1511  0.2592
   42MOL   C26323305   6.739   7.388   8.035 -0.1394 -0.4095 -0.0991
   42MOL   C26423306   6.602   7.357   8.035  0.5860 -0.6115  0.0887
   42MOL   N26523307   6.503   7.438   8.091  0.3909  0.4291  0.0362
   42MOL   C26623308   6.555   7.246   7.964  0.1990 -0.1782  0.3644
   42MOL   C26723309   6.647   7.166   7.897  0.6102  0.3413  0.5785
   42MOL   O26823310   6.735   7.060   7.639 -0.3460 -0.1136 -0.3753
   42MOL   C26923311   6.951   6.930   7.496  0.5315  0.4511  0.2933
   42MOL   C27023312   7.046   6.858   7.430 -0.4583 -0.0599  0.1065
   42MOL   O27123313   7.382   6.725   7.508 -0.2220  0.5905  0.4642
   42MOL   H27223314   7.302   6.930   7.643 -1.4262 -0.6678  2.1250
   42MOL   H27323315   7.104   7.058   7.765 -0.2892  1.0444 -1.1229
   42MOL   H27423316   6.964   7.128   7.842  0.0921 -0.0006  0.1734
   42MOL   H27523317   6.927   7.355   7.942  0.9067 -2.0362 -2.7301
   42MOL   H27623318   6.779   7.478   8.079  0.4612 -0.0553 -1.3608
   42MOL   H27723319   6.415   7.423   8.044  1.1164 -0.5941 -1.0303
   42MOL   H27823320   6.449   7.232   7.954  0.0439  1.9572 -1.5259
   42MOL   H27923321   6.609   7.076   7.851 -1.6982  1.3266  0.5062
   42MOL   H28023322   6.857   6.928   7.444  0.5305  1.7820  0.2363
   42MOL   H28123323   7.028   6.802   7.339  0.0253  1.6748 -1.0645
   42MOL   C28223324   6.504   7.522   0.049 -0.1803  0.8016  0.2809
   42MOL   C28323325   6.621   7.545   0.133 -0.0959 -0.3601 -0.6810
   42MOL   C28423326   6.699   7.659   0.110 -0.5615  0.4725 -0.2786
   42MOL   C28523327   6.811   7.686   0.177  0.1210 -0.2209  0.6956
   42MOL   C28623328   6.856   7.597   0.273  0.0217 -0.2573  0.9169
   42MOL   C28723329   6.981   7.626   0.347  0.4275  0.2976  0.1016
   42MOL   N28823330   7.100   7.591   0.289  0.5262 -0.3932  0.2532
   42MOL   C28923331   7.129   7.502   0.185  0.4077 -0.3249 -0.6520
   42MOL   C29023332   7.263   7.519   0.138  0.1299 -0.1043  0.0655
   42MOL   C29123333   7.309   7.427   0.047  0.5992  0.2235  0.3086
   42MOL   C29223334   7.236   7.315   0.005 -0.3239 -1.0640  0.3182
   42MOL   N29323335   7.306   7.222   8.072 -0.1429  0.5095  0.7278
   42MOL   C29423336   7.100   7.302   0.052 -0.2727  0.2452  0.5947
   42MOL   C29523337   7.048   7.395   0.143 -0.5455  0.5523 -0.2609
   42MOL   O29623338   6.966   7.662   0.462 -0.5265  0.8537  0.0273
   42MOL   C29723339   6.777   7.480   0.304 -0.4289  0.3217 -0.4809
   42MOL   C29823340   6.660   7.453   0.228 -0.0809  0.1942  0.4401
   42MOL   O29923341   6.395   7.574   0.080 -0.1098  0.8259 -0.5646
   42MOL   H30023342   6.682   7.719   0.023 -0.4457 -1.6484 -1.8063
   42MOL   H30123343   6.867   7.778   0.168  0.6998 -0.7848 -1.6759
   42MOL   H30223344   7.181   7.625   0.338  0.9132  0.2672 -0.8226
   42MOL   H30323345   7.325   7.599   0.176 -0.1387 -0.4124  1.1966
   42MOL   H30423346   7.411   7.441   0.016  0.8727 -0.4943  0.8823
   42MOL   H30523347   7.405   7.241   8.059  0.0569 -1.6015 -1.3273
   42MOL   H30623348   7.037   7.216   0.034 -0.0403  0.5297 -1.7492
   42MOL   H30723349   6.949   7.375   0.179 -0.8003  0.0453 -1.2232
   42MOL   H30823350   6.804   7.411   0.383  2.4499  3.4377  1.4006
   42MOL   H30923351   6.594   7.368   0.240  0.2730 -0.0863  0.4034
   42MOL   C31023352   7.255   7.110   8.016  0.4407 -0.2844  0.1259
   42MOL   C31123353   7.357   7.032   7.944  0.2216 -0.4071 -0.0466
   42MOL   C31223354   7.474   7.087   7.888 -0.3441  0.2221 -0.0659
   42MOL   C31323355   7.571   7.000   7.821 -0.2541 -0.6472  0.3953
   42MOL   C31423356   7.554   6.863   7.808  0.0232  0.4659 -0.2311
   42MOL   C31523357   7.658   6.779   7.729  0.1355  0.6634  0.7091
   42MOL   N31623358   7.616   6.660   7.683 -0.2824 -0.0545 -0.2007
   42MOL   C31723359   7.685   6.576   7.596 -0.3710  0.0898  0.0413
   42MOL   C31823360   7.827   6.569   7.594  0.2442 -0.2076  0.9032
   42MOL   C31923361   7.902   6.477   7.512  0.4440 -0.0300  0.1550
   42MOL   C32023362   7.827   6.387   7.430  0.0784 -0.4863  1.3636
   42MOL   N32123363   7.904   6.299   7.346 -0.2866 -0.9438  0.7426
   42MOL   C32223364   7.686   6.387   7.436  0.6967  0.5967 -0.1935
   42MOL   C32323365   7.617   6.484   7.511  0.5151  0.8291  0.8272
   42MOL   O32423366   7.769   6.827   7.708 -0.1779 -0.1463  0.5811
   42MOL   C32523367   7.443   6.807   7.868 -0.5613 -0.4681  0.5615
   42MOL   C32623368   7.344   6.889   7.936 -0.2243  0.1628  0.2972
   42MOL   O32723369   7.137   7.082   8.026  0.5604  0.0276 -0.1740
   42MOL   H32823370   7.502   7.191   7.893  1.4076 -0.3286  2.5200
   42MOL   H32923371   7.657   7.055   7.785 -0.3420  0.1855  1.4193
   42MOL   H33023372   7.518   6.636   7.689 -0.5622  1.3649  1.1928
   42MOL   H33123373   7.887   6.630   7.659  1.3132 -1.6140  1.2602
   42MOL   H33223374   8.008   6.481   7.498  0.7139  1.2682  2.3065
   42MOL   H33323375   7.999   6.278   7.373 -0.3333 -0.6377  1.1627
   42MOL   H33423376   7.631   6.310   7.384 -0.1770  0.7604  0.4810
   42MOL   H33523377   7.510   6.479   7.522  0.6686  0.9751  2.5924
   42MOL   H33623378   7.433   6.699   7.870 -0.0896 -0.5662 -1.3645
   42MOL   H33723379   7.259   6.844   7.986 -0.2002  0.0395  0.2291
   42MOL   C33823380   7.876   6.261   7.219 -0.2636 -0.3245 -0.1405
   42MOL   C33923381   7.982   6.166   7.160 -0.3282 -0.8790 -0.0683
   42MOL   C34023382   8.120   6.192   7.183 -0.3308  0.5176  0.1942
   42MOL   C34123383   0.072   6.115   7.124 -0.5632  0.1603 -0.0914
   42MOL   C34223384   0.040   6.018   7.029 -0.0592  0.6331 -0.1043
   42MOL   C34323385   0.145   5.945   6.949 -1.1117 -0.1877  0.3669
   42MOL   N34423386   0.112   5.897   6.830 -0.0660  0.1721 -0.2346
   42MOL   C34523387   0.168   5.797   6.760  0.2316  0.7113  0.1358
   42MOL   C34623388   0.308   5.805   6.722  0.9265  0.0893  0.3716
   42MOL   C34723389   0.355   5.698   6.642 -0.8886  0.1957  0.3712
   42MOL   C34823390   0.274   5.594   6.593 -0.1665 -0.0094  0.4342
   42MOL   N34923391   0.327   5.513   6.492 -0.2892  0.1109 -0.3656
   42MOL   C35023392   0.129   5.595   6.614  0.4229  0.2557  0.2291
   42MOL   C35123393   0.084   5.694   6.700 -0.3233 -0.2717  0.3051
   42MOL   O35223394   0.258   5.952   6.996 -0.1761 -0.2030  0.1815
   42MOL   C35323395   8.041   5.989   7.012  0.2459 -0.1258 -0.4252
   42MOL   C35423396   7.940   6.065   7.071 -0.5592  0.2795  1.0807
   42MOL   O35523397   7.772   6.297   7.162 -0.1958  0.1635  0.4718
   42MOL   H35623398   0.013   6.270   7.248 -0.6531  1.3673 -0.6103
   42MOL   H35723399   0.175   6.144   7.141 -1.0869  2.1952 -0.3745
   42MOL   H35823400   0.013   5.909   6.815 -0.0325  1.8018  0.7607
   42MOL   H35923401   0.365   5.890   6.755 -0.0129  1.4195 -1.3451
   42MOL   H36023402   0.459   5.692   6.613 -1.1923 -0.8466 -0.5477
   42MOL   H36123403   0.401   5.555   6.438 -1.2192  1.6860 -0.4383
   42MOL   H36223404   0.067   5.519   6.569  0.7237 -0.1783  0.5545
   42MOL   H36323405   8.123   5.690   6.715 -0.4856  0.0823 -0.7326
   42MOL   H36423406   8.011   5.904   6.952 -0.4850  0.1569 -0.4743
   42MOL   H36523407   7.839   6.031   7.058 -0.2842 -0.1230 -0.0029
   42MOL   C36623408   0.290   5.385   6.460 -0.5975  0.3951 -0.7033
   42MOL   C36723409   0.370   5.330   6.348 -0.4331  0.1875  0.0018
   42MOL   C36823410   0.413   5.197   6.341  0.0119  0.3848  0.1603
   42MOL   C36923411   0.497   5.153   6.238 -0.1891 -0.1497  0.4516
   42MOL   C37023412   0.547   5.244   6.139 -0.7903  0.5889  0.0481
   42MOL   C37123413   0.662   5.199   6.048  1.1423 -0.0126 -0.0397
   42MOL   N37223414   0.778   5.163   6.103  0.2163 -0.3962 -0.2715
   42MOL   C37323415   0.815   5.158   6.236 -0.1991 -0.8926  0.2467
   42MOL   C37423416   0.876   5.045   6.291  0.2501  1.5514  0.5554
   42MOL   C37523417   0.908   5.035   6.425 -0.4313 -0.1836 -0.6592
   42MOL   C37623418   0.884   5.150   6.508  0.0398  0.0460  0.4304
   42MOL   N37723419   0.906   5.158   6.645 -0.7188  0.7160 -0.4272
   42MOL   C37823420   0.833   5.268   6.446  0.5555 -0.6918 -0.3948
   42MOL   C37923421   0.807   5.277   6.312  0.0693 -0.1243  0.6658
   42MOL   O38023422   0.653   5.198   5.924  0.6027 -0.2362  0.8591
   42MOL   C38123423   0.507   5.376   6.143  0.3729 -0.7561  0.2848
   42MOL   C38223424   0.415   5.419   6.244  0.2926  0.0721 -0.9150
   42MOL   O38323425   0.206   5.314   6.519 -0.0734  0.0499  0.4273
   42MOL   H38423426   0.395   5.125   6.420 -0.4902 -0.0036 -0.2942
   42MOL   H38523427   0.531   5.051   6.228 -1.8744 -0.8032  1.2413
   42MOL   H38623428   0.826   5.091   6.050  0.4116 -0.0173 -0.6172
   42MOL   H38723429   0.878   4.949   6.241  0.6782  0.7238  2.1002
   42MOL   H38823430   0.947   4.943   6.466  2.4119  1.2887  0.1033
   42MOL   H38923431   0.855   5.223   6.702 -0.1499  1.3305 -0.6132
   42MOL   H39023432   0.820   5.353   6.512 -0.1085 -1.0075 -0.1184
   42MOL   H39123433   0.768   5.368   6.270  1.1343 -0.2808 -0.6741
   42MOL   H39223434   0.546   5.446   6.070  0.3872 -1.2449 -0.1768
   42MOL   H39323435   0.377   5.520   6.242  0.5638  0.1712 -1.0370
   42MOL   C39423436   1.002   5.100   6.716 -0.6978 -0.5020 -0.0712
   42MOL   C39523437   0.989   5.143   6.861 -0.1814 -0.2888  0.1420
   42MOL   C39623438   0.876   5.126   6.940  0.3345  0.4963 -0.0520
   42MOL   C39723439   0.874   5.184   7.068 -0.0484 -0.6992  0.3931
   42MOL   C39823440   0.974   5.266   7.120 -0.4497  0.4593  0.5038
   42MOL   C39923441   0.949   5.338   7.246  0.4558  0.3141 -0.5150
   42MOL   N40023442   1.014   5.448   7.270  0.3744 -0.0337  0.6009
   42MOL   C40123443   0.983   5.557   7.361 -0.2594 -0.5449  1.0507
   42MOL   C40223444   0.848   5.590   7.391 -0.4114  0.2502 -0.8121
   42MOL   C40323445   0.822   5.687   7.482  0.3063 -0.6643 -0.3543
   42MOL   C40423446   0.927   5.768   7.536  0.2008 -0.7357  1.0489
   42MOL   N40523447   0.913   5.885   7.611 -0.2416  0.2261 -0.1170
   42MOL   C40623448   1.060   5.747   7.486  0.6720  0.3323 -0.0043
   42MOL   C40723449   1.088   5.638   7.408  0.2459 -0.3523  0.0102
   42MOL   O40823450   0.866   5.295   7.326 -0.2591 -0.1910 -0.1479
   42MOL   C40923451   1.092   5.271   7.042 -0.1594  0.3016 -0.4853
   42MOL   C41023452   1.101   5.210   6.919  0.4549 -0.4374  0.0578
   42MOL   O41123453   1.093   5.028   6.679  0.6324  0.0864  0.4706
   42MOL   H41223454   0.797   5.065   6.899 -1.2547  3.0454 -0.9539
   42MOL   H41323455   0.783   5.176   7.125 -0.2380 -1.3359 -0.0013
   42MOL   H41423456   1.101   5.459   7.219 -1.0134  3.5146 -1.1333
   42MOL   H41523457   0.761   5.535   7.356  0.0188 -0.4749 -0.7551
   42MOL   H41623458   0.718   5.704   7.503 -0.0022 -0.2907 -2.0870
   42MOL   H41723459   0.994   5.945   7.608 -0.0083 -0.1449 -1.2679
   42MOL   H41823460   1.137   5.820   7.510  0.0689  0.8903  0.2591
   42MOL   H41923461   1.190   5.641   7.372  1.3917  0.3058  3.1999
   42MOL   H42023462   1.173   5.332   7.077 -0.0445  1.3040 -2.4580
   42MOL   H42123463   1.185   5.228   6.853  1.1406  1.1318  1.2984
   42MOL   C42223464   0.817   5.914   7.705 -0.4707 -0.2015 -0.0033
   42MOL   C42323465   0.812   6.054   7.755 -0.6583 -0.9549  1.1008
   42MOL   C42423466   0.780   6.089   7.886 -0.4566 -0.2621 -0.4413
   42MOL   C42523467   0.795   6.213   7.946 -0.1812  0.1416  0.3772
   42MOL   C42623468   0.833   6.327   7.867  0.0191 -0.1639  0.4191
   42MOL   C42723469   0.854   6.462   7.930  0.5533  0.3431  0.3324
   42MOL   N42823470   0.847   6.465   8.063 -0.0997  0.0596 -0.2277
   42MOL   C42923471   0.873   6.575   0.006  0.7709  0.1325  0.2934
   42MOL   C43023472   0.956   6.679   8.111 -0.4726 -0.1878 -0.2759
   42MOL   C43123473   0.982   6.788   0.049  0.3206 -0.4678 -0.0377
   42MOL   C43223474   0.926   6.797   0.175  0.3450 -0.2464 -0.1344
   42MOL   N43323475   0.960   6.900   0.261  0.3508 -0.0061 -0.0734
   42MOL   C43423476   0.838   6.690   0.220  0.3596 -1.0614  0.2356
   42MOL   C43523477   0.814   6.581   0.134  0.1152  0.9312 -0.6290
   42MOL   O43623478   0.872   6.564   7.859 -0.1497  0.3662  0.1396
   42MOL   C43723479   0.851   6.303   7.730 -0.6444 -0.5053  0.7595
   42MOL   C43823480   0.846   6.168   7.679  0.0919 -0.1003  0.1210
   42MOL   O43923481   0.732   5.834   7.748 -0.3317 -0.5272 -1.0673
   42MOL   H44023482   0.741   6.000   7.934 -2.1268  0.8381  0.2914
   42MOL   H44123483   0.766   6.223   8.050 -0.2055 -1.6930  0.5700
   42MOL   H44223484   0.812   6.380   8.105 -0.5076 -0.6352 -1.9458
   42MOL   H44323485   1.007   6.679   8.016  0.0041  2.9241 -0.0882
   42MOL   H44423486   1.055   6.857   0.009  1.6041 -2.3127 -0.9759
   42MOL   H44523487   0.924   6.892   0.355 -2.1082 -1.6531 -1.1045
   42MOL   H44623488   0.781   6.699   0.311 -1.4664 -0.0721 -0.9923
   42MOL   H44723489   0.733   6.511   0.152  2.3424 -1.7796 -0.6784
   42MOL   H44823490   0.873   6.383   7.661  1.5839 -1.4098  0.3844
   42MOL   H44923491   0.859   6.155   7.572 -3.4417  2.1040 -0.6803
   42MOL   C45023492   1.046   7.003   0.250 -0.0086 -1.4009 -0.1341
   42MOL   C45123493   1.052   7.087   0.378 -1.0299  0.2007 -0.4485
   42MOL   C45223494   1.170   7.162   0.405  0.1948  0.1494 -0.6006
   42MOL   C45323495   1.176   7.231   0.527 -0.2406 -0.1418 -0.0967
   42MOL   C45423496   1.073   7.237   0.623  0.0704  0.1575  0.2763
   42MOL   C45523497   1.095   7.316   0.750  0.2554  0.0341 -0.3850
   42MOL   N45623498   0.991   7.375   0.805 -0.1727  0.1549 -0.6842
   42MOL   C45723499   0.986   7.474   0.906 -0.4620 -0.5093  0.0615
   42MOL   C45823500   1.089   7.571   0.917 -0.1638  0.2742  0.2615
   42MOL   C45923501   1.073   7.676   1.009 -0.2294  0.3311  0.0316
   42MOL   C46023502   0.967   7.681   1.105 -0.3782 -0.0497  0.0613
   42MOL   N46123503   0.953   7.783   1.204 -0.2489  0.9123  0.1851
   42MOL   C46223504   0.872   7.578   1.099  0.6389  0.0924  0.2943
   42MOL   C46323505   0.880   7.478   1.000 -0.1981 -0.0492 -0.4455
   42MOL   O46423506   1.216   7.331   0.779 -0.1752  0.0709 -0.6661
   42MOL   C46523507   0.950   7.177   0.588 -0.3828  0.9598 -0.5498
   42MOL   C46623508   0.942   7.094   0.470  0.4282  0.3474 -0.0735
   42MOL   O46723509   1.111   7.034   0.150  0.4180  0.0157 -0.1842
   42MOL   H46823510   1.254   7.169   0.338 -0.0015  0.6579 -0.7973
   42MOL   H46923511   1.269   7.280   0.555 -0.8504  1.4378 -0.7760
   42MOL   H47023512   0.898   7.352   0.773 -0.8372  1.8625 -0.0596
   42MOL   H47123513   1.159   7.577   0.835  0.9319 -0.3683  1.1282
   42MOL   H47223514   1.146   7.756   1.003 -1.2427  1.3291  0.8120
   42MOL   H47323515   0.861   7.825   1.206 -1.3536 -1.3314 -0.9210
   42MOL   H47423516   0.805   7.566   1.183 -0.0355  0.6766 -0.1583
   42MOL   H47523517   0.805   7.403   0.981 -1.4706  0.6556  1.6448
   42MOL   H47623518   0.861   7.185   0.649 -1.4662  0.8111 -2.0801
   42MOL   H47723519   0.848   7.045   0.454 -0.2851  1.0877  1.6446
   42MOL   C47823520   1.047   7.816   1.288 -0.6279 -0.2126  0.0942
   42MOL   C47923521   1.027   7.941   1.370  0.5722  0.6499  1.3816
   42MOL   C48023522   0.895   7.992   1.393  0.4092 -0.0357 -0.1953
   42MOL   C48123523   0.877   8.121   1.454 -0.2216  1.0554  1.1172
   42MOL   C48223524   0.987   0.049   1.501  0.0663 -0.1155  0.4281
   42MOL   C48323525   0.955   0.172   1.583  0.1156 -0.0272  0.4852
   42MOL   N48423526   1.040   0.276   1.564  0.3791 -0.5835  0.0811
   42MOL   C48523527   1.008   0.405   1.611 -0.3886 -0.3329 -0.6336
   42MOL   C48623528   0.925   0.480   1.530 -0.6270 -0.4265  0.1580
   42MOL   C48723529   0.890   0.606   1.571  0.1206  0.0031 -0.0392
   42MOL   C48823530   0.926   0.660   1.696  0.0238  0.3982 -0.0122
   42MOL   N48923531   0.865   0.776   1.748 -0.1597  0.3199  0.4638
   42MOL   C49023532   1.016   0.584   1.777 -0.2778  0.4454  0.2318
   42MOL   C49123533   1.061   0.457   1.731  0.8921 -1.4068 -0.5387
   42MOL   O49223534   0.845   0.175   1.645 -0.5674 -0.8518 -0.2197
   42MOL   C49323535   1.114   8.138   1.475  0.2171  0.3918 -0.2642
   42MOL   C49423536   1.135   8.010   1.413 -0.0954  0.3682 -0.1382
   42MOL   O49523537   1.161   7.761   1.297  0.4404 -0.1212 -0.3655
   42MOL   H49623538   0.807   7.939   1.362  2.7841 -3.8154 -0.7733
   42MOL   H49723539   0.779   0.020   1.448  0.1128  1.4255 -2.4138
   42MOL   H49823540   1.121   0.262   1.505  0.9639 -2.2677  1.2729
   42MOL   H49923541   0.900   0.432   1.436 -0.8550 -0.0539  0.0283
   42MOL   H50023542   0.823   0.666   1.512  0.5896  2.1654  1.5434
   42MOL   H50123543   0.921   0.860   1.761  0.4180 -0.0567  0.4125
   42MOL   H50223544   1.054   0.615   1.873  0.3955  0.8535 -0.1647
   42MOL   H50323545   1.132   0.392   1.780  0.9605 -0.2877  0.8661
   42MOL   H50423546   1.202   0.052   1.499  1.4757 -2.4719  2.6423
   42MOL   H50523547   1.238   7.984   1.393  0.7999  1.8404  2.4081
   42MOL   C50623548   0.744   0.775   1.798 -0.5522 -0.3352  0.5832
   42MOL   C50723549   0.677   0.646   1.820  1.2497  1.5193  0.1657
   42MOL   C50823550   0.555   0.630   1.749  0.1457  1.2737  1.1050
   42MOL   C50923551   0.489   0.509   1.766 -0.3797  0.3209  0.7018
   42MOL   C51023552   0.556   0.397   1.825  0.1291  0.1692  0.0192
   42MOL   C51123553   0.494   0.260   1.817  0.1738  0.1557  0.4320
   42MOL   N51223554   0.575   0.159   1.767 -0.3513 -0.2611 -0.6373
   42MOL   C51323555   0.535   0.050   1.692  0.0355  0.2430 -0.5005
   42MOL   C51423556   0.625   8.088   1.690  0.6537  0.6585  0.0176
   42MOL   C51523557   0.592   7.977   1.604 -0.0550 -0.0414 -0.7871
   42MOL   C51623558   0.475   7.969   1.531 -0.2696  0.2354  0.0187
   42MOL   N51723559   0.452   7.857   1.440 -0.2113  0.4025 -0.7308
   42MOL   C51823560   0.390   8.078   1.535 -0.2193  0.7867  0.7703
   42MOL   C51923561   0.417   0.043   1.615  0.7484 -0.7332 -0.2163
   42MOL   O52023562   0.376   0.239   1.860 -0.5751  0.0156 -0.6821
   42MOL   C52123563   0.673   0.417   1.902  0.1330  0.1213 -0.5779
   42MOL   C52223564   0.732   0.544   1.901 -0.3445  0.1382 -0.5780
   42MOL   O52323565   0.694   0.880   1.834 -0.1315 -0.4743  0.8922
   42MOL   H52423566   0.516   0.715   1.694  0.4593  2.1950  2.2792
   42MOL   H52523567   0.390   0.495   1.726  0.0214 -2.4067  0.5963
   42MOL   H52623568   0.673   0.181   1.757 -0.5714  0.9653 -0.2480
   42MOL   H52723569   0.721   8.086   1.739  0.0969  0.2397  1.0994
   42MOL   H52823570   0.657   7.891   1.611 -1.2435 -0.9119 -0.2241
   42MOL   H52923571   0.535   7.799   1.431  0.3084  1.0035  0.0681
   42MOL   H53023572   0.301   8.080   1.473  0.0326 -0.0010  0.3684
   42MOL   H53123573   0.348   0.126   1.619  1.5658 -0.0819  0.7669
   42MOL   H53223574   0.726   0.332   1.943 -0.5608  0.1804  0.4533
   42MOL   H53323575   0.823   0.552   1.958 -1.1820  0.2940  0.7793
   42MOL   C53423576   0.338   7.824   1.373  0.1563  0.0610 -0.5974
   42MOL   C53523577   0.348   7.710   1.274  0.3523 -0.2444 -0.3999
   42MOL   C53623578   0.469   7.642   1.254 -0.7209 -0.0500  0.6137
   42MOL   C53723579   0.481   7.538   1.159  0.0349 -0.1225  1.4770
   42MOL   C53823580   0.362   7.492   1.096 -0.1574 -1.0021 -0.3847
   42MOL   C53923581   0.361   7.375   1.007  0.2277  0.2163  0.1852
   42MOL   N54023582   0.263   7.289   1.036 -0.6188  0.6562  0.0797
   42MOL   C54123583   0.237   7.166   0.960  0.0272  0.1882  0.1802
   42MOL   C54223584   0.208   7.168   0.822  0.4606 -0.0876  0.6131
   42MOL   C54323585   0.194   7.048   0.748  0.3245  0.3890  0.4312
   42MOL   C54423586   0.221   6.923   0.812  0.2066 -0.3905 -0.7726
   42MOL   N54523587   0.214   6.811   0.731  0.1815  1.1670  0.1509
   42MOL   C54623588   0.247   6.924   0.953 -0.7245  0.6181  0.8056
   42MOL   C54723589   0.262   7.042   1.023  0.5508  0.6105  0.2318
   42MOL   O54823590   0.452   7.349   0.934  0.0342 -0.7430 -0.0042
   42MOL   C54923591   0.238   7.560   1.120  0.2787  0.4403  0.1052
   42MOL   C55023592   0.230   7.668   1.206 -1.0956 -0.2622 -0.3891
   42MOL   O55123593   0.229   7.871   1.403  0.1921 -0.2180 -0.6026
   42MOL   H55223594   0.567   7.670   1.290 -0.7377  0.4493  0.2745
   42MOL   H55323595   0.568   7.486   1.121  0.4011  1.9151 -0.6220
   42MOL   H55423596   0.205   7.308   1.117 -0.1275  2.4849  0.0183
   42MOL   H55523597   0.198   7.261   0.768 -1.0969 -0.6976 -0.1606
   42MOL   H55623598   0.164   7.053   0.644 -0.9589  0.7244  0.8069
   42MOL   H55723599   0.270   6.734   0.765 -2.0517 -1.2516 -1.4432
   42MOL   H55823600   0.257   6.828   1.001 -1.7285  0.4063  0.6100
   42MOL   H55923601   0.291   7.036   1.127 -0.2796 -1.9466  0.3355
   42MOL   H56023602   0.150   7.521   1.071  0.1265  1.3890 -0.3883
   42MOL   H56123603   0.137   7.718   1.230 -0.0882 -0.0569  3.5250
   42MOL   H56223604   0.240   6.834   0.636  1.7325 -0.3383  0.1864
   43MOL     C123605   6.540   1.202   2.724  0.0457  0.8130  0.7152
   43MOL     C223606   6.437   1.293   2.779 -0.2880 -0.3484 -0.2079
   43MOL     C323607   6.475   1.419   2.829  0.5235 -0.0562  0.1148
   43MOL     C423608   6.377   1.510   2.882  0.0725  0.2017 -0.1296
   43MOL     C523609   6.243   1.467   2.881 -0.1354 -0.2304 -0.5300
   43MOL     C623610   6.138   1.559   2.931  0.8931 -0.0227  0.2109
   43MOL     N723611   6.140   1.685   2.896 -0.1043 -0.4195 -0.4567
   43MOL     C823612   6.068   1.799   2.951 -0.7177  0.3431 -0.9186
   43MOL     C923613   6.026   1.805   3.086 -0.1166 -0.0262  0.4986
   43MOL    C1023614   5.964   1.918   3.128 -0.3876  0.4296 -0.2616
   43MOL    C1123615   5.931   2.020   3.037  0.5799  0.9192  1.0421
   43MOL    N1223616   5.859   2.135   3.081  0.5868 -0.1179  0.0131
   43MOL    C1323617   5.964   2.009   2.901  0.4108  0.1721 -0.3344
   43MOL    C1423618   6.040   1.900   2.859 -0.0885  0.1579  0.2891
   43MOL    O1523619   6.048   1.510   2.996  0.0736  0.2133 -0.2222
   43MOL    C1623620   6.209   1.337   2.837  0.2276  0.4125  0.6014
   43MOL    C1723621   6.305   1.253   2.781  0.6700  0.0474  0.7437
   43MOL    O1823622   6.515   1.113   2.642  0.3908  0.1807  0.0426
   43MOL    H1923623   6.581   1.439   2.832  0.7287 -0.6460 -2.3427
   43MOL    H2023624   6.403   1.604   2.928  2.5359 -0.9655  0.9274
   43MOL    H2123625   6.205   1.701   2.820 -0.3036 -0.1332 -0.5652
   43MOL    H2223626   6.052   1.731   3.160 -1.1906 -1.0040 -0.0870
   43MOL    H2323627   5.936   1.919   3.233  0.4988 -0.8999  0.0013
   43MOL    H2423628   5.845   2.208   3.012  1.0218  0.9469  1.0255
   43MOL    H2523629   5.942   2.092   2.836  1.0473 -0.5082 -1.4292
   43MOL    H2623630   6.066   1.899   2.754 -0.9386 -1.0013  0.0791
   43MOL    H2723631   6.107   1.302   2.844  0.1963 -0.4462 -2.9124
   43MOL    H2823632   6.275   1.159   2.737 -2.5205  1.6273 -0.5796
   43MOL    H2923633   6.637   1.231   2.764  1.8908 -1.2970 -1.9712
   43MOL    C3023634   5.792   2.163   3.192 -0.0961 -0.3565  0.0671
   43MOL    C3123635   5.739   2.306   3.200 -0.0866 -0.0292 -0.0209
   43MOL    C3223636   5.605   2.337   3.237 -0.2899  1.6946  0.3060
   43MOL    C3323637   5.552   2.463   3.228 -0.0514  0.0176  0.1504
   43MOL    C3423638   5.634   2.574   3.203 -0.3937  0.6160  0.6786
   43MOL    C3523639   5.577   2.711   3.198  0.1437 -0.0854  1.2363
   43MOL    N3623640   5.445   2.722   3.172  0.1575  0.0138  0.4677
   43MOL    C3723641   5.386   2.827   3.104  0.7169 -0.1420  0.1352
   43MOL    C3823642   5.266   2.874   3.157  0.2867  0.0323  0.1497
   43MOL    C3923643   5.203   2.980   3.091 -0.5315 -0.1628  0.7080
   43MOL    C4023644   5.263   3.044   2.981  0.1777 -0.3604  0.3912
   43MOL    N4123645   5.203   3.160   2.927 -0.0916  0.1063 -0.0567
   43MOL    C4223646   5.384   2.996   2.930  0.0095  0.1000  0.1630
   43MOL    C4323647   5.445   2.883   2.987 -0.2083 -0.6029  0.2741
   43MOL    O4423648   5.650   2.812   3.209  0.6088  0.1861  0.0745
   43MOL    C4523649   5.769   2.548   3.176  0.0635  0.2315  0.4470
   43MOL    C4623650   5.823   2.419   3.183  0.2269 -0.3236  0.1091
   43MOL    O4723651   5.762   2.085   3.282  0.8707 -0.1297  0.1446
   43MOL    H4823652   5.532   2.260   3.257 -1.4435  2.3142 -1.3519
   43MOL    H4923653   5.449   2.475   3.256  0.0999 -0.9904  1.2050
   43MOL    H5023654   5.398   2.633   3.167  0.5855 -0.2488  1.0619
   43MOL    H5123655   5.219   2.831   3.244  1.3678 -1.5837 -0.0489
   43MOL    H5223656   5.112   3.017   3.136 -1.0592 -0.6217  0.0370
   43MOL    H5323657   5.159   3.225   2.991 -2.9929 -1.8153 -0.0471
   43MOL    H5423658   5.418   3.031   2.834 -1.3712 -0.7987 -0.6773
   43MOL    H5523659   5.535   2.837   2.950 -0.3160 -1.6009  1.2297
   43MOL    H5623660   5.829   2.632   3.146  1.9093 -1.7496 -1.5305
   43MOL    H5723661   5.927   2.406   3.157  0.2551 -1.5770  0.8287
   43MOL    C5823662   5.175   3.183   2.797  0.0364 -0.1114  0.0476
   43MOL    C5923663   5.101   3.311   2.767 -0.1878 -0.6155  0.0467
   43MOL    C6023664   5.119   3.423   2.848 -0.3467  0.0273 -0.6519
   43MOL    C6123665   5.043   3.544   2.827  0.2235  0.4106 -0.1211
   43MOL    C6223666   4.949   3.548   2.722  0.3586  0.7773  0.0344
   43MOL    C6323667   4.872   3.675   2.692  0.0996  0.1202  0.8138
   43MOL    N6423668   4.862   3.701   2.559  0.7416  1.0938  0.0682
   43MOL    C6523669   4.780   3.794   2.489  0.1399 -0.1003  0.2124
   43MOL    C6623670   4.829   3.836   2.366 -0.1232 -0.2923 -0.6598
   43MOL    C6723671   4.753   3.923   2.286  0.2532 -0.4813  0.5114
   43MOL    C6823672   4.622   3.966   2.329 -0.4050 -0.2594 -0.1788
   43MOL    N6923673   4.546   4.054   2.246 -0.6380 -0.1028  0.4093
   43MOL    C7023674   4.571   3.919   2.449  0.0228  0.8486  0.2935
   43MOL    C7123675   4.648   3.827   2.530  0.0827  0.0093 -0.3266
   43MOL    O7223676   4.830   3.753   2.777 -0.3168  0.1740  0.3723
   43MOL    C7323677   4.929   3.436   2.636 -0.3676 -0.0081 -0.1494
   43MOL    C7423678   5.008   3.325   2.663 -0.0624 -0.5169  0.4775
   43MOL    O7523679   5.200   3.104   2.706  0.3217  0.5681 -0.2648
   43MOL    H7623680   5.183   3.418   2.935 -1.0469  2.5118  0.0333
   43MOL    H7723681   5.054   3.630   2.892  1.1839  1.2323 -1.3599
   43MOL    H7823682   4.932   3.650   2.507 -0.8147 -1.1665  0.1445
   43MOL    H7923683   4.929   3.812   2.333  0.9636  3.4289 -0.3622
   43MOL    H8023684   4.796   3.949   2.191 -2.3101  1.1606 -0.2722
   43MOL    H8123685   4.499   4.128   2.297 -0.5280  1.4468 -1.6710
   43MOL    H8223686   4.479   3.965   2.483 -0.4531  0.1869 -0.0824
   43MOL    H8323687   4.608   3.771   2.614  0.2717  0.7608  0.2734
   43MOL    H8423688   4.866   3.435   2.549 -0.2610 -1.0926 -0.2120
   43MOL    H8523689   5.004   3.234   2.605 -0.7782  0.0452 -0.3617
   43MOL    C8623690   4.509   4.036   2.117  0.2024 -0.3187  0.5968
   43MOL    C8723691   4.402   4.132   2.066  0.0125 -0.3204 -0.0051
   43MOL    C8823692   4.337   4.108   1.946 -0.0681  0.6855 -0.0996
   43MOL    C8923693   4.235   4.193   1.896 -0.9614  0.0288 -0.3274
   43MOL    C9023694   4.198   4.311   1.971 -0.1101  0.1925  0.2111
   43MOL    C9123695   4.103   4.410   1.918  0.3502  0.4477 -0.3982
   43MOL    N9223696   3.997   4.352   1.862  0.3932  0.1149  0.6091
   43MOL    C9323697   3.880   4.421   1.831  0.6121  0.2312  0.0240
   43MOL    C9423698   3.763   4.345   1.852  0.3327 -0.5456  0.1395
   43MOL    C9523699   3.641   4.408   1.828  0.1664 -0.4215 -0.0876
   43MOL    C9623700   3.623   4.538   1.775 -0.3069  0.4868  0.9024
   43MOL    N9723701   3.499   4.596   1.743  0.3652 -0.5213  0.0836
   43MOL    C9823702   3.746   4.603   1.750  0.8607 -0.4931 -0.5636
   43MOL    C9923703   3.872   4.546   1.772 -0.0697  0.5956 -0.0481
   43MOL   O10023704   4.117   4.531   1.943 -0.1293  0.5223  0.3467
   43MOL   C10123705   4.266   4.333   2.090  0.1390 -0.2358 -0.2288
   43MOL   C10223706   4.359   4.240   2.137 -0.2254 -0.5429  0.0940
   43MOL   O10323707   4.550   3.933   2.054 -0.6826 -1.0701 -0.1659
   43MOL   H10423708   4.360   4.021   1.887  1.0014  0.4801  0.6047
   43MOL   H10523709   4.201   4.172   1.795 -0.7529 -1.5114 -0.0977
   43MOL   H10623710   3.986   4.252   1.871 -1.7041  0.5259  3.0686
   43MOL   H10723711   3.771   4.243   1.886 -0.3924 -0.2512  1.1910
   43MOL   H10823712   3.557   4.343   1.850 -0.8924  1.2741  0.9525
   43MOL   H10923713   3.507   4.690   1.706  3.5708 -0.5248  0.6790
   43MOL   H11023714   3.738   4.700   1.704 -3.6244 -1.1959 -1.4807
   43MOL   H11123715   3.961   4.605   1.753  1.6078 -1.3461  1.5493
   43MOL   H11223716   4.242   4.424   2.143 -0.8766 -0.1358 -0.8403
   43MOL   H11323717   4.398   4.256   2.237 -0.4441  0.8591 -0.0340
   43MOL   C11423718   3.379   4.540   1.718  0.0819  0.1751 -0.4693
   43MOL   C11523719   3.277   4.632   1.661  0.4708 -0.1807  0.6103
   43MOL   C11623720   3.141   4.606   1.691  0.3260  0.6484  0.5864
   43MOL   C11723721   3.037   4.690   1.639  0.0560  0.0048  0.0744
   43MOL   C11823722   3.066   4.805   1.559 -0.4758  0.0146 -0.0271
   43MOL   C11923723   2.954   4.872   1.488 -0.4886  0.8368 -0.1563
   43MOL   N12023724   2.948   4.868   1.355 -0.0908 -0.3444 -0.5400
   43MOL   C12123725   3.031   4.797   1.268 -0.7944 -1.0292 -0.2059
   43MOL   C12223726   3.054   4.659   1.283 -0.3245  0.1923 -0.2836
   43MOL   C12323727   3.160   4.600   1.206 -0.0331 -0.4079 -0.6020
   43MOL   C12423728   3.246   4.681   1.119  0.6485 -0.0942 -0.9609
   43MOL   N12523729   3.352   4.631   1.041 -0.0684  0.0028 -0.4990
   43MOL   C12623730   3.214   4.815   1.103 -0.1197  0.1730  0.0120
   43MOL   C12723731   3.111   4.874   1.177  0.3838  0.4534  0.3519
   43MOL   O12823732   2.851   4.908   1.551 -0.3683  0.1353  0.2394
   43MOL   C12923733   3.202   4.837   1.539 -0.1248 -0.3563  0.4579
   43MOL   C13023734   3.307   4.746   1.581 -0.1491 -0.5921 -0.4050
   43MOL   O13123735   3.351   4.427   1.759  0.3077 -0.5777 -0.8057
   43MOL   H13223736   3.114   4.510   1.734 -3.1496  0.5250 -1.6768
   43MOL   H13323737   2.931   4.669   1.641  0.0002  0.1037 -1.6196
   43MOL   H13423738   2.864   4.907   1.314 -0.5760 -1.6226 -0.7891
   43MOL   H13523739   3.003   4.598   1.355 -0.3919  0.0960 -0.4139
   43MOL   H13623740   3.174   4.494   1.213  1.4229 -0.1714  0.4718
   43MOL   H13723741   3.432   4.691   1.026  0.1553 -0.3549 -0.7500
   43MOL   H13823742   3.279   4.881   1.048 -0.0964 -0.1027 -0.2896
   43MOL   H13923743   3.097   4.981   1.171  1.8390  0.5835 -0.7688
   43MOL   H14023744   3.235   4.923   1.482  0.9581 -1.1151 -0.0789
   43MOL   H14123745   3.409   4.760   1.548  0.4725 -2.9361  0.4418
   43MOL   C14223746   3.377   4.498   1.016 -0.1321  0.4615 -0.2519
   43MOL   C14323747   3.517   4.456   1.035  0.0277 -0.1147 -0.2027
   43MOL   C14423748   3.596   4.515   1.133  0.0797  0.3884  0.1371
   43MOL   C14523749   3.722   4.465   1.151  0.0490  0.2148 -0.0234
   43MOL   C14623750   3.765   4.344   1.094  0.4179  0.9770  0.0945
   43MOL   C14723751   3.899   4.285   1.128 -0.1708 -0.0475  0.0078
   43MOL   N14823752   3.908   4.152   1.143 -0.5853 -0.3567 -0.3857
   43MOL   C14923753   4.008   4.080   1.210 -0.1935  0.7288  0.2023
   43MOL   C15023754   4.001   3.937   1.204 -0.4989  0.8728  0.5112
   43MOL   C15123755   4.086   3.854   1.281 -0.2141  0.2289  0.0673
   43MOL   C15223756   4.182   3.916   1.358 -0.3754  0.2036 -0.2081
   43MOL   N15323757   4.256   3.824   1.437 -0.5538 -0.5156 -1.0876
   43MOL   C15423758   4.203   4.057   1.355 -0.2310  0.4324  0.0601
   43MOL   C15523759   4.120   4.135   1.273 -0.9464 -0.3097 -0.0671
   43MOL   O15623760   3.993   4.361   1.137 -0.0893 -0.3731  0.1804
   43MOL   C15723761   3.684   4.282   0.998  0.4097 -0.2281  0.2472
   43MOL   C15823762   3.556   4.338   0.969  0.1827 -0.2691  0.1020
   43MOL   O15923763   3.287   4.412   0.981 -0.5911 -0.5088 -0.5492
   43MOL   H16023764   3.550   4.590   1.196  0.3344  1.3034 -0.7398
   43MOL   H16123765   3.778   4.511   1.231  0.3075  1.1937 -0.7619
   43MOL   H16223766   3.826   4.098   1.119  0.4991 -2.8265  1.1707
   43MOL   H16323767   3.917   3.899   1.148 -0.4095 -0.3941  1.2079
   43MOL   H16423768   4.068   3.748   1.288 -0.3918  0.2711  0.2495
   43MOL   H16523769   4.289   3.739   1.393  1.0387 -0.2491 -0.4499
   43MOL   H16623770   4.267   4.111   1.423 -0.9719  1.1902  0.1631
   43MOL   H16723771   4.143   4.241   1.275 -0.1700 -0.4444 -1.5949
   43MOL   H16823772   3.710   4.193   0.943 -2.3501 -1.5575  1.0214
   43MOL   H16923773   3.489   4.286   0.902  0.2811  0.7223 -0.7706
   43MOL   C17023774   4.306   3.843   1.562 -0.1447  0.1479  0.9224
   43MOL   C17123775   4.370   3.723   1.620 -0.2151  0.7767  0.8348
   43MOL   C17223776   4.320   3.593   1.588 -0.5092 -0.0725  0.3940
   43MOL   C17323777   4.382   3.477   1.642  0.6875  0.3754 -0.2608
   43MOL   C17423778   4.497   3.482   1.728 -0.2951 -0.7817 -0.1493
   43MOL   C17523779   4.550   3.354   1.783  0.4615 -0.1841 -0.2243
   43MOL   N17623780   4.664   3.359   1.850 -0.0798  0.3500  0.3024
   43MOL   C17723781   4.724   3.249   1.914  0.0411  0.1872 -0.5468
   43MOL   C17823782   4.863   3.233   1.899 -0.5315  0.3496  0.0378
   43MOL   C17923783   4.929   3.117   1.951  0.3519 -0.0453  0.1727
   43MOL   C18023784   4.851   3.021   2.015  0.6337  0.4300  0.5775
   43MOL   N18123785   4.911   2.897   2.053  0.3843 -0.5748  0.3830
   43MOL   C18223786   4.715   3.048   2.042 -0.4226  0.2100  0.2558
   43MOL   C18323787   4.650   3.159   1.990  0.6208 -0.8434  0.4102
   43MOL   O18423788   4.494   3.246   1.758  0.8440 -0.8849 -0.2035
   43MOL   C18523789   4.542   3.611   1.763  0.1526 -0.2754 -0.7258
   43MOL   C18623790   4.478   3.732   1.712 -0.0690 -0.2411  0.4854
   43MOL   O18723791   4.298   3.946   1.634  0.1753 -0.1461 -0.3557
   43MOL   H18823792   4.234   3.573   1.525  0.6342 -2.5472 -0.4279
   43MOL   H18923793   4.343   3.384   1.603  2.0263 -1.0912  1.7598
   43MOL   H19023794   4.708   3.448   1.862 -0.9504  0.7646  0.4823
   43MOL   H19123795   4.921   3.315   1.860 -1.6832  0.6737 -1.0237
   43MOL   H19223796   5.035   3.110   1.933  0.6698  1.0886  1.4502
   43MOL   H19323797   4.998   2.881   2.004 -0.8539 -2.5737 -1.1935
   43MOL   H19423798   4.659   2.967   2.087  1.1204 -0.6649  0.6651
   43MOL   H19523799   4.545   3.174   2.010  0.4003 -0.1614 -1.1439
   43MOL   H19623800   4.628   3.613   1.829 -0.1310  0.1214 -0.3687
   43MOL   H19723801   4.520   3.831   1.718 -3.9659  1.6609 -1.3816
   43MOL   C19823802   4.890   2.816   2.158  0.6034 -0.0829 -0.1468
   43MOL   C19923803   4.962   2.684   2.155 -0.3933  0.2223  0.3997
   43MOL   C20023804   5.012   2.633   2.030  0.1366 -0.1182 -0.1671
   43MOL   C20123805   5.071   2.505   2.028 -0.3077 -0.0038 -0.3752
   43MOL   C20223806   5.070   2.421   2.143  0.2304 -0.0295  0.0170
   43MOL   C20323807   5.121   2.279   2.134 -0.2368  0.1139 -1.3293
   43MOL   N20423808   5.039   2.197   2.200 -0.0494  0.9616  0.4832
   43MOL   C20523809   5.040   2.058   2.211 -0.7856 -0.2812 -0.0128
   43MOL   C20623810   4.979   2.003   2.325 -0.0278 -0.0836  0.9049
   43MOL   C20723811   4.981   1.863   2.343  0.2801  0.3109 -0.2081
   43MOL   C20823812   5.033   1.778   2.242 -0.1628  0.1118 -0.1544
   43MOL   N20923813   5.026   1.633   2.249  0.1511 -0.0892 -0.2344
   43MOL   C21023814   5.086   1.841   2.122  0.6601  0.2122 -0.5949
   43MOL   C21123815   5.089   1.977   2.108  0.0959 -0.0718  0.0923
   43MOL   O21223816   5.224   2.250   2.073  0.1621 -0.2125 -0.6570
   43MOL   C21323817   5.022   2.473   2.264 -0.0345  0.4445 -0.7321
   43MOL   C21423818   4.978   2.609   2.274  0.5221  0.2814  0.1502
   43MOL   O21523819   4.811   2.838   2.250  0.4232 -0.3284 -0.1421
   43MOL   H21623820   4.995   2.686   1.938 -3.2022 -0.5105  0.1375
   43MOL   H21723821   5.102   2.470   1.930 -0.1126 -0.9661  0.0268
   43MOL   H21823822   4.960   2.242   2.244  0.1235 -0.4065  2.3033
   43MOL   H21923823   4.934   2.068   2.398  0.3089  0.5018  0.5938
   43MOL   H22023824   4.942   1.829   2.437 -0.1282  0.0871 -0.4590
   43MOL   H22123825   5.106   1.583   2.215  0.3397 -0.8903  1.3695
   43MOL   H22223826   5.135   1.778   2.049  1.3047  1.2265 -1.0649
   43MOL   H22323827   5.138   2.012   2.018 -1.4897  0.0861 -0.7254
   43MOL   H22423828   5.018   2.400   2.343 -1.4022 -0.2337 -1.4139
   43MOL   H22523829   4.945   2.641   2.372 -1.8827  1.8371 -1.1492
   43MOL   C22623830   4.940   1.562   2.323  0.9996  0.4625  0.0254
   43MOL   C22723831   4.966   1.416   2.307  0.7713 -0.4368  0.4028
   43MOL   C22823832   5.093   1.367   2.299  0.5982 -0.2971  0.0259
   43MOL   C22923833   5.123   1.228   2.272  0.2313 -0.2283 -0.4474
   43MOL   C23023834   5.019   1.142   2.237 -0.1385  0.7342 -0.0219
   43MOL   C23123835   5.036   1.000   2.190  0.2192 -0.6607  0.6343
   43MOL   N23223836   5.133   0.968   2.100 -0.1494  0.1177 -0.1710
   43MOL   C23323837   5.194   1.057   2.011  0.6944 -0.1413 -0.7049
   43MOL   C23423838   5.121   1.153   1.939  1.3703  0.5761 -0.1694
   43MOL   C23523839   5.188   1.240   1.852  0.8683  0.0568 -0.0521
   43MOL   C23623840   5.326   1.232   1.832 -0.2284  0.0008  0.1475
   43MOL   N23723841   5.400   1.310   1.742  0.3323  0.5681  0.4396
   43MOL   C23823842   5.399   1.133   1.896  0.6873 -0.3710  0.4848
   43MOL   C23923843   5.332   1.045   1.989 -0.4662  0.4628  0.1848
   43MOL   O24023844   4.964   0.909   2.228  0.3534  0.2777  0.0294
   43MOL   C24123845   4.885   1.190   2.245 -0.0740  0.0338 -0.1122
   43MOL   C24223846   4.856   1.324   2.276 -1.0260 -0.6347  0.2166
   43MOL   O24323847   4.847   1.607   2.393  0.2647 -0.2230  0.0508
   43MOL   H24423848   5.179   1.428   2.319 -0.6640  1.1287  1.2079
   43MOL   H24523849   5.222   1.184   2.282 -0.4088 -1.3448  1.2436
   43MOL   H24623850   5.135   0.869   2.080  0.5193  0.3383 -1.2730
   43MOL   H24723851   5.014   1.160   1.939  1.4726  2.2386  0.4584
   43MOL   H24823852   5.128   1.316   1.803  0.5869  0.4922  0.9587
   43MOL   H24923853   5.501   1.304   1.746  0.3968 -2.3773 -3.1108
   43MOL   H25023854   5.505   1.112   1.889  0.2536 -2.6162  0.3014
   43MOL   H25123855   5.388   0.965   2.035 -1.3955 -0.1173  0.3253
   43MOL   H25223856   4.810   1.115   2.225 -1.2303  0.5545  2.1017
   43MOL   H25323857   4.757   1.356   2.305 -0.9364  0.0770 -0.2513
   43MOL   C25423858   5.365   1.421   1.671 -0.9127  0.2378 -0.1572
   43MOL   C25523859   5.492   1.489   1.625 -0.1615  0.1448 -0.6695
   43MOL   C25623860   5.512   1.536   1.496 -0.1512  0.0815  0.0450
   43MOL   C25723861   5.624   1.607   1.445  1.1998 -0.3409 -0.4788
   43MOL   C25823862   5.721   1.640   1.544 -0.2299  0.3780  0.1442
   43MOL   C25923863   5.848   1.719   1.509  0.4381  0.5158 -0.0821
   43MOL   N26023864   5.880   1.721   1.378 -1.0669  0.0574 -0.3712
   43MOL   C26123865   5.976   1.809   1.316  0.2941  0.2188 -0.1586
   43MOL   C26223866   6.031   1.758   1.197  0.5730 -0.7318  1.0643
   43MOL   C26323867   6.117   1.832   1.121  0.1398  0.1578  0.4534
   43MOL   C26423868   6.137   1.966   1.152 -0.6798  0.7121  0.0989
   43MOL   N26523869   6.219   2.041   1.059  0.4229 -0.4834 -0.6552
   43MOL   C26623870   6.075   2.018   1.272  0.6167 -0.4516  0.3202
   43MOL   C26723871   5.990   1.940   1.358 -0.0300  0.0194 -0.1747
   43MOL   O26823872   5.915   1.771   1.596  0.0957 -0.5536  0.1272
   43MOL   C26923873   5.702   1.593   1.674  0.2934  0.2521 -0.0751
   43MOL   C27023874   5.596   1.513   1.712  0.6551 -0.2161  0.2680
   43MOL   O27123875   5.246   1.464   1.656 -0.0335  0.2568  0.3200
   43MOL   H27223876   5.436   1.515   1.422 -0.3516  0.4074  0.1623
   43MOL   H27323877   5.644   1.638   1.344  2.6084  3.2268  0.8100
   43MOL   H27423878   5.847   1.642   1.325 -1.9624 -2.0991  3.2463
   43MOL   H27523879   6.022   1.654   1.170  3.6865 -0.8154  0.1609
   43MOL   H27623880   6.163   1.794   1.031  1.0378  0.1672  0.9084
   43MOL   H27723881   6.257   1.984   0.985  1.0287 -0.6247 -0.2348
   43MOL   H27823882   6.107   2.112   1.315  0.2628 -0.7602  1.2697
   43MOL   H27923883   5.957   1.978   1.454 -2.2969 -1.7621 -0.1917
   43MOL   H28023884   5.767   1.622   1.756  1.1873 -1.8144 -0.0168
   43MOL   H28123885   5.585   1.489   1.817  0.5304  1.8683  0.7513
   43MOL   C28223886   6.234   2.168   1.049 -0.7093 -0.1593  0.7061
   43MOL   C28323887   6.307   2.207   0.925  0.4636  0.1007 -0.5670
   43MOL   C28423888   6.419   2.137   0.877  0.5505 -0.1122 -0.0173
   43MOL   C28523889   6.486   2.176   0.761  0.2004 -0.2074  0.7575
   43MOL   C28623890   6.445   2.294   0.698  0.2113 -0.0743 -0.0639
   43MOL   C28723891   6.509   2.345   0.570 -0.1377  0.9406  0.1546
   43MOL   N28823892   6.420   2.380   0.483 -0.5040 -0.7827 -0.7353
   43MOL   C28923893   6.441   2.431   0.351 -0.5080  0.4644 -0.3530
   43MOL   C29023894   6.565   2.467   0.301 -0.6128 -0.0743 -0.0383
   43MOL   C29123895   6.579   2.531   0.172 -0.0389  0.4035 -0.2332
   43MOL   C29223896   6.456   2.569   0.108 -0.5441  0.1270 -0.1477
   43MOL   N29323897   6.444   2.658   0.000 -0.0483 -0.2781  0.2409
   43MOL   C29423898   6.327   2.533   0.162 -0.6346  0.6026  0.6513
   43MOL   C29523899   6.323   2.468   0.286 -0.4507  0.0185  0.3807
   43MOL   O29623900   6.629   2.347   0.554 -0.4829 -0.3067  0.1274
   43MOL   C29723901   6.327   2.359   0.745  0.2662 -0.4090  0.2049
   43MOL   C29823902   6.269   2.321   0.862 -0.9334 -0.3348 -1.0971
   43MOL   O29923903   6.197   2.252   1.135 -0.3487 -0.4241 -0.7165
   43MOL   H30023904   6.454   2.047   0.924 -2.4637 -1.3730 -0.0358
   43MOL   H30123905   6.578   2.127   0.734 -0.3363 -1.0815  0.4924
   43MOL   H30223906   6.323   2.372   0.511 -0.5504  1.1747 -0.2728
   43MOL   H30323907   6.657   2.449   0.354  1.0158 -0.7285 -2.9919
   43MOL   H30423908   6.677   2.548   0.129 -0.3875  0.3015 -1.0871
   43MOL   H30523909   6.352   2.674   8.109  0.1674  0.4237  0.0004
   43MOL   H30623910   6.236   2.561   0.112 -0.1151  0.6730 -0.2703
   43MOL   H30723911   6.224   2.440   0.320 -0.7570 -1.2618 -1.4518
   43MOL   H30823912   6.289   2.447   0.695 -0.3771 -0.9361 -0.2335
   43MOL   H30923913   6.197   2.390   0.903 -0.2480  1.3313 -2.6440
   43MOL   C31023914   6.528   2.760   8.138  0.4995  0.3473 -0.3382
   43MOL   C31123915   6.449   2.887   8.126 -0.2738  0.0404  0.2178
   43MOL   C31223916   6.317   2.900   0.029  0.9416 -0.4538 -0.3373
   43MOL   C31323917   6.255   3.025   0.032 -0.6856 -0.9356 -0.2886
   43MOL   C31423918   6.321   3.141   8.138  0.6128  0.3914  0.0164
   43MOL   C31523919   6.267   3.282   0.002 -0.1014 -0.0179  0.5435
   43MOL   N31623920   6.299   3.364   0.102 -0.1750  0.3001 -0.0487
   43MOL   C31723921   6.394   3.352   0.208  0.1473  0.1776 -0.7722
   43MOL   C31823922   6.434   3.229   0.271 -0.0373 -0.1115  0.5928
   43MOL   C31923923   6.518   3.232   0.386  0.4381 -0.1212  0.4716
   43MOL   C32023924   6.553   3.357   0.445  0.0756 -0.2204  0.7557
   43MOL   N32123925   6.629   3.368   0.565 -0.1148  0.0851  0.1031
   43MOL   C32223926   6.511   3.477   0.384 -0.1005  0.3866 -0.5299
   43MOL   C32323927   6.437   3.479   0.260 -0.0911  0.0514  0.4600
   43MOL   O32423928   6.190   3.313   8.055 -0.1410  0.0004 -0.0937
   43MOL   C32523929   6.453   3.133   8.100  0.0607  0.0665 -0.1060
   43MOL   C32623930   6.516   3.006   8.090  0.1835  0.1732  0.1040
   43MOL   O32723931   6.648   2.762   8.134  0.6599 -0.2177  0.3221
   43MOL   H32823932   6.261   2.813   0.060 -2.5007  1.6291 -0.3896
   43MOL   H32923933   6.152   3.033   0.064 -0.8554 -1.7142 -0.6317
   43MOL   H33023934   6.266   3.458   0.083  0.1423  0.1527 -1.3938
   43MOL   H33123935   6.410   3.131   0.233  0.2727 -0.7218  1.9491
   43MOL   H33223936   6.545   3.133   0.421  0.2813  0.0784  1.1615
   43MOL   H33323937   6.631   3.459   0.607  1.9502  1.3464 -2.5777
   43MOL   H33423938   6.546   3.569   0.429  3.3568 -1.2788  0.3667
   43MOL   H33523939   6.400   3.572   0.219 -0.1940 -0.8995 -1.6850
   43MOL   H33623940   6.501   3.217   8.053  0.5857 -0.2262 -0.1008
   43MOL   H33723941   6.617   2.991   8.053 -0.1989 -2.0865 -0.0995
   43MOL   C33823942   6.657   3.273   0.652 -0.6051 -0.3580  1.2482
   43MOL   C33923943   6.662   3.319   0.793  0.1949 -0.4096 -0.2847
   43MOL   C34023944   6.779   3.303   0.871 -0.2121 -0.3092  0.3024
   43MOL   C34123945   6.783   3.373   0.993 -0.4947  0.3501 -0.2822
   43MOL   C34223946   6.665   3.447   1.038 -0.2133 -0.7787  0.4944
   43MOL   C34323947   6.671   3.534   1.158 -1.1962 -0.2990 -0.7600
   43MOL   N34423948   6.779   3.616   1.162 -0.2651  0.1899  0.0382
   43MOL   C34523949   6.819   3.711   1.260  0.2315  0.1155  0.6735
   43MOL   C34623950   6.945   3.775   1.239 -0.2148  1.1243  0.5424
   43MOL   C34723951   6.970   3.892   1.315 -0.4510  0.0978 -0.1908
   43MOL   C34823952   6.882   3.935   1.417 -0.3389 -0.0462  0.2780
   43MOL   N34923953   6.908   4.059   1.486  0.4251 -0.3156  0.0329
   43MOL   C35023954   6.768   3.857   1.451  0.2646 -0.1577 -1.0338
   43MOL   C35123955   6.736   3.746   1.368 -0.0561 -0.0483 -0.4041
   43MOL   O35223956   6.579   3.539   1.233  0.2117 -0.1794 -0.1288
   43MOL   C35323957   6.542   3.437   0.967  0.1113 -0.6522  0.7115
   43MOL   C35423958   6.548   3.387   0.840  0.8115 -0.0595 -0.2964
   43MOL   O35523959   6.680   3.155   0.627 -0.1873  0.0429  0.0934
   43MOL   H35623960   6.867   3.254   0.834  0.6194 -1.2284  3.3539
   43MOL   H35723961   6.876   3.379   1.047 -1.1098 -2.0239  1.0960
   43MOL   H35823962   6.840   3.621   1.081  0.5076  3.5600  0.7651
   43MOL   H35923963   7.014   3.748   1.160 -0.9233  1.3210 -0.1454
   43MOL   H36023964   7.048   3.962   1.292 -0.5809  0.1008 -0.6324
   43MOL   H36123965   7.001   4.062   1.527  0.4360  1.6558 -0.1079
   43MOL   H36223966   6.708   3.898   1.531  0.2953 -0.1809 -0.9986
   43MOL   H36323967   6.642   3.698   1.391  0.3694 -0.9470 -0.4878
   43MOL   H36423968   6.453   3.494   0.990  0.2416 -0.9420  1.9899
   43MOL   H36523969   6.461   3.387   0.777  1.0235 -0.1605 -0.5916
   43MOL   C36623970   6.832   4.168   1.481  0.9696  0.1464 -0.0809
   43MOL   C36723971   6.900   4.299   1.524 -0.2280 -0.2876 -0.0638
   43MOL   C36823972   6.816   4.409   1.549  0.6941 -0.1386  0.4509
   43MOL   C36923973   6.869   4.530   1.577  0.2025 -0.4234 -0.4680
   43MOL   C37023974   7.010   4.543   1.577 -0.2444  0.2378 -0.3351
   43MOL   C37123975   7.075   4.674   1.602  0.3199  0.3824 -0.1824
   43MOL   N37223976   6.994   4.764   1.648 -0.5748 -0.8674 -0.5121
   43MOL   C37323977   7.033   4.893   1.687  0.2321 -0.2136  0.6962
   43MOL   C37423978   7.149   4.965   1.637  1.2579 -0.2993  0.7701
   43MOL   C37523979   7.157   5.106   1.669 -1.0649 -0.1959 -0.5604
   43MOL   C37623980   7.065   5.168   1.754 -0.0401  0.4750  0.0619
   43MOL   N37723981   7.086   5.306   1.777 -0.1015  0.4154  0.2335
   43MOL   C37823982   6.951   5.092   1.799  0.0480 -0.0868 -0.4886
   43MOL   C37923983   6.936   4.961   1.764  0.2310  0.4311  0.5702
   43MOL   O38023984   7.187   4.684   1.585  0.0353  0.1529 -0.0499
   43MOL   C38123985   7.095   4.434   1.550 -0.6229 -0.0756  0.8118
   43MOL   C38223986   7.039   4.310   1.533  0.2190 -0.6082  0.3177
   43MOL   O38323987   6.714   4.166   1.447 -0.0800 -0.3454  0.8492
   43MOL   H38423988   6.709   4.394   1.546  0.7882 -1.3114  2.1566
   43MOL   H38523989   6.796   4.610   1.581  0.6443 -0.0732  0.8137
   43MOL   H38623990   6.901   4.733   1.672 -1.5325 -0.7605 -3.8795
   43MOL   H38723991   7.216   4.929   1.560  0.9931  0.8983 -0.0258
   43MOL   H38823992   7.234   5.165   1.621 -1.0951 -0.6437 -1.1632
   43MOL   H38923993   7.125   5.357   1.699 -1.0004 -1.5505 -1.5799
   43MOL   H39023994   6.876   5.150   1.851 -2.2274 -1.8265 -1.7130
   43MOL   H39123995   6.845   4.908   1.788  1.8451 -1.7603  2.1290
   43MOL   H39223996   7.203   4.440   1.548 -0.6719  0.9147  0.5740
   43MOL   H39323997   7.110   4.233   1.506  0.9443  0.0320  0.3805
   43MOL   C39423998   7.050   5.374   1.884 -0.7458 -0.0313  0.5330
   43MOL   C39523999   7.104   5.515   1.893 -0.1017 -0.0345 -0.2010
   43MOL   C39624000   7.025   5.602   1.969  0.7007 -0.6243 -0.3936
   43MOL   C39724001   7.070   5.738   1.980  0.5010 -0.4343 -0.1580
   43MOL   C39824002   7.186   5.780   1.921 -0.5472 -0.1907 -0.2118
   43MOL   C39924003   7.233   5.918   1.936  0.1823  0.5365 -0.3799
   43MOL   N40024004   7.185   5.984   2.040  0.3690 -0.3218  0.2429
   43MOL   C40124005   7.196   6.123   2.072 -0.2794  0.8563  0.8208
   43MOL   C40224006   7.291   6.212   2.021 -0.1660  0.2253  0.4083
   43MOL   C40324007   7.280   6.347   2.049 -0.1685  0.5416 -0.2357
   43MOL   C40424008   7.189   6.402   2.147 -0.7139  0.4514  0.1644
   43MOL   N40524009   7.180   6.542   2.151  0.0117 -0.2480 -0.4869
   43MOL   C40624010   7.101   6.312   2.202  0.4175 -0.3793  0.1149
   43MOL   C40724011   7.100   6.176   2.165  0.6518  0.1038  0.5546
   43MOL   O40824012   7.329   5.950   1.864  0.0729 -0.2028  0.4798
   43MOL   C40924013   7.259   5.688   1.844 -0.2479 -0.4147  0.4523
   43MOL   C41024014   7.222   5.554   1.829 -0.1565  0.2942 -0.4097
   43MOL   O41124015   6.977   5.332   1.974 -0.4130 -0.8003 -0.6628
   43MOL   H41224016   6.928   5.569   2.005  0.2395  0.8712 -0.2544
   43MOL   H41324017   7.001   5.814   2.013  2.5293  0.0084  3.3172
   43MOL   H41424018   7.128   5.930   2.104  1.0972 -1.9206 -0.4193
   43MOL   H41524019   7.365   6.187   1.946  1.0912 -0.0849  1.7296
   43MOL   H41624020   7.357   6.411   2.009  0.2151  0.1027 -0.2171
   43MOL   H41724021   7.193   6.595   2.066 -3.7342  1.0001 -0.3940
   43MOL   H41824022   7.025   6.351   2.268 -0.9548  0.4891 -1.9265
   43MOL   H41924023   7.008   6.122   2.184  0.7575  0.3045  1.6285
   43MOL   H42024024   7.352   5.717   1.797 -0.7201  1.0797  0.4359
   43MOL   H42124025   7.281   5.488   1.768 -1.7274 -0.6295 -0.9661
   43MOL   C42224026   7.145   6.618   2.254 -0.2048  0.1134  0.3001
   43MOL   C42324027   7.139   6.766   2.222  0.3440 -0.2534 -0.3154
   43MOL   C42424028   7.148   6.820   2.095 -0.2149  0.7480  0.5202
   43MOL   C42524029   7.125   6.960   2.062  0.7512 -0.4513  0.4152
   43MOL   C42624030   7.107   7.045   2.171  0.1067 -0.1803 -0.4178
   43MOL   C42724031   7.083   7.201   2.162 -1.1670  0.4276 -0.6464
   43MOL   N42824032   7.096   7.251   2.040  0.2260 -0.2304  0.0746
   43MOL   C42924033   7.048   7.379   1.989 -0.6985  0.0056  0.6987
   43MOL   C43024034   7.121   7.439   1.882  0.0564  1.1953  0.0880
   43MOL   C43124035   7.082   7.560   1.833 -0.6540  0.5897 -0.0245
   43MOL   C43224036   6.970   7.630   1.880  0.2693  0.0382  0.5525
   43MOL   N43324037   6.933   7.768   1.845 -0.3861  0.0903  0.1312
   43MOL   C43424038   6.904   7.573   1.984 -0.1435 -0.4708  0.3424
   43MOL   C43524039   6.941   7.449   2.039 -0.0315 -0.1667  0.1668
   43MOL   O43624040   7.056   7.268   2.260  0.3761 -0.2286 -0.3047
   43MOL   C43724041   7.094   6.992   2.299 -0.5290 -0.3295  0.0955
   43MOL   C43824042   7.110   6.858   2.329  0.0882  0.5564 -0.6595
   43MOL   O43924043   7.129   6.574   2.363  0.3065  0.5431 -0.1221
   43MOL   H44024044   7.165   6.749   2.016 -2.7657  1.7134 -0.9875
   43MOL   H44124045   7.124   6.973   1.955 -0.1759  0.4954  0.5377
   43MOL   H44224046   7.145   7.189   1.977 -0.0594  1.0704 -1.4528
   43MOL   H44324047   7.207   7.389   1.839  0.8311  1.4592  1.3075
   43MOL   H44424048   7.147   7.596   1.755  0.0741 -0.7111 -0.0381
   43MOL   H44524049   6.880   7.819   1.914  0.8824  0.9143  0.5156
   43MOL   H44624050   6.822   7.634   2.018  2.3607  2.8402  0.6453
   43MOL   H44724051   6.872   7.410   2.112  0.4972  0.3854  0.9745
   43MOL   H44824052   7.076   7.058   2.382  0.2454 -1.1919  0.9662
   43MOL   H44924053   7.100   6.819   2.429  1.8390 -2.5061 -1.6144
   43MOL   C45024054   6.956   7.844   1.735 -0.0725  0.2893 -0.1817
   43MOL   C45124055   7.037   7.790   1.622 -0.1140  0.4209  0.0176
   43MOL   C45224056   7.177   7.815   1.622  0.6438 -0.2612  0.4128
   43MOL   C45324057   7.268   7.749   1.540 -0.2746  0.7632  0.5214
   43MOL   C45424058   7.216   7.653   1.445 -0.9334 -0.0098 -0.1486
   43MOL   C45524059   7.307   7.594   1.344 -0.6501  0.4364  0.1420
   43MOL   N45624060   7.257   7.483   1.289 -0.1555 -0.6643  0.1123
   43MOL   C45724061   7.320   7.397   1.186  0.3319 -0.4665 -0.4853
   43MOL   C45824062   7.418   7.445   1.102 -0.1755 -0.4724 -1.1372
   43MOL   C45924063   7.466   7.358   1.005 -0.6635 -0.0656 -0.5976
   43MOL   C46024064   7.413   7.228   0.988  0.3548 -0.0666 -0.0106
   43MOL   N46124065   7.461   7.133   0.895 -0.3719  0.3399 -0.0490
   43MOL   C46224066   7.296   7.189   1.055  0.7474 -0.2801 -0.6989
   43MOL   C46324067   7.247   7.274   1.158  0.1335  0.1774 -0.1009
   43MOL   O46424068   7.421   7.630   1.328  0.0972  0.2151 -0.0936
   43MOL   C46524069   7.074   7.635   1.439 -0.1824  0.5274  0.5494
   43MOL   C46624070   6.985   7.694   1.538 -0.0214 -0.3303 -0.7196
   43MOL   O46724071   6.912   7.953   1.719  0.1370 -0.4601  0.2881
   43MOL   H46824072   7.215   7.883   1.698 -2.5976  1.9341  0.2001
   43MOL   H46924073   7.374   7.769   1.537  0.2162 -1.5109  1.5111
   43MOL   H47024074   7.184   7.432   1.337 -0.6719  0.4523  0.5393
   43MOL   H47124075   7.473   7.536   1.121 -0.8315 -0.1361 -0.8375
   43MOL   H47224076   7.554   7.388   0.951 -0.8939  0.0803 -0.8949
   43MOL   H47324077   7.435   7.038   0.916 -3.3440  1.5540  2.1701
   43MOL   H47424078   7.238   7.099   1.041  2.0260 -1.4378  1.2210
   43MOL   H47524079   7.162   7.244   1.217  0.8972 -0.4579  0.7041
   43MOL   H47624080   7.027   7.579   1.360 -0.9512  0.1021  1.3009
   43MOL   H47724081   6.878   7.688   1.537 -0.1759  1.3141  1.3129
   43MOL   C47824082   7.527   7.162   0.774  0.1578 -0.1689  0.6795
   43MOL   C47924083   7.529   7.042   0.678  0.3211 -0.0828 -0.4730
   43MOL   C48024084   7.419   6.945   0.671 -0.9992  0.3549 -0.0732
   43MOL   C48124085   7.422   6.836   0.580 -0.4176  0.1023 -0.1551
   43MOL   C48224086   7.529   6.813   0.493  0.4556  0.5048  0.1667
   43MOL   C48324087   7.531   6.697   0.399  0.1904  0.3774 -0.1374
   43MOL   N48424088   7.656   6.662   0.361  0.1827 -0.0465 -0.8468
   43MOL   C48524089   7.701   6.541   0.296  0.2800  0.5682 -0.2625
   43MOL   C48624090   7.639   6.417   0.305  0.0950 -0.1622  0.3217
   43MOL   C48724091   7.683   6.304   0.241  0.0391 -0.4271  0.2093
   43MOL   C48824092   7.792   6.308   0.151  0.4721  0.4004  0.1214
   43MOL   N48924093   7.822   6.193   0.066  0.4077 -0.0440 -0.6816
   43MOL   C49024094   7.862   6.440   0.142 -0.0850  0.1536 -0.1968
   43MOL   C49124095   7.820   6.549   0.215  0.5925  0.7440  0.2027
   43MOL   O49224096   7.430   6.645   0.357  0.1164  0.2539 -0.4724
   43MOL   C49324097   7.633   6.909   0.503  0.2302 -0.1350 -0.7375
   43MOL   C49424098   7.641   7.017   0.596 -0.2623  0.1066  0.2310
   43MOL   O49524099   7.577   7.270   0.736 -0.1199  0.6662  0.3639
   43MOL   H49624100   7.330   6.972   0.725 -0.0992  0.7938  1.2000
   43MOL   H49724101   7.342   6.764   0.582 -1.4186  1.2235  2.6545
   43MOL   H49824102   7.737   6.707   0.402  0.8029 -1.4807 -0.4407
   43MOL   H49924103   7.552   6.411   0.368  0.4064 -1.1939  0.6648
   43MOL   H50024104   7.630   6.210   0.250  0.4710 -0.7709 -0.7043
   43MOL   H50124105   7.743   6.132   0.050  0.4224 -0.1363 -0.4108
   43MOL   H50224106   7.950   6.437   0.079  2.4012  0.1216  3.1125
   43MOL   H50324107   7.879   6.640   0.211  2.3945 -0.2615  2.6411
   43MOL   H50424108   7.718   6.896   0.438  1.2480 -2.4857  0.9788
   43MOL   H50524109   7.726   7.084   0.593 -0.1148 -0.1088 -0.5399
   43MOL   C50624110   7.943   6.153   0.026  0.0317 -0.3651 -0.0509
   43MOL   C50724111   7.939   6.024   8.098 -0.8878  0.5472  0.3852
   43MOL   C50824112   8.015   6.007   7.982  0.3393  0.1500 -0.3389
   43MOL   C50924113   8.015   5.882   7.909 -0.2552 -0.2356 -0.1775
   43MOL   C51024114   7.927   5.775   7.943 -0.0457 -0.3251 -0.2891
   43MOL   C51124115   7.908   5.652   7.851 -1.1933  0.2790 -0.4450
   43MOL   N51224116   7.784   5.584   7.853  0.0398 -0.0929  0.2692
   43MOL   C51324117   7.668   5.640   7.902  0.0168 -0.2561  0.1706
   43MOL   C51424118   7.625   5.770   7.860 -0.1181  0.1373  0.0272
   43MOL   C51524119   7.537   5.849   7.940  0.4072  0.4767  0.8985
   43MOL   C51624120   7.489   5.789   8.057 -1.0315  0.2009  0.5339
   43MOL   N51724121   7.417   5.874   8.136  0.0339  0.0557 -0.4278
   43MOL   C51824122   7.522   5.656   8.094 -0.4132 -0.5147 -0.3589
   43MOL   C51924123   7.612   5.582   8.014  0.3541 -0.5466 -0.0093
   43MOL   O52024124   7.990   5.624   7.767 -0.5295  1.2977  0.1153
   43MOL   C52124125   7.854   5.792   8.068  0.2635  0.2199  0.7204
   43MOL   C52224126   7.865   5.914   8.138 -0.2636  0.5473 -0.5068
   43MOL   O52324127   8.046   6.214   0.042 -0.0749  0.4858  0.6122
   43MOL   H52424128   8.066   6.089   7.934  1.8363 -0.6997 -0.2270
   43MOL   H52524129   8.059   5.876   7.811 -1.4858  0.7171 -0.7947
   43MOL   H52624130   7.778   5.494   7.806 -4.0667  0.2339  0.0506
   43MOL   H52724131   7.674   5.809   7.772  0.8311 -0.7439  0.1602
   43MOL   H52824132   7.521   5.951   7.907 -0.9677 -0.9693 -3.2300
   43MOL   H52924133   7.339   5.918   8.089  0.6863  2.6940  0.9152
   43MOL   H53024134   7.475   5.615   0.036  1.3104 -0.3678  0.6441
   43MOL   H53124135   7.648   5.487   8.051  0.8625 -0.0753  0.7165
   43MOL   H53224136   7.793   5.722   8.124 -0.5817 -0.4817 -1.0598
   43MOL   H53324137   7.809   5.911   0.085 -0.0813  0.9935 -0.3795
   43MOL   C53424138   7.434   5.905   0.117  0.0824  0.2132  0.4614
   43MOL   C53524139   7.347   6.013   0.170  0.4717 -0.3153 -0.3025
   43MOL   C53624140   7.294   6.003   0.302  0.5066 -0.1212 -0.1288
   43MOL   C53724141   7.227   6.109   0.361 -0.0105 -0.0957 -0.1591
   43MOL   C53824142   7.225   6.234   0.292 -0.2665 -0.6172 -0.6910
   43MOL   C53924143   7.158   6.363   0.346 -0.0006  0.2878 -0.5526
   43MOL   N54024144   7.172   6.377   0.480 -0.1025 -0.3694  0.2430
   43MOL   C54124145   7.106   6.478   0.555 -0.0089 -0.6424 -0.0072
   43MOL   C54224146   6.964   6.492   0.567 -1.0163 -0.1629  0.0366
   43MOL   C54324147   6.908   6.589   0.650  0.2585 -0.0356 -0.8925
   43MOL   C54424148   6.989   6.669   0.736 -0.1394 -0.4579 -0.0472
   43MOL   N54524149   6.926   6.748   0.831 -0.3577  0.0724  0.0660
   43MOL   C54624150   7.132   6.656   0.731 -0.0319  0.1350  0.8621
   43MOL   C54724151   7.189   6.570   0.634  0.0625  0.4514 -0.7542
   43MOL   O54824152   7.095   6.437   0.266  0.4359 -0.3375 -0.4954
   43MOL   C54924153   7.271   6.238   0.159  0.2639  0.4489 -0.2744
   43MOL   C55024154   7.335   6.136   0.102 -0.0253  0.1583  0.1744
   43MOL   O55124155   7.511   5.835   0.198 -0.0729  0.5872 -0.4713
   43MOL   H55224156   7.286   5.908   0.352 -1.1346 -0.5950 -1.2607
   43MOL   H55324157   7.174   6.095   0.454  0.7575 -1.1386  0.1352
   43MOL   H55424158   7.246   6.329   0.530  0.6211  1.7374  1.2323
   43MOL   H55524159   6.899   6.429   0.508 -1.8159 -0.7001  1.4795
   43MOL   H55624160   6.800   6.591   0.661  0.3626  0.5619  0.0638
   43MOL   H55724161   6.826   6.741   0.817 -0.3107 -2.9782  1.0011
   43MOL   H55824162   7.198   6.720   0.788  0.5579  0.2671  0.0458
   43MOL   H55924163   7.296   6.564   0.633  0.0604  0.4500 -1.4502
   43MOL   H56024164   7.267   6.330   0.103 -1.0823  0.8347  0.4473
   43MOL   H56124165   7.365   6.147   8.144  0.6865 -0.3513  0.3162
   43MOL   H56224166   6.972   6.838   0.839  0.6956 -0.4132 -0.4224
   44MOL     C124167   0.106   7.207   4.812  0.3365 -0.3259 -0.3613
   44MOL     C224168   0.229   7.298   4.794  0.9755 -0.1706 -0.4366
   44MOL     C324169   0.354   7.252   4.787 -0.4534  0.3707 -0.3274
   44MOL     C424170   0.459   7.345   4.767  0.5885  0.0307  0.3318
   44MOL     C524171   0.432   7.484   4.742  0.4134 -0.0240 -0.0400
   44MOL     C624172   0.543   7.573   4.716 -0.2211  0.2754  0.5393
   44MOL     N724173   0.562   7.671   4.805 -0.2925 -0.1209 -0.5144
   44MOL     C824174   0.645   7.784   4.799 -0.8219  0.1171 -0.1590
   44MOL     C924175   0.760   7.805   4.714  0.1215 -0.5661 -0.4167
   44MOL    C1024176   0.850   7.910   4.740 -0.1193 -0.1872 -0.2369
   44MOL    C1124177   0.818   8.012   4.829  0.4988 -0.0202 -0.3834
   44MOL    N1224178   0.901   8.127   4.864 -0.0045  0.9665  0.0587
   44MOL    C1324179   0.712   7.988   4.922  0.3847 -0.0290  0.0418
   44MOL    C1424180   0.628   7.875   4.899 -0.2567 -0.4415 -0.3943
   44MOL    O1524181   0.621   7.552   4.622  0.1929 -0.3488 -0.1367
   44MOL    C1624182   0.300   7.528   4.738  0.1595 -0.8192 -0.4575
   44MOL    C1724183   0.204   7.435   4.768 -0.2097  0.5641 -0.2692
   44MOL    O1824184   8.136   7.242   4.787  0.0844 -0.2399  0.4884
   44MOL    H1924185   0.377   7.147   4.798  2.7155  1.2639  2.1514
   44MOL    H2024186   0.561   7.314   4.752  1.0343  1.0391  1.1582
   44MOL    H2124187   0.482   7.675   4.866  0.5577 -1.4533  0.7078
   44MOL    H2224188   0.784   7.723   4.649 -1.2194 -1.2132 -0.1048
   44MOL    H2324189   0.944   7.900   4.689  0.0734 -0.0154  0.0851
   44MOL    H2424190   0.910   0.010   4.960 -2.1488  1.6557  0.0695
   44MOL    H2524191   0.699   8.055   5.005 -0.6717 -0.8940  0.6005
   44MOL    H2624192   0.551   7.855   4.972 -1.5219  0.9207 -1.3231
   44MOL    H2724193   0.289   7.631   4.709  0.1782 -0.3010  1.3401
   44MOL    H2824194   0.102   7.471   4.767 -0.4314 -0.0547 -0.9175
   44MOL    H2924195   0.132   7.109   4.852  0.6220  0.6003  1.7445
   44MOL    C3024196   0.991   0.032   4.786  0.0350 -0.4834  0.4072
   44MOL    C3124197   1.073   0.127   4.852 -0.3099 -0.6610 -0.0055
   44MOL    C3224198   1.117   0.100   4.981 -0.1404  0.5423  0.0962
   44MOL    C3324199   1.204   0.192   5.045  0.0273  0.2768  0.1062
   44MOL    C3424200   1.252   0.305   4.974  0.1107  0.3666 -0.8604
   44MOL    C3524201   1.347   0.404   5.037  0.7818 -0.0719 -0.5029
   44MOL    N3624202   1.308   0.532   5.031  0.2375 -0.5694 -0.2563
   44MOL    C3724203   1.387   0.649   5.052 -0.3026 -0.0595 -0.4707
   44MOL    C3824204   1.308   0.769   5.051  0.2100  0.4975 -0.4195
   44MOL    C3924205   1.374   0.890   5.070  0.5237  0.4147 -0.6095
   44MOL    C4024206   1.514   0.900   5.086  0.4718  0.4279  0.5278
   44MOL    N4124207   1.571   1.032   5.100  0.0481  0.6374  0.5577
   44MOL    C4224208   1.590   0.780   5.063  0.1663  0.8840 -0.2122
   44MOL    C4324209   1.531   0.653   5.053 -0.5364 -0.1067 -0.3099
   44MOL    O4424210   1.452   0.366   5.096  0.6239 -0.2031  0.7248
   44MOL    C4524211   1.200   0.325   4.843  0.2631  0.0319 -0.6644
   44MOL    C4624212   1.111   0.240   4.779  0.0101  0.0847  0.4492
   44MOL    O4724213   1.009   0.012   4.664 -0.5895 -0.3536 -0.0151
   44MOL    H4824214   1.088   0.005   5.023  0.1291 -0.5244 -2.0670
   44MOL    H4924215   1.254   0.170   5.139 -0.0342  0.1833  0.1174
   44MOL    H5024216   1.211   0.543   5.005  0.2648 -0.5042 -0.3308
   44MOL    H5124217   1.200   0.771   5.055  0.1726 -1.8821  0.4996
   44MOL    H5224218   1.316   0.980   5.071  1.2158  0.8676  0.7385
   44MOL    H5324219   1.514   1.097   5.153 -0.3835  1.8993 -1.4310
   44MOL    H5424220   1.697   0.792   5.067  0.2820  0.6667 -2.1119
   44MOL    H5524221   1.594   0.568   5.034 -0.4637 -0.2719  0.6362
   44MOL    H5624222   1.232   0.416   4.795 -0.7515  1.5182  1.3707
   44MOL    H5724223   1.073   0.253   4.679 -0.9392 -0.2605  0.7605
   44MOL    C5824224   1.689   1.076   5.061 -0.1614  0.3038 -0.3020
   44MOL    C5924225   1.717   1.225   5.077  0.4025  0.1888  0.7419
   44MOL    C6024226   1.616   1.321   5.096 -0.9118  0.3485 -0.2458
   44MOL    C6124227   1.649   1.457   5.118 -0.3943  0.3245 -0.1794
   44MOL    C6224228   1.782   1.494   5.110  0.0711 -0.6979  0.5872
   44MOL    C6324229   1.832   1.639   5.130 -0.2253  0.2883 -0.0952
   44MOL    N6424230   1.734   1.728   5.153 -0.2689  0.1034 -0.5027
   44MOL    C6524231   1.741   1.871   5.152  0.2651 -0.8500  0.0888
   44MOL    C6624232   1.855   1.953   5.170 -0.3821 -0.0350  0.6734
   44MOL    C6724233   1.840   2.091   5.181 -0.2860  0.3221  0.6129
   44MOL    C6824234   1.718   2.155   5.161 -0.1813  0.8586  0.5988
   44MOL    N6924235   1.715   2.296   5.171 -0.5359  0.8236  0.1050
   44MOL    C7024236   1.609   2.082   5.121  0.8004  0.2338 -0.0733
   44MOL    C7124237   1.620   1.942   5.115  0.3824 -0.2174  0.2496
   44MOL    O7224238   1.953   1.676   5.122  0.2767 -0.0705  0.0633
   44MOL    C7324239   1.880   1.401   5.069 -0.0775 -0.4366  0.4202
   44MOL    C7424240   1.852   1.266   5.066  0.0204  0.0921 -0.0308
   44MOL    O7524241   1.769   0.995   5.011  0.6590 -0.8904  0.4014
   44MOL    H7624242   1.511   1.298   5.108 -0.5347 -0.8455  0.8656
   44MOL    H7724243   1.571   1.530   5.136 -1.8549 -1.0024 -0.9849
   44MOL    H7824244   1.648   1.682   5.177 -0.8037  0.8497 -0.9814
   44MOL    H7924245   1.947   1.898   5.176 -0.6196 -0.6102 -0.7256
   44MOL    H8024246   1.928   2.148   5.207  1.3923  0.3073 -4.4358
   44MOL    H8124247   1.664   2.343   5.097 -0.3953 -0.0354 -0.5395
   44MOL    H8224248   1.512   2.123   5.097  0.3841 -0.3954  0.5083
   44MOL    H8324249   1.530   1.890   5.089  0.9009 -1.8064  1.5610
   44MOL    H8424250   1.980   1.437   5.050  0.3794 -2.3623 -0.9863
   44MOL    H8524251   1.921   1.187   5.041  1.3015  0.5085  2.0142
   44MOL    C8624252   1.787   2.370   5.258 -0.1441 -0.2954 -0.1636
   44MOL    C8724253   1.766   2.521   5.242 -0.7925  0.1470  0.0063
   44MOL    C8824254   1.656   2.574   5.163  0.5074  0.5842 -0.4451
   44MOL    C8924255   1.642   2.715   5.158 -0.1197  0.2064 -0.2934
   44MOL    C9024256   1.726   2.803   5.228  0.5795 -0.0522  0.1877
   44MOL    C9124257   1.713   2.948   5.209  0.6488  0.2173 -0.1249
   44MOL    N9224258   1.824   3.023   5.219  0.3637  0.1730 -0.1033
   44MOL    C9324259   1.857   3.148   5.154 -0.3225 -0.5080 -0.2170
   44MOL    C9424260   1.767   3.210   5.066 -0.6679  0.1271 -0.6545
   44MOL    C9524261   1.796   3.329   5.000 -0.4960 -1.1742  0.3132
   44MOL    C9624262   1.922   3.391   5.017  0.0580  0.0753  0.0318
   44MOL    N9724263   1.948   3.505   4.931 -0.0389  0.1187 -0.1669
   44MOL    C9824264   2.012   3.338   5.113 -0.4030  0.2550  0.5432
   44MOL    C9924265   1.986   3.211   5.173 -0.1650  0.5502 -0.1386
   44MOL   O10024266   1.597   2.989   5.180 -0.0523 -0.0013  0.0033
   44MOL   C10124267   1.837   2.746   5.295 -0.3995 -0.2415 -0.5939
   44MOL   C10224268   1.860   2.604   5.302 -0.2446 -0.7912  0.3240
   44MOL   O10324269   1.849   2.325   5.353  0.0841 -0.1403  0.1561
   44MOL   H10424270   1.583   2.510   5.116  0.2964  1.2378 -1.0157
   44MOL   H10524271   1.552   2.756   5.116  0.0959  2.3391  1.2079
   44MOL   H10624272   1.903   2.966   5.249  1.0518  1.0083 -0.3019
   44MOL   H10724273   1.667   3.173   5.056 -0.6239  0.3815 -2.1440
   44MOL   H10824274   1.731   3.384   4.933  1.7389  1.5710  0.3010
   44MOL   H10924275   1.885   3.516   4.853 -2.3543  0.5049  1.7117
   44MOL   H11024276   2.106   3.388   5.131 -0.5034  0.5948  0.1423
   44MOL   H11124277   2.064   3.162   5.230 -1.6231  0.9250  2.2130
   44MOL   H11224278   1.895   2.817   5.352 -1.5206  0.7681 -0.6770
   44MOL   H11324279   1.949   2.567   5.350  0.0099 -0.9365 -0.2574
   44MOL   C11424280   2.039   3.602   4.941  0.2420 -0.0968  0.2110
   44MOL   C11524281   2.036   3.696   4.827  0.4769 -0.0297  0.0265
   44MOL   C11624282   2.033   3.650   4.688 -0.2102 -0.1683  0.3568
   44MOL   C11724283   2.028   3.738   4.577 -0.3207  0.7265 -0.0554
   44MOL   C11824284   2.044   3.875   4.598 -1.1438 -0.9099 -0.0356
   44MOL   C11924285   2.023   3.968   4.485  0.1436 -0.3790 -0.3767
   44MOL   N12024286   2.136   4.024   4.443  0.3943 -0.2126 -0.1110
   44MOL   C12124287   2.163   4.100   4.326 -0.2447 -0.2511  0.2104
   44MOL   C12224288   2.293   4.132   4.290  1.0799 -1.1016 -0.1712
   44MOL   C12324289   2.320   4.198   4.166  0.0608 -0.6506  0.3530
   44MOL   C12424290   2.211   4.242   4.084  0.8001 -0.9445  0.1862
   44MOL   N12524291   2.228   4.300   3.967 -0.4526  0.5080  0.2078
   44MOL   C12624292   2.080   4.212   4.123 -0.3198  0.1121  0.3688
   44MOL   C12724293   2.054   4.138   4.245  0.1302 -0.5460 -0.1941
   44MOL   O12824294   1.904   3.991   4.452 -0.4156  0.2221 -1.1443
   44MOL   C12924295   2.070   3.926   4.729 -0.1478 -0.1877 -0.2407
   44MOL   C13024296   2.055   3.839   4.844  0.5484 -0.6006  0.3285
   44MOL   O13124297   2.115   3.614   5.036 -0.0169  0.1815 -0.2634
   44MOL   H13224298   2.028   3.544   4.666 -2.8227 -0.0868  0.4559
   44MOL   H13324299   2.002   3.705   4.478  0.2597  1.3935 -0.4284
   44MOL   H13424300   2.219   3.984   4.484  0.6441 -0.1013 -0.5053
   44MOL   H13524301   2.373   4.106   4.357 -1.3243 -1.5803  2.6399
   44MOL   H13624302   2.424   4.223   4.148  0.6193 -4.7317 -2.8939
   44MOL   H13724303   2.153   4.350   3.923 -1.9284 -1.0954  0.8617
   44MOL   H13824304   1.999   4.236   4.056 -1.1613 -0.9047  1.0080
   44MOL   H13924305   1.951   4.113   4.264 -0.1797 -0.5875 -1.8398
   44MOL   H14024306   2.089   4.031   4.749  1.1324 -0.3765 -0.4111
   44MOL   H14124307   2.065   3.875   4.945  2.3817 -1.0095  0.3077
   44MOL   C14224308   2.335   4.323   3.894 -0.5440  0.5031 -0.7903
   44MOL   C14324309   2.307   4.400   3.771  0.0021 -0.1882 -0.3375
   44MOL   C14424310   2.420   4.443   3.691 -0.8496 -0.1347  0.2167
   44MOL   C14524311   2.399   4.530   3.581  0.5412  0.4274 -0.1064
   44MOL   C14624312   2.266   4.565   3.546  0.2235  0.4090 -0.2113
   44MOL   C14724313   2.236   4.649   3.428 -0.1410 -0.1103  0.7094
   44MOL   N14824314   2.299   4.601   3.318 -0.3545  0.5625 -0.0900
   44MOL   C14924315   2.273   4.640   3.182 -0.2137  0.1379 -0.1483
   44MOL   C15024316   2.377   4.627   3.087  1.3407 -0.3364 -0.1249
   44MOL   C15124317   2.354   4.642   2.949 -0.2836  0.2251 -0.3129
   44MOL   C15224318   2.228   4.668   2.899 -0.7592 -0.1339 -0.2672
   44MOL   N15324319   2.204   4.677   2.755 -0.8163 -0.9274  0.8753
   44MOL   C15424320   2.123   4.678   2.995  0.6069  0.0912 -0.3498
   44MOL   C15524321   2.139   4.661   3.134 -0.1435  0.6860  0.1206
   44MOL   O15624322   2.188   4.757   3.438 -0.1806 -0.0500  0.0174
   44MOL   C15724323   2.154   4.522   3.615  0.1434  0.0612 -0.5914
   44MOL   C15824324   2.176   4.437   3.728  0.2669 -0.1883  0.2505
   44MOL   O15924325   2.452   4.283   3.911  0.3647 -0.3589  0.6239
   44MOL   H16024326   2.522   4.424   3.720 -0.5117  0.7609 -0.3459
   44MOL   H16124327   2.481   4.568   3.521  0.6190  1.2117  0.4843
   44MOL   H16224328   2.359   4.522   3.336 -1.5473  0.0654  2.0392
   44MOL   H16324329   2.472   4.585   3.118  0.4336 -0.8361  2.0729
   44MOL   H16424330   2.441   4.639   2.885  0.8909 -2.0375  1.3238
   44MOL   H16524331   2.116   4.723   2.736  0.4586  0.4707 -1.9997
   44MOL   H16624332   2.023   4.703   2.961 -0.1234  0.4752  2.0262
   44MOL   H16724333   2.058   4.661   3.206 -0.5204 -2.6745 -0.2095
   44MOL   H16824334   2.055   4.557   3.588  0.1844 -0.8258 -1.9203
   44MOL   H16924335   2.089   4.399   3.779  0.0169  0.9444  0.6899
   44MOL   C17024336   2.279   4.611   2.658  0.1597 -0.2388  0.4669
   44MOL   C17124337   2.251   4.646   2.515 -0.0816  0.0491  0.2059
   44MOL   C17224338   2.311   4.573   2.413 -0.2508  0.5729  0.4841
   44MOL   C17324339   2.290   4.605   2.276 -0.3782 -0.0819 -0.4775
   44MOL   C17424340   2.212   4.717   2.235 -0.0233 -0.4315  0.0440
   44MOL   C17524341   2.179   4.758   2.094  0.5480  0.1011  0.3909
   44MOL   N17624342   2.241   4.685   2.002 -0.0199 -0.1203  0.0837
   44MOL   C17724343   2.217   4.675   1.860  0.1738  0.7210 -0.2896
   44MOL   C17824344   2.090   4.647   1.810  0.2434  0.9092 -0.1501
   44MOL   C17924345   2.067   4.592   1.677  0.3443 -0.5361  0.6643
   44MOL   C18024346   2.175   4.568   1.595 -0.6705  0.3776  0.7609
   44MOL   N18124347   2.156   4.503   1.471 -0.1807  0.0912  0.3483
   44MOL   C18224348   2.301   4.614   1.636 -1.0662  0.4666  0.2235
   44MOL   C18324349   2.321   4.663   1.769  0.3981 -0.3061  0.2534
   44MOL   O18424350   2.103   4.855   2.073  0.2963 -0.1184 -0.0527
   44MOL   C18524351   2.148   4.785   2.340 -0.5303  0.5946  0.1814
   44MOL   C18624352   2.179   4.756   2.475  0.6406  0.6825 -0.0936
   44MOL   O18724353   2.373   4.534   2.682  0.3122  0.1909 -0.4755
   44MOL   H18824354   2.357   4.479   2.440  1.4923  1.2301 -0.1375
   44MOL   H18924355   2.337   4.553   2.195 -0.0981 -0.3567 -0.1387
   44MOL   H19024356   2.313   4.626   2.041 -0.1548 -0.4461 -0.1582
   44MOL   H19124357   2.004   4.640   1.876 -0.0314  1.4131 -0.4489
   44MOL   H19224358   1.969   4.564   1.640  0.3386  1.4303 -0.9154
   44MOL   H19324359   2.091   4.552   1.411  0.6101 -0.7384 -1.2187
   44MOL   H19424360   2.390   4.591   1.578 -0.8710 -2.3121  1.5446
   44MOL   H19524361   2.420   4.690   1.805  0.4620  1.3498 -1.0834
   44MOL   H19624362   2.083   4.868   2.316  1.8262  1.5583 -3.2411
   44MOL   H19724363   2.125   4.811   2.551  1.7230  1.8238 -0.1501
   44MOL   C19824364   2.232   4.411   1.403 -0.0374 -0.3875  0.5183
   44MOL   C19924365   2.326   4.311   1.469 -0.3227  0.1415  0.4554
   44MOL   C20024366   2.421   4.235   1.396  0.5678  0.3050  0.3167
   44MOL   C20124367   2.505   4.145   1.459 -0.6287 -0.5036 -0.6770
   44MOL   C20224368   2.495   4.121   1.596  0.1563 -0.1225  0.6927
   44MOL   C20324369   2.590   4.022   1.655  0.5014  0.1276  0.3683
   44MOL   N20424370   2.540   3.956   1.765  0.2884 -0.3247 -1.0345
   44MOL   C20524371   2.628   3.899   1.866  0.0456 -0.6584 -0.3931
   44MOL   C20624372   2.568   3.823   1.970  0.3337 -0.7374  0.5426
   44MOL   C20724373   2.642   3.773   2.079 -0.2682  0.3895 -0.4105
   44MOL   C20824374   2.779   3.799   2.095  0.0533  0.7567  0.9498
   44MOL   N20924375   2.837   3.754   2.218  0.2989 -0.2807  0.1569
   44MOL   C21024376   2.843   3.875   1.994 -0.0612  0.5270  0.2962
   44MOL   C21124377   2.771   3.922   1.879  0.0084  0.7717  0.0387
   44MOL   O21224378   2.702   4.013   1.604 -0.0769  0.1532 -0.0551
   44MOL   C21324379   2.402   4.193   1.677  0.1123  0.0127  0.8753
   44MOL   C21424380   2.319   4.286   1.606  0.2402  0.3203 -0.0916
   44MOL   O21524381   2.235   4.427   1.284 -0.0508  0.2134 -0.4743
   44MOL   H21624382   2.413   4.244   1.289  0.0257 -2.4970  0.0798
   44MOL   H21724383   2.576   4.094   1.395  0.2076  1.6897 -1.5493
   44MOL   H21824384   2.446   3.973   1.796  1.2852  0.3370  1.7170
   44MOL   H21924385   2.461   3.808   1.968  0.2731 -0.2520 -0.2695
   44MOL   H22024386   2.589   3.715   2.153  0.7805 -1.4999 -1.0725
   44MOL   H22124387   2.773   3.692   2.265 -2.7101  1.3492 -1.6873
   44MOL   H22224388   2.947   3.901   2.009  0.3956 -0.1799 -1.4732
   44MOL   H22324389   2.822   3.989   1.811 -0.4112  1.7408  0.6585
   44MOL   H22424390   2.400   4.181   1.784  1.4550  1.0896  1.0267
   44MOL   H22524391   2.251   4.333   1.674 -3.8167 -1.8631 -2.4041
   44MOL   C22624392   2.950   3.796   2.283 -0.4175 -0.1225 -0.2712
   44MOL   C22724393   2.969   3.741   2.426  0.1539  0.5282  0.1319
   44MOL   C22824394   3.069   3.798   2.507  0.1775 -1.2819  0.1546
   44MOL   C22924395   3.089   3.757   2.641  0.6626 -0.2771 -0.2283
   44MOL   C23024396   3.013   3.652   2.700  0.6456  0.2897 -0.0427
   44MOL   C23124397   3.034   3.611   2.848 -0.1554 -0.1517  0.4223
   44MOL   N23224398   2.957   3.501   2.874 -0.4605 -0.2630 -0.3360
   44MOL   C23324399   2.946   3.427   2.998  0.4511  0.0360  0.1397
   44MOL   C23424400   2.853   3.317   2.990 -0.2541  0.3581  0.0639
   44MOL   C23524401   2.840   3.228   3.097 -0.3356  0.6711 -0.0637
   44MOL   C23624402   2.903   3.251   3.223 -0.1406 -0.5204  0.1077
   44MOL   N23724403   2.875   3.176   3.346 -0.5524  0.5974  0.6048
   44MOL   C23824404   2.987   3.358   3.229  0.1779  0.4555  0.4844
   44MOL   C23924405   3.019   3.441   3.119  0.1429 -0.2096  0.3349
   44MOL   O24024406   3.101   3.677   2.929  0.4977 -0.7422 -0.5586
   44MOL   C24124407   2.924   3.588   2.606 -0.0692 -0.5962 -0.5791
   44MOL   C24224408   2.902   3.634   2.480  0.6352 -0.2199 -0.3680
   44MOL   O24324409   3.021   3.890   2.242  0.1396  0.4350 -0.6587
   44MOL   H24424410   3.131   3.877   2.468 -1.3007 -0.7389 -1.1331
   44MOL   H24524411   3.167   3.803   2.699  1.3728 -2.9478  1.0244
   44MOL   H24624412   2.908   3.462   2.796  0.7190 -0.4071 -1.0205
   44MOL   H24724413   2.794   3.300   2.901 -0.6084 -2.0913  0.7325
   44MOL   H24824414   2.775   3.144   3.075 -0.5973  0.7375  0.4358
   44MOL   H24924415   2.887   3.213   3.439  1.8772 -2.4784  1.6017
   44MOL   H25024416   3.031   3.372   3.327 -3.6512  0.2820  2.3285
   44MOL   H25124417   3.090   3.522   3.121  0.2479 -0.3131  0.9000
   44MOL   H25224418   2.872   3.497   2.632 -2.1550 -0.1533 -2.9502
   44MOL   H25324419   2.822   3.590   2.423  0.7197  2.0725 -2.3232
   44MOL   C25424420   2.807   3.057   3.359 -0.2126 -0.4459  0.7274
   44MOL   C25524421   2.788   3.008   3.505 -0.3215 -0.9596  0.3700
   44MOL   C25624422   2.844   3.083   3.619  0.7987  0.3170  0.9716
   44MOL   C25724423   2.822   3.041   3.747  0.2698  0.4374 -0.2818
   44MOL   C25824424   2.769   2.914   3.768 -0.0793 -0.1209 -0.1488
   44MOL   C25924425   2.754   2.867   3.907  0.0843  0.5141 -0.0365
   44MOL   N26024426   2.748   2.735   3.929 -0.6786 -0.4850 -0.0523
   44MOL   C26124427   2.755   2.668   4.053  1.2592 -0.3641  0.0867
   44MOL   C26224428   2.811   2.733   4.168  0.1760  0.4132  0.2758
   44MOL   C26324429   2.830   2.658   4.283  0.0849 -0.4569 -0.2091
   44MOL   C26424430   2.797   2.523   4.291  0.2750 -0.0902 -0.4879
   44MOL   N26524431   2.823   2.445   4.406  0.6816  0.4142 -0.6031
   44MOL   C26624432   2.731   2.467   4.181 -0.0883  0.3112 -0.0014
   44MOL   C26724433   2.716   2.533   4.062 -0.0049 -0.2213  0.8229
   44MOL   O26824434   2.749   2.949   4.001  0.0496 -0.4328  0.1366
   44MOL   C26924435   2.707   2.847   3.659 -0.1458 -0.4183  0.2686
   44MOL   C27024436   2.729   2.882   3.524 -0.2891  0.6858  0.3805
   44MOL   O27124437   2.758   2.999   3.263  0.2241 -0.2112 -0.0951
   44MOL   H27224438   2.902   3.173   3.605 -0.3420  1.0130  0.6943
   44MOL   H27324439   2.861   3.103   3.826 -0.1987  0.2003  0.1435
   44MOL   H27424440   2.734   2.674   3.849 -0.5596  0.2677 -0.6496
   44MOL   H27524441   2.846   2.835   4.179  0.9190  0.0314  1.5352
   44MOL   H27624442   2.879   2.718   4.358 -1.2205 -1.6871  1.6496
   44MOL   H27724443   2.806   2.346   4.394 -4.3130  1.1173 -0.5939
   44MOL   H27824444   2.684   2.370   4.195 -1.4303  0.7580 -1.1880
   44MOL   H27924445   2.686   2.479   3.974  1.7145  2.4023 -1.4274
   44MOL   H28024446   2.652   2.759   3.686 -1.5214 -0.2328 -1.8431
   44MOL   H28124447   2.687   2.830   3.439  0.5166  0.7159 -0.0383
   44MOL   C28224448   2.844   2.486   4.531  0.7565 -0.0428 -0.7484
   44MOL   C28324449   2.866   2.376   4.640 -0.1921  0.5237  0.4866
   44MOL   C28424450   2.938   2.260   4.604 -0.1527  0.4869  0.4553
   44MOL   C28524451   2.947   2.163   4.698  0.0246 -0.2413  0.0245
   44MOL   C28624452   2.911   2.184   4.831  0.2246 -0.3390 -0.3291
   44MOL   C28724453   2.930   2.070   4.925 -0.5442 -0.1522 -0.5106
   44MOL   N28824454   2.982   2.098   5.051  0.2347  0.7428  0.0399
   44MOL   C28924455   2.976   2.018   5.159  0.2508 -0.1777 -0.4737
   44MOL   C29024456   2.855   1.998   5.221 -0.5493 -0.0971  1.6019
   44MOL   C29124457   2.850   1.925   5.340  0.1251  0.4049 -0.5532
   44MOL   C29224458   2.969   1.881   5.405  0.6735 -0.0782 -0.0637
   44MOL   N29324459   2.955   1.809   5.524  0.0575 -0.4719  0.0627
   44MOL   C29424460   3.093   1.902   5.334  0.2645  0.2150 -0.2932
   44MOL   C29524461   3.097   1.969   5.213  0.7025  0.5303 -0.4903
   44MOL   O29624462   2.909   1.957   4.887 -0.0282  0.6510 -0.2666
   44MOL   C29724463   2.853   2.303   4.870  0.4960 -0.4440 -1.0589
   44MOL   C29824464   2.820   2.399   4.770  0.9695  0.3642  0.1797
   44MOL   O29924465   2.854   2.609   4.564  0.4814  0.2189 -0.7907
   44MOL   H30024466   2.958   2.237   4.500 -0.2478  0.5184  0.4308
   44MOL   H30124467   2.989   2.065   4.682  0.4440 -0.3393  1.5778
   44MOL   H30224468   3.029   2.187   5.057 -1.9758  2.0764 -1.4634
   44MOL   H30324469   2.765   2.042   5.180 -0.0614 -0.0310  0.5848
   44MOL   H30424470   2.756   1.925   5.392 -1.3230  1.3273 -3.0955
   44MOL   H30524471   2.869   1.757   5.535  1.0016 -2.5362 -1.7203
   44MOL   H30624472   3.183   1.862   5.378  0.1838 -1.8307 -1.8749
   44MOL   H30724473   3.194   1.993   5.173  0.6912  1.0901 -0.1892
   44MOL   H30824474   2.832   2.322   4.975  1.0103  0.7243 -1.1573
   44MOL   H30924475   2.766   2.488   4.799 -0.8408  0.0544 -2.0664
   44MOL   C31024476   3.051   1.785   5.617  0.4432 -0.1749 -0.1961
   44MOL   C31124477   3.005   1.713   5.737  0.0921  0.1895  0.4535
   44MOL   C31224478   3.092   1.631   5.813  0.1494  0.2714  0.6418
   44MOL   C31324479   3.051   1.563   5.929 -0.0605 -0.3210  0.3066
   44MOL   C31424480   2.931   1.600   5.988 -0.1616  0.3737 -1.2298
   44MOL   C31524481   2.883   1.549   6.121  0.8798  0.7867 -0.2237
   44MOL   N31624482   2.854   1.420   6.136 -0.0078  0.2864  0.7414
   44MOL   C31724483   2.856   1.320   6.031  0.3013  0.1311  0.1936
   44MOL   C31824484   2.779   1.338   5.909  0.3328 -0.6605  0.5770
   44MOL   C31924485   2.789   1.248   5.804  0.6072  0.3226 -0.4464
   44MOL   C32024486   2.871   1.133   5.824 -0.3821  0.3199  0.4896
   44MOL   N32124487   2.898   1.045   5.714 -0.1448 -0.0882  0.2001
   44MOL   C32224488   2.942   1.107   5.943  0.3036 -0.0218 -0.0738
   44MOL   C32324489   2.935   1.205   6.045  0.2747 -0.0635 -0.7866
   44MOL   O32424490   2.869   1.632   6.214  0.0708  0.2322  0.1972
   44MOL   C32524491   2.846   1.693   5.925 -0.1943 -0.1607  0.1969
   44MOL   C32624492   2.883   1.750   5.796  0.1855 -1.0167 -0.5495
   44MOL   O32724493   3.169   1.813   5.600 -0.0198 -0.2844 -0.6087
   44MOL   H32824494   3.191   1.605   5.781 -0.5299 -0.0946 -1.1882
   44MOL   H32924495   3.127   1.499   5.970 -0.4799 -0.5918  0.6745
   44MOL   H33024496   2.859   1.399   6.234  0.5157  0.8029  0.8269
   44MOL   H33124497   2.719   1.425   5.888  0.5706 -0.4789  0.6539
   44MOL   H33224498   2.741   1.266   5.709 -0.5076  0.2114  0.0899
   44MOL   H33324499   2.996   1.037   5.688 -0.4105  2.0434 -1.5664
   44MOL   H33424500   3.017   1.029   5.948  1.3733  0.7648 -2.7793
   44MOL   H33524501   2.994   1.191   6.134  1.1423 -0.6862 -1.4526
   44MOL   H33624502   2.756   1.717   5.979  0.0757 -0.2729  0.7052
   44MOL   H33724503   2.822   1.822   5.743  1.4846  0.6570  0.1822
   44MOL   C33824504   2.809   1.031   5.612 -0.0889 -0.2665 -0.1658
   44MOL   C33924505   2.875   1.023   5.480  0.1066  0.3379  0.5238
   44MOL   C34024506   2.818   0.966   5.360  0.3498 -0.0192 -0.3833
   44MOL   C34124507   2.887   0.955   5.242 -0.1248 -0.0090 -0.5285
   44MOL   C34224508   3.017   1.005   5.231  0.1682  0.2880  0.3243
   44MOL   C34324509   3.105   0.976   5.117 -0.5586 -0.5922 -1.3922
   44MOL   N34424510   3.055   0.970   4.992 -0.4240 -0.2786  0.4869
   44MOL   C34524511   3.134   0.961   4.870  0.2491  0.3579 -0.3784
   44MOL   C34624512   3.091   0.865   4.774 -0.1607  0.0377  0.2269
   44MOL   C34724513   3.168   0.837   4.659  0.3037 -0.6148 -0.1513
   44MOL   C34824514   3.291   0.905   4.640  0.0209 -1.2267 -1.0934
   44MOL   N34924515   3.365   0.865   4.525  0.0955 -0.5659 -0.2754
   44MOL   C35024516   3.327   1.003   4.735 -0.7094 -0.6404 -0.1858
   44MOL   C35124517   3.256   1.029   4.853  0.2729 -0.4226  0.6506
   44MOL   O35224518   3.224   0.967   5.135  0.3066  0.2234 -0.0354
   44MOL   C35324519   3.067   1.073   5.339  0.8141 -0.3713  0.6289
   44MOL   C35424520   2.999   1.083   5.462 -0.3063  0.5105 -0.0911
   44MOL   O35524521   2.687   1.026   5.623  0.4346  0.0929 -0.4463
   44MOL   H35624522   2.721   0.918   5.365  0.4137  0.0276  1.7814
   44MOL   H35724523   2.853   0.897   5.157  2.0320  0.5425 -1.8140
   44MOL   H35824524   2.955   0.965   4.978 -0.0444  1.7035 -3.6770
   44MOL   H35924525   3.003   0.803   4.781  0.5033 -0.8453  0.9855
   44MOL   H36024526   3.137   0.759   4.591  4.5842 -1.8167 -0.8657
   44MOL   H36124527   3.341   0.776   4.483  0.9638  0.2137 -2.5292
   44MOL   H36224528   3.427   1.043   4.730 -0.8393 -0.0083  1.8613
   44MOL   H36324529   3.283   1.099   4.931  0.6503 -0.4135  0.5131
   44MOL   H36424530   3.161   1.126   5.341 -0.0453  1.2809 -1.0970
   44MOL   H36524531   3.048   1.133   5.544 -1.1225  1.0227  0.0839
   44MOL   C36624532   3.468   0.926   4.465  0.3059  0.0937  0.2389
   44MOL   C36724533   3.486   0.881   4.322 -0.1627 -0.4566  0.7572
   44MOL   C36824534   3.568   0.953   4.232 -0.1033  0.2429 -0.8420
   44MOL   C36924535   3.570   0.914   4.098  0.1881 -0.4042  0.6068
   44MOL   C37024536   3.506   0.797   4.050 -0.6191 -0.2386  0.4384
   44MOL   C37124537   3.506   0.770   3.901  0.1821 -0.3499  0.1496
   44MOL   N37224538   3.423   0.848   3.830  0.5715  0.1658  0.2122
   44MOL   C37324539   3.337   0.944   3.893 -0.9302  0.1337  0.5949
   44MOL   C37424540   3.219   0.895   3.943  1.1950 -0.4971 -0.1857
   44MOL   C37524541   3.140   0.973   4.027 -0.2489 -0.3388 -0.4629
   44MOL   C37624542   3.171   1.110   4.046  0.0544 -0.0548 -0.6193
   44MOL   N37724543   3.086   1.187   4.129 -0.0918 -0.6375 -0.7931
   44MOL   C37824544   3.280   1.161   3.978 -0.1322 -0.1405 -0.1595
   44MOL   C37924545   3.369   1.083   3.901  0.0617  1.3130 -0.8440
   44MOL   O38024546   3.558   0.673   3.844 -0.0902  0.2212 -0.2050
   44MOL   C38124547   3.445   0.712   4.150  0.2841 -1.0500  0.3457
   44MOL   C38224548   3.432   0.755   4.281 -0.2834 -0.3281 -0.2187
   44MOL   O38324549   3.542   1.007   4.518 -0.1367  0.0703  0.0230
   44MOL   H38424550   3.625   1.042   4.256 -0.9771  0.5488  0.1372
   44MOL   H38524551   3.621   0.971   4.022  0.6823  0.0050  1.2440
   44MOL   H38624552   3.421   0.828   3.731  2.0723 -2.7086  0.6975
   44MOL   H38724553   3.201   0.788   3.946 -1.1979 -0.1769 -2.1643
   44MOL   H38824554   3.063   0.932   4.090 -1.3536  1.4790 -0.6018
   44MOL   H38924555   2.987   1.168   4.117 -0.6762  0.1493  2.3253
   44MOL   H39024556   3.301   1.265   3.994  0.9351 -0.3467 -0.1826
   44MOL   H39124557   3.455   1.138   3.868  0.6545  0.8802 -0.0644
   44MOL   H39224558   3.418   0.611   4.125  1.1749 -1.2492  0.1568
   44MOL   H39324559   3.374   0.692   4.347 -0.0027 -0.9557 -0.5684
   44MOL   C39424560   3.105   1.295   4.209  0.6861 -0.5887 -0.7729
   44MOL   C39524561   2.982   1.373   4.253 -0.1309  0.7255 -0.0202
   44MOL   C39624562   2.978   1.446   4.369  0.5607 -0.9907 -0.3521
   44MOL   C39724563   2.860   1.517   4.408 -0.1882 -0.2873 -0.7902
   44MOL   C39824564   2.740   1.509   4.332  0.3853 -0.6560  0.4308
   44MOL   C39924565   2.618   1.581   4.378 -0.0317 -0.4304  1.0863
   44MOL   N40024566   2.508   1.566   4.301  0.2584 -0.4929 -0.3969
   44MOL   C40124567   2.387   1.642   4.307 -0.0358  0.2096 -0.3105
   44MOL   C40224568   2.270   1.597   4.233 -0.4788  0.1132 -0.1884
   44MOL   C40324569   2.152   1.672   4.221 -0.0347 -0.3520 -0.0484
   44MOL   C40424570   2.146   1.796   4.293 -0.6100  0.2138  0.1855
   44MOL   N40524571   2.029   1.874   4.281  0.2748 -0.3903  0.6390
   44MOL   C40624572   2.247   1.829   4.375  1.0251  0.0692 -0.1152
   44MOL   C40724573   2.371   1.767   4.378  0.3790  0.3854 -0.1128
   44MOL   O40824574   2.620   1.643   4.485 -0.2673  0.5249 -0.1419
   44MOL   C40924575   2.748   1.435   4.211 -0.1463  0.0769  0.1445
   44MOL   C41024576   2.869   1.375   4.169 -0.2420 -0.0606 -0.0363
   44MOL   O41124577   3.217   1.336   4.245 -0.6186  0.1747 -0.2450
   44MOL   H41224578   3.061   1.435   4.437  0.7620  1.5195 -0.1551
   44MOL   H41324579   2.852   1.566   4.504  0.6413  2.1966 -1.9377
   44MOL   H41424580   2.523   1.500   4.226 -0.9137 -0.6139 -0.5244
   44MOL   H41524581   2.274   1.506   4.175 -0.5022 -0.9675  1.4401
   44MOL   H41624582   2.080   1.625   4.154 -0.3459 -0.1464  0.1408
   44MOL   H41724583   1.963   1.824   4.222  2.3977 -1.3322 -1.0046
   44MOL   H41824584   2.248   1.923   4.429  1.7606  0.5144 -0.8741
   44MOL   H41924585   2.452   1.812   4.434  0.9159 -0.5446 -0.1291
   44MOL   H42024586   2.667   1.426   4.140  0.5083  1.4374 -0.7875
   44MOL   H42124587   2.868   1.323   4.074  0.7577 -0.3072  0.0863
   44MOL   C42224588   1.989   1.991   4.341  0.4451  0.5952  0.3323
   44MOL   C42324589   1.847   2.020   4.319  0.2719  0.0556  1.0625
   44MOL   C42424590   1.769   2.073   4.421  0.2197  0.6242  0.6298
   44MOL   C42524591   1.633   2.090   4.407 -0.6535  0.5257 -0.4203
   44MOL   C42624592   1.575   2.061   4.283 -0.3339  0.3510 -0.2346
   44MOL   C42724593   1.427   2.074   4.260 -0.0597  0.0193  0.3624
   44MOL   N42824594   1.364   2.009   4.358  0.2319  0.3853  0.4356
   44MOL   C42924595   1.225   1.973   4.367 -0.2662  0.3102  0.0458
   44MOL   C43024596   1.144   1.950   4.250 -0.2264 -0.1217  0.5036
   44MOL   C43124597   1.004   1.931   4.254 -0.3544 -0.0397 -0.4354
   44MOL   C43224598   0.945   1.921   4.378  0.6264  0.0752 -0.0870
   44MOL   N43324599   0.807   1.912   4.404  0.0823 -0.0795 -0.1428
   44MOL   C43424600   1.021   1.948   4.495  0.3069 -0.1995  0.3051
   44MOL   C43524601   1.157   1.961   4.486  0.2018 -0.9471  0.0758
   44MOL   O43624602   1.380   2.120   4.159 -0.0268 -0.6250 -0.1339
   44MOL   C43724603   1.651   2.010   4.180  0.2393  0.3496  0.3064
   44MOL   C43824604   1.785   1.988   4.196 -0.1552 -0.8058  0.0434
   44MOL   O43924605   2.052   2.059   4.421 -0.0005  0.0382 -0.4532
   44MOL   H44024606   1.798   2.085   4.524  1.5350  0.0886  0.3284
   44MOL   H44124607   1.564   2.115   4.487 -0.5750  0.4077 -0.3155
   44MOL   H44224608   1.423   1.981   4.435 -1.1747 -0.6805  1.1373
   44MOL   H44324609   1.191   1.945   4.154 -1.7928 -2.0244 -0.2095
   44MOL   H44424610   0.949   1.942   4.162 -0.4230  0.7660 -0.3015
   44MOL   H44524611   0.774   1.938   4.495 -2.0475 -1.1564 -0.5929
   44MOL   H44624612   0.967   1.935   4.587  0.3926 -1.0373  0.2406
   44MOL   H44724613   1.211   1.964   4.580  0.2352 -4.2310  0.2059
   44MOL   H44824614   1.602   1.975   4.090 -0.3116 -1.5670  1.3155
   44MOL   H44924615   1.827   1.935   4.111  0.1556 -1.6412  0.7081
   44MOL   C45024616   0.715   1.840   4.329  0.0233 -0.9218  0.3436
   44MOL   C45124617   0.590   1.799   4.394 -0.3446  0.1858 -0.5452
   44MOL   C45224618   0.572   1.682   4.473  0.2276 -0.4217 -0.0214
   44MOL   C45324619   0.455   1.643   4.543 -0.6184 -0.0805 -0.4439
   44MOL   C45424620   0.344   1.731   4.524  0.1865 -0.2615  0.3492
   44MOL   C45524621   0.226   1.704   4.607  0.0199  0.0025 -0.6047
   44MOL   N45624622   0.184   1.579   4.637  0.1403  0.6021 -0.0293
   44MOL   C45724623   0.084   1.541   4.732 -0.2484  0.2330  0.0879
   44MOL   C45824624   0.046   1.633   4.835 -0.7541  0.2773  0.0679
   44MOL   C45924625   8.106   1.591   4.937 -0.2091  0.4647  0.2048
   44MOL   C46024626   8.046   1.465   4.936 -0.0804  0.1662 -0.2111
   44MOL   N46124627   7.957   1.420   5.032 -0.3406 -0.2165  0.5694
   44MOL   C46224628   8.078   1.379   4.825 -0.3708 -0.1513 -0.1568
   44MOL   C46324629   0.023   1.415   4.725  0.2482 -0.7033 -0.0685
   44MOL   O46424630   0.175   1.807   4.651 -0.3524 -0.1123 -0.1858
   44MOL   C46524631   0.363   1.853   4.452  0.4789 -0.3650 -0.0850
   44MOL   C46624632   0.486   1.896   4.397  0.7783  0.6061  0.3271
   44MOL   O46724633   0.731   1.800   4.215 -0.0771  0.1383  0.3000
   44MOL   H46824634   0.657   1.617   4.487  0.8753 -0.1887 -2.6968
   44MOL   H46924635   0.450   1.550   4.599 -1.1118  0.7544  0.9344
   44MOL   H47024636   0.229   1.507   4.583 -3.0402 -1.9968  0.5818
   44MOL   H47124637   0.085   1.733   4.848 -2.1337  0.8460 -0.1219
   44MOL   H47224638   8.085   1.663   5.015  2.7457  0.6868  0.8756
   44MOL   H47324639   7.964   1.321   5.051  0.9576 -0.4155 -0.8955
   44MOL   H47424640   8.044   1.276   4.821  3.6621 -1.6232  0.8424
   44MOL   H47524641   0.045   1.340   4.650  1.6663  0.0670 -0.4282
   44MOL   H47624642   0.282   1.923   4.443 -0.8940 -2.0345 -0.9586
   44MOL   H47724643   0.491   1.993   4.349  0.4359 -0.4630 -1.9654
   44MOL   C47824644   7.885   1.484   5.129 -1.0558 -0.0490  0.1956
   44MOL   C47924645   7.809   1.403   5.228 -0.0702  0.2536  0.2231
   44MOL   C48024646   7.817   1.266   5.230 -0.0259  0.2901  0.0751
   44MOL   C48124647   7.734   1.194   5.314  0.1609 -0.4899  0.0992
   44MOL   C48224648   7.659   1.262   5.411  0.4303 -0.2400 -0.1145
   44MOL   C48324649   7.583   1.182   5.517  0.3212 -0.0112 -0.2305
   44MOL   N48424650   7.498   1.084   5.476 -0.1205  0.1443 -0.5152
   44MOL   C48524651   7.416   1.002   5.558  0.4227 -0.0442  0.0912
   44MOL   C48624652   7.379   0.870   5.520  0.2734 -0.4982  0.4190
   44MOL   C48724653   7.288   0.795   5.602 -0.7040 -0.6453  0.4911
   44MOL   C48824654   7.227   0.852   5.716 -0.5847 -0.4226 -0.4525
   44MOL   N48924655   7.151   0.769   5.798  0.0860  0.1019  0.5824
   44MOL   C49024656   7.256   0.989   5.746 -1.3483 -0.1442 -0.2643
   44MOL   C49124657   7.358   1.058   5.674 -0.1177  0.0710 -0.2555
   44MOL   O49224658   7.599   1.208   5.638  0.4300 -0.1192 -0.3125
   44MOL   C49324659   7.667   1.402   5.428 -0.7867 -0.3464 -0.1492
   44MOL   C49424660   7.745   1.474   5.336  0.7983 -0.0147 -0.2422
   44MOL   O49524661   7.882   1.607   5.133  0.1194 -0.3785  0.5121
   44MOL   H49624662   7.873   1.212   5.154  1.8670  1.2800  0.7328
   44MOL   H49724663   7.723   1.086   5.315  1.2418 -0.5996  0.2318
   44MOL   H49824664   7.516   1.055   5.381 -0.6830 -1.6502 -0.0848
   44MOL   H49924665   7.419   0.828   5.429  1.9465  2.6622 -0.3935
   44MOL   H50024666   7.276   0.692   5.572  0.4381 -0.7512  0.3633
   44MOL   H50124667   7.149   0.673   5.768 -1.1377 -0.0153  1.0054
   44MOL   H50224668   7.207   1.043   5.826 -0.5061  0.7113 -0.3144
   44MOL   H50324669   7.370   1.162   5.699  1.8713 -0.7745  2.6018
   44MOL   H50424670   7.619   1.449   5.512 -0.2884 -0.8984  0.4593
   44MOL   H50524671   7.764   1.579   5.351  1.0197 -0.2736  1.3879
   44MOL   C50624672   7.078   0.783   5.901 -0.1016  0.1154  0.1768
   44MOL   C50724673   7.006   0.660   5.945  0.0910 -0.5671 -0.4937
   44MOL   C50824674   6.884   0.672   6.008  0.6938 -0.1475  0.4248
   44MOL   C50924675   6.818   0.557   6.065  0.3857  0.8529 -0.2379
   44MOL   C51024676   6.882   0.428   6.067  0.4953  0.4724  0.4260
   44MOL   C51124677   6.810   0.305   6.119  0.0946 -0.1293  0.1223
   44MOL   N51224678   6.889   0.196   6.135 -0.7287 -0.7118 -0.1117
   44MOL   C51324679   6.859   0.057   6.151  0.8162 -0.5922 -0.6389
   44MOL   C51424680   6.958   8.110   6.114 -0.3313 -0.5399  0.1368
   44MOL   C51524681   6.942   7.969   6.120  0.6489  0.5576 -0.4934
   44MOL   C51624682   6.818   7.927   6.174 -0.3948  0.3607 -0.4482
   44MOL   N51724683   6.802   7.792   6.196  0.1775  0.3667  0.6758
   44MOL   C51824684   6.716   8.022   6.212 -0.3592  0.0457  0.5985
   44MOL   C51924685   6.733   0.014   6.202 -0.5212 -0.2387  0.2935
   44MOL   O52024686   6.689   0.306   6.140 -0.8491 -0.1255  0.7584
   44MOL   C52124687   7.020   0.418   6.019 -0.4355 -0.2222  0.9687
   44MOL   C52224688   7.072   0.532   5.956 -0.6030 -0.5915 -0.3095
   44MOL   O52324689   7.048   0.892   5.954 -0.9074 -0.0358 -0.0308
   44MOL   H52424690   6.839   0.770   6.021 -0.1977 -0.5892  0.7267
   44MOL   H52524691   6.714   0.569   6.093 -0.0747  2.6952 -2.5174
   44MOL   H52624692   6.984   0.222   6.110 -1.6792  1.7492 -1.3831
   44MOL   H52724693   7.056   0.001   6.086  0.5358  0.0221  3.6886
   44MOL   H52824694   7.025   7.901   6.126  0.9629  1.0582  1.1413
   44MOL   H52924695   6.886   7.738   6.178 -0.2636 -1.4721  3.7454
   44MOL   H53024696   6.621   7.990   6.252 -0.0735 -3.6026 -1.4968
   44MOL   H53124697   6.645   0.072   6.228 -0.1003  1.1013 -1.1625
   44MOL   H53224698   7.086   0.333   6.017 -0.8299 -0.5114 -1.9872
   44MOL   H53324699   7.177   0.520   5.938  0.0014 -0.3660  2.7968
   44MOL   C53424700   6.697   7.722   6.242 -0.3157  0.1698  0.0175
   44MOL   C53524701   6.723   7.575   6.260  0.2243 -0.0643 -0.4926
   44MOL   C53624702   6.784   7.497   6.160 -0.8868  0.8304  0.4964
   44MOL   C53724703   6.795   7.361   6.174 -0.0512  0.5615 -0.7287
   44MOL   C53824704   6.756   7.291   6.289  0.4443 -0.0261 -0.0625
   44MOL   C53924705   6.752   7.139   6.297 -0.4782 -0.4831  0.5987
   44MOL   N54024706   6.822   7.073   6.205 -0.1645  0.1751 -0.3836
   44MOL   C54124707   6.845   6.934   6.212  0.9274  0.3422  0.4835
   44MOL   C54224708   6.981   6.893   6.202 -0.4445  0.8954  0.6029
   44MOL   C54324709   7.011   6.754   6.196 -0.3631  0.1512 -0.1001
   44MOL   C54424710   6.915   6.658   6.193 -0.1733  0.3043 -0.6534
   44MOL   N54524711   6.947   6.522   6.179 -0.4582 -0.0581  0.4599
   44MOL   C54624712   6.783   6.702   6.211 -0.0493 -0.0225 -0.2404
   44MOL   C54724713   6.745   6.834   6.212  0.1636  0.0404  0.0750
   44MOL   O54824714   6.694   7.092   6.403 -0.0589  0.0120 -0.1031
   44MOL   C54924715   6.691   7.369   6.391 -0.1111  0.0627 -0.2106
   44MOL   C55024716   6.676   7.509   6.373 -0.0058 -0.1096  0.7640
   44MOL   O55124717   6.584   7.761   6.277 -1.0886  0.0725 -0.0958
   44MOL   H55224718   6.814   7.544   6.068  0.8783 -0.7240  0.2450
   44MOL   H55324719   6.832   7.312   6.085 -1.7067 -1.5169 -0.3293
   44MOL   H55424720   6.883   7.131   6.150  1.6468 -0.1633  1.2241
   44MOL   H55524721   7.061   6.964   6.194 -0.4629  0.7903 -0.5856
   44MOL   H55624722   7.117   6.732   6.187 -0.2376 -0.3398  2.1473
   44MOL   H55724723   7.040   6.506   6.145  0.8782  4.3112  1.8258
   44MOL   H55824724   6.699   6.635   6.202  1.2034 -1.4723 -1.5873
   44MOL   H55924725   6.642   6.864   6.214  0.8184  2.3416  2.0700
   44MOL   H56024726   6.653   7.321   6.480 -0.5365 -1.4093 -1.1697
   44MOL   H56124727   6.636   7.562   6.458 -0.6393 -0.6224  0.7927
   44MOL   H56224728   6.874   6.463   6.140 -1.7662  1.0744  1.1313
   45MOL     C124729   7.245   3.152   0.454 -0.7080  0.0144  0.8141
   45MOL     C224730   7.241   3.251   0.564 -0.0952  0.1807 -0.0025
   45MOL     C324731   7.114   3.285   0.618 -0.7427  0.3805  0.5863
   45MOL     C424732   7.108   3.359   0.735  0.1965 -0.4622  0.2280
   45MOL     C524733   7.228   3.408   0.791  0.0436  0.4750  0.4523
   45MOL     C624734   7.220   3.501   0.911  0.4029  0.5459 -0.3236
   45MOL     N724735   7.320   3.589   0.929 -0.4486  0.7379 -0.3119
   45MOL     C824736   7.332   3.684   1.035  0.8118  0.2935 -0.3098
   45MOL     C924737   7.410   3.804   1.019 -0.4009  0.4121  0.7477
   45MOL    C1024738   7.429   3.899   1.121  0.4721 -0.7698  0.6945
   45MOL    C1124739   7.349   3.883   1.239  0.4460  0.1219 -0.9427
   45MOL    N1224740   7.348   3.990   1.328 -0.8715 -0.1696  0.2068
   45MOL    C1324741   7.281   3.760   1.266  0.1514 -0.0882 -0.0599
   45MOL    C1424742   7.282   3.658   1.164  0.1118 -0.0415 -0.4488
   45MOL    O1524743   7.125   3.494   0.989 -0.0183 -0.4561 -0.2145
   45MOL    C1624744   7.352   3.384   0.726  0.2718 -0.1102  0.8565
   45MOL    C1724745   7.361   3.302   0.611  0.2357 -0.5104 -0.4946
   45MOL    O1824746   7.152   3.083   0.403  0.2568  0.7695 -0.2397
   45MOL    H1924747   7.017   3.252   0.585 -0.7056  1.4939 -0.6567
   45MOL    H2024748   7.014   3.389   0.778  1.2146 -0.1985  2.3256
   45MOL    H2124749   7.383   3.587   0.850 -1.7539 -2.7226 -1.3282
   45MOL    H2224750   7.458   3.824   0.924 -2.6653 -0.1468 -0.5547
   45MOL    H2324751   7.476   3.996   1.105 -0.2389 -0.6896 -1.0771
   45MOL    H2424752   7.398   4.072   1.295  2.9004 -2.0728  0.8647
   45MOL    H2524753   7.243   3.733   1.363  1.3801 -1.9650 -0.0824
   45MOL    H2624754   7.233   3.564   1.186 -0.7943 -0.0295 -2.2664
   45MOL    H2724755   7.439   3.425   0.776 -0.3864 -0.0033  1.9347
   45MOL    H2824756   7.456   3.275   0.567  2.0506  1.2578  2.1635
   45MOL    H2924757   7.345   3.155   0.413 -0.6644  1.7790  1.0175
   45MOL    C3024758   7.343   3.988   1.468 -0.1668  0.3346  0.2799
   45MOL    C3124759   7.373   4.116   1.540  0.5301  0.4012 -0.5266
   45MOL    C3224760   7.343   4.134   1.676 -0.2961  0.3891  0.3326
   45MOL    C3324761   7.382   4.248   1.752 -0.2995 -0.0773  0.0650
   45MOL    C3424762   7.446   4.357   1.689 -0.4130 -0.2369  0.4612
   45MOL    C3524763   7.451   4.492   1.754  1.1330  0.1530  0.4340
   45MOL    N3624764   7.538   4.579   1.702 -0.8818  0.5546 -0.0487
   45MOL    C3724765   7.546   4.717   1.723  0.3646 -0.2570  0.6274
   45MOL    C3824766   7.441   4.795   1.762  0.0731 -0.0327  0.4541
   45MOL    C3924767   7.463   4.934   1.781 -1.0218  0.9367 -0.4753
   45MOL    C4024768   7.588   4.993   1.753  0.4802 -0.0638 -0.0709
   45MOL    N4124769   7.617   5.133   1.764 -0.4432  0.6302  0.3724
   45MOL    C4224770   7.688   4.915   1.707 -0.2303 -0.5319 -0.5956
   45MOL    C4324771   7.667   4.782   1.691  0.0315  1.2283 -0.2194
   45MOL    O4424772   7.383   4.516   1.850  0.3086 -0.1304  0.1972
   45MOL    C4524773   7.482   4.339   1.553  0.3663 -0.6106 -0.5459
   45MOL    C4624774   7.447   4.223   1.482 -1.0088 -0.4757  0.3481
   45MOL    O4724775   7.320   3.884   1.531 -0.5211 -0.8449  0.4937
   45MOL    H4824776   7.303   4.044   1.720 -0.5372 -0.0316 -0.7397
   45MOL    H4924777   7.354   4.244   1.856 -2.1016 -0.9314 -0.4402
   45MOL    H5024778   7.599   4.527   1.641 -2.3022 -1.0556 -0.1578
   45MOL    H5124779   7.342   4.760   1.786 -0.7929  1.1734 -1.2189
   45MOL    H5224780   7.377   4.988   1.818  1.8057  3.9369  1.9324
   45MOL    H5324781   7.708   5.167   1.735  1.1201 -2.5885  1.2958
   45MOL    H5424782   7.787   4.952   1.689  0.4580 -1.5849  0.9801
   45MOL    H5524783   7.748   4.718   1.660  0.1857  2.4808 -2.4977
   45MOL    H5624784   7.529   4.422   1.501  4.4555 -1.9378  0.8169
   45MOL    H5724785   7.479   4.223   1.379  1.3034 -1.4440  1.0544
   45MOL    C5824786   7.542   5.238   1.812 -0.5216 -0.5672  0.0716
   45MOL    C5924787   7.605   5.377   1.792 -0.1917  0.4540  0.3966
   45MOL    C6024788   7.703   5.403   1.694 -0.3100  0.7717 -0.0382
   45MOL    C6124789   7.742   5.536   1.667  0.2683 -0.6216 -0.1660
   45MOL    C6224790   7.693   5.640   1.744  0.7565 -0.9014 -0.4197
   45MOL    C6324791   7.729   5.783   1.713 -0.0116  0.1895  0.0587
   45MOL    N6424792   7.653   5.878   1.767  0.1845  0.3423 -0.3334
   45MOL    C6524793   7.663   6.017   1.739  0.3930  0.2088 -0.3306
   45MOL    C6624794   7.601   6.105   1.824  0.8107  0.3956 -0.4716
   45MOL    C6724795   7.596   6.242   1.792 -0.4252 -0.4557 -0.6607
   45MOL    C6824796   7.658   6.295   1.680 -0.0508  0.0349 -0.3509
   45MOL    N6924797   7.646   6.434   1.658  0.2566  0.1166 -0.1238
   45MOL    C7024798   7.743   6.211   1.599 -0.3859 -0.3017 -0.1940
   45MOL    C7124799   7.732   6.077   1.628  0.4046 -0.6951 -0.2839
   45MOL    O7224800   7.833   5.804   1.656 -0.1641  0.4025  0.3255
   45MOL    C7324801   7.607   5.615   1.851  0.5238 -0.5179  0.3340
   45MOL    C7424802   7.560   5.484   1.873 -0.0260 -0.3184 -0.0568
   45MOL    O7524803   7.449   5.230   1.890  0.1514  0.1700  0.1359
   45MOL    H7624804   7.737   5.327   1.625  2.4868 -0.0874  2.1820
   45MOL    H7724805   7.810   5.554   1.585 -1.1731 -0.9410 -1.4644
   45MOL    H7824806   7.574   5.849   1.823 -0.1480  1.0708 -0.4206
   45MOL    H7924807   7.556   6.066   1.915  0.5301 -0.8893 -1.1532
   45MOL    H8024808   7.552   6.311   1.862  1.3318 -1.1134  1.1270
   45MOL    H8124809   7.657   6.494   1.738 -2.8260 -1.4521  1.6108
   45MOL    H8224810   7.788   6.244   1.506  0.0063  0.0115  0.1089
   45MOL    H8324811   7.779   6.009   1.557 -0.1906 -2.1259  0.6694
   45MOL    H8424812   7.574   5.680   1.930  1.2131 -0.2905  0.4412
   45MOL    H8524813   7.473   5.480   1.936  0.2951 -0.1137  0.4053
   45MOL    C8624814   7.615   6.498   1.544  0.6805 -0.7596 -0.2085
   45MOL    C8724815   7.582   6.410   1.431 -0.6008  0.7541  0.3923
   45MOL    C8824816   7.667   6.406   1.317 -0.7592  0.2520  0.2680
   45MOL    C8924817   7.644   6.306   1.220 -0.5546 -0.2268 -0.0019
   45MOL    C9024818   7.544   6.203   1.232 -0.3165 -0.6128 -0.5284
   45MOL    C9124819   7.526   6.098   1.123 -0.4827 -0.1112  0.1732
   45MOL    N9224820   7.440   6.005   1.151  0.4186 -0.0187  0.1878
   45MOL    C9324821   7.427   5.882   1.092  0.8869 -0.3755 -0.3621
   45MOL    C9424822   7.316   5.810   1.138  0.4100  0.0395  0.1802
   45MOL    C9524823   7.284   5.682   1.083 -0.1950  0.4474 -0.4971
   45MOL    C9624824   7.364   5.622   0.982  0.0768 -0.0604 -0.2283
   45MOL    N9724825   7.337   5.499   0.915 -0.4428  0.0457  0.2785
   45MOL    C9824826   7.479   5.692   0.946  0.7676  0.6688 -0.3123
   45MOL    C9924827   7.516   5.818   1.000 -0.0449  0.2037 -0.4042
   45MOL   O10024828   7.585   6.112   1.017  0.1273 -0.4715  0.1356
   45MOL   C10124829   7.442   6.227   1.338 -1.1297  0.0830 -0.2814
   45MOL   C10224830   7.470   6.325   1.435  0.3828 -0.3361  0.3776
   45MOL   O10324831   7.609   6.620   1.536 -0.0727  0.9532 -0.1543
   45MOL   H10424832   7.748   6.478   1.315 -2.0235  1.6836  0.3625
   45MOL   H10524833   7.704   6.308   1.130  0.1288  2.4239  0.4485
   45MOL   H10624834   7.398   6.016   1.242  0.0642 -0.8553  0.1306
   45MOL   H10724835   7.259   5.856   1.217  2.7070  2.1841  0.6365
   45MOL   H10824836   7.199   5.626   1.120  0.2433 -0.5274 -0.9480
   45MOL   H10924837   7.403   5.471   0.843  0.1461 -2.9755  1.8993
   45MOL   H11024838   7.548   5.649   0.875 -2.4631 -2.2183 -1.8723
   45MOL   H11124839   7.612   5.858   0.973 -1.1827  1.1327 -3.2626
   45MOL   H11224840   7.356   6.164   1.354 -1.3507  0.9089  1.8763
   45MOL   H11324841   7.406   6.340   1.520 -1.0586  1.1894 -0.9309
   45MOL   C11424842   7.223   5.418   0.918 -0.6510 -0.3916  0.0422
   45MOL   C11524843   7.220   5.292   0.833 -0.2558  0.3867 -0.0273
   45MOL   C11624844   7.326   5.256   0.747 -0.2605  1.0514 -0.4644
   45MOL   C11724845   7.310   5.143   0.669  0.5948  0.7720  0.0744
   45MOL   C11824846   7.200   5.052   0.682  0.8435  0.3365  0.4561
   45MOL   C11924847   7.190   4.922   0.601  0.2806  0.0338 -0.0738
   45MOL   N12024848   7.068   4.887   0.560  0.5713 -0.4365  0.4582
   45MOL   C12124849   7.023   4.768   0.490 -0.5597 -0.1455  0.0730
   45MOL   C12224850   6.897   4.769   0.426  0.6339 -0.2668  0.2117
   45MOL   C12324851   6.847   4.650   0.361 -0.2239 -0.0829  0.3485
   45MOL   C12424852   6.931   4.535   0.352 -0.1846 -0.1161  0.2182
   45MOL   N12524853   6.877   4.425   0.269  0.0166  0.8295 -0.6155
   45MOL   C12624854   7.053   4.526   0.428 -0.3605 -0.2018 -0.4517
   45MOL   C12724855   7.102   4.646   0.487 -0.0799  0.3665  0.1347
   45MOL   O12824856   7.286   4.852   0.578 -0.3028 -0.3559  0.5814
   45MOL   C12924857   7.095   5.086   0.769  0.8960 -0.6823 -0.1222
   45MOL   C13024858   7.101   5.211   0.839 -0.0692 -0.1314  0.0247
   45MOL   O13124859   7.125   5.444   0.989 -0.7315  0.6193  0.5976
   45MOL   H13224860   7.418   5.311   0.734 -0.1925  0.5342 -2.2478
   45MOL   H13324861   7.385   5.117   0.595  0.5706 -0.7136  0.5514
   45MOL   H13424862   6.995   4.957   0.559  0.3092 -0.7156 -0.9253
   45MOL   H13524863   6.836   4.858   0.427  2.0594  0.7137  0.7864
   45MOL   H13624864   6.759   4.648   0.298 -1.3381 -2.1069  1.8788
   45MOL   H13724865   6.777   4.421   0.266  0.1368 -2.7430 -1.9081
   45MOL   H13824866   7.127   4.448   0.421  0.8631  0.7733  1.2196
   45MOL   H13924867   7.196   4.637   0.539  1.2053 -1.5453 -2.3824
   45MOL   H14024868   7.016   5.016   0.791  0.7185 -0.5482 -0.3199
   45MOL   H14124869   7.013   5.244   0.892 -0.3135 -1.2194  0.2983
   45MOL   C14224870   6.942   4.326   0.211  0.0995  0.2168  0.5090
   45MOL   C14324871   7.087   4.351   0.195 -0.5813 -0.6453 -0.1950
   45MOL   C14424872   7.188   4.264   0.240  0.0823 -0.2394 -0.1939
   45MOL   C14524873   7.322   4.295   0.219 -0.2346  0.1568 -0.0790
   45MOL   C14624874   7.357   4.426   0.178 -0.5464  0.1373  0.5366
   45MOL   C14724875   7.505   4.459   0.186 -0.3211 -0.4001  0.0309
   45MOL   N14824876   7.540   4.583   0.144  0.0474 -0.4783  0.2360
   45MOL   C14924877   7.666   4.645   0.156 -0.1472 -0.8679 -0.1901
   45MOL   C15024878   7.748   4.617   0.263 -0.6388  0.2607  0.6851
   45MOL   C15124879   7.869   4.681   0.276 -0.3349 -0.5009 -0.0347
   45MOL   C15224880   7.915   4.779   0.184 -0.3023 -0.6080  0.4665
   45MOL   N15324881   8.047   4.830   0.197 -0.3952  0.2177  0.0584
   45MOL   C15424882   7.824   4.814   0.077 -0.1923 -0.1655  0.1060
   45MOL   C15524883   7.700   4.752   0.071  0.3314 -0.2412  0.0118
   45MOL   O15624884   7.590   4.378   0.239  0.0359  0.4235  0.2261
   45MOL   C15724885   7.262   4.517   0.136 -0.9386  0.7289 -0.2542
   45MOL   C15824886   7.127   4.471   0.130  0.0305 -0.0481  0.0306
   45MOL   O15924887   6.892   4.216   0.190  0.6342  0.0273 -0.0385
   45MOL   H16024888   7.164   4.162   0.270  1.9678  0.0674  2.5280
   45MOL   H16124889   7.395   4.221   0.249  0.2770 -0.1836 -2.0863
   45MOL   H16224890   7.463   4.642   0.116 -1.2525 -1.5571  1.4621
   45MOL   H16324891   7.736   4.537   0.335 -0.3370 -0.4307 -0.0336
   45MOL   H16424892   7.938   4.652   0.354  0.5048  2.3041  0.3236
   45MOL   H16524893   8.104   4.831   0.114 -3.7158  1.1595 -2.3167
   45MOL   H16624894   7.851   4.892   0.007 -1.4863  0.2729  0.0784
   45MOL   H16724895   7.626   4.787   0.001 -2.9165  1.3155  3.9969
   45MOL   H16824896   7.286   4.620   0.117  3.6512 -0.4196 -1.3620
   45MOL   H16924897   7.044   4.520   0.083 -1.3622 -2.7427 -0.4377
   45MOL   C17024898   8.094   4.901   0.300 -0.4910  0.4280  0.8806
   45MOL   C17124899   0.072   4.971   0.261  0.8280  0.1281  0.1534
   45MOL   C17224900   0.070   5.107   0.220  0.0686  0.4501 -0.4394
   45MOL   C17324901   0.191   5.158   0.168  0.2297  0.3359 -0.5818
   45MOL   C17424902   0.304   5.073   0.142 -0.1877 -0.6110  0.9966
   45MOL   C17524903   0.424   5.121   0.064  0.9396 -0.1200 -0.1471
   45MOL   N17624904   0.443   5.073   8.086 -0.1779  0.1124  0.2106
   45MOL   C17724905   0.359   4.995   8.003  0.2114  0.3011  0.1303
   45MOL   C17824906   0.417   4.909   7.911 -1.0584  0.2884 -0.3769
   45MOL   C17924907   0.344   4.838   7.819 -0.2498 -0.3241  0.1263
   45MOL   C18024908   0.203   4.850   7.814 -0.1177 -0.1014 -0.1865
   45MOL   N18124909   0.120   4.786   7.722  0.1006  0.6964  0.2395
   45MOL   C18224910   0.143   4.947   7.901  0.7460  0.5428  0.2089
   45MOL   C18324911   0.220   5.013   7.992 -0.0289  0.2826 -0.5623
   45MOL   O18424912   0.494   5.211   0.114 -0.4884  0.5077  0.1983
   45MOL   C18524913   0.299   4.943   0.191 -0.2011  0.2131 -0.4341
   45MOL   C18624914   0.191   4.893   0.254  0.0424  0.4416  0.6100
   45MOL   O18724915   8.048   4.912   0.415 -0.1779  0.4216 -0.7047
   45MOL   H18824916   8.130   5.173   0.225  0.4678  0.7914  2.4107
   45MOL   H18924917   0.197   5.258   0.127 -2.4052  0.1045 -1.6037
   45MOL   H19024918   0.537   5.090   8.053  0.1506  0.4030  1.2744
   45MOL   H19124919   0.525   4.905   7.909 -1.1257 -3.0453  0.5167
   45MOL   H19224920   0.404   4.779   7.752  0.0180 -0.8891  0.8538
   45MOL   H19324921   0.028   4.825   7.714 -0.0224  0.1600 -1.0007
   45MOL   H19424922   0.040   4.978   7.911  0.4135 -0.7382  0.8463
   45MOL   H19524923   0.174   5.089   8.054 -1.1625 -0.0442 -0.9856
   45MOL   H19624924   0.391   4.886   0.191 -0.6663 -0.5393 -0.0546
   45MOL   H19724925   0.194   4.791   0.290 -1.8860 -0.1447 -0.7674
   45MOL   C19824926   0.147   4.671   7.658  0.8737 -0.1809  0.4313
   45MOL   C19924927   0.024   4.604   7.606 -0.1330  0.5362  0.9029
   45MOL   C20024928   0.037   4.484   7.532  0.2182 -0.3659 -0.2068
   45MOL   C20124929   8.075   4.404   7.484  0.5801  0.2476 -0.5865
   45MOL   C20224930   7.948   4.459   7.500 -0.2958  0.1463 -0.8479
   45MOL   C20324931   7.822   4.391   7.449 -0.3175 -0.1160  0.4401
   45MOL   N20424932   7.831   4.337   7.327 -0.3181 -1.1559 -0.4369
   45MOL   C20524933   7.735   4.271   7.252  0.5220 -0.2932 -0.0692
   45MOL   C20624934   7.771   4.224   7.128 -0.1008  1.1247 -0.3361
   45MOL   C20724935   7.694   4.142   7.045  0.1198 -0.3241  0.0162
   45MOL   C20824936   7.566   4.114   7.091 -0.4144  0.2247  0.2077
   45MOL   N20924937   7.483   4.034   7.009  1.2846 -0.1331 -0.0678
   45MOL   C21024938   7.524   4.159   7.219 -0.0191  0.6617  0.0019
   45MOL   C21124939   7.608   4.239   7.300  0.2874  0.4275 -0.5783
   45MOL   O21224940   7.726   4.376   7.525 -0.5596 -0.0024 -0.6641
   45MOL   C21324941   7.929   4.587   7.564  0.2598 -0.4489  0.5902
   45MOL   C21424942   8.040   4.651   7.623 -0.2789  0.8077 -0.2303
   45MOL   O21524943   0.256   4.616   7.666  0.1914  0.5542  0.2142
   45MOL   H21624944   0.132   4.432   7.526  1.3135  1.2427  2.4103
   45MOL   H21724945   8.089   4.310   7.433  0.3092  1.2166 -2.4813
   45MOL   H21824946   7.916   4.361   7.278 -0.7586  1.7730  0.1722
   45MOL   H21924947   7.872   4.243   7.096 -0.0654  1.9527  0.2404
   45MOL   H22024948   7.725   4.105   6.948  0.0034  0.9629 -0.5175
   45MOL   H22124949   7.466   4.048   6.911 -1.0776  0.5052  0.3936
   45MOL   H22224950   7.426   4.137   7.259  0.2818  1.5602  1.2667
   45MOL   H22324951   7.563   4.266   7.394 -1.4180  0.1987 -1.3125
   45MOL   H22424952   7.829   4.629   7.567 -0.3863 -1.9721  1.1622
   45MOL   H22524953   8.018   4.743   7.675 -4.3554 -0.5070  0.5890
   45MOL   C22624954   7.411   3.937   7.067 -0.3680  0.7394  1.0158
   45MOL   C22724955   7.287   3.898   6.992 -0.1599 -0.3882 -0.5432
   45MOL   C22824956   7.284   3.887   6.852  1.0869 -0.8680  0.6956
   45MOL   C22924957   7.161   3.855   6.789 -0.1033 -0.1076 -0.2586
   45MOL   C23024958   7.042   3.851   6.863 -0.4390  0.3372  0.0281
   45MOL   C23124959   6.909   3.861   6.802 -0.1349 -0.4122 -0.5258
   45MOL   N23224960   6.828   3.955   6.846  0.3350 -0.4166 -0.8203
   45MOL   C23324961   6.863   4.057   6.940 -0.1063 -0.1839 -0.2593
   45MOL   C23424962   6.780   4.099   7.041 -0.5567 -0.2743  0.0643
   45MOL   C23524963   6.822   4.203   7.128 -0.6603  0.1344  0.1181
   45MOL   C23624964   6.948   4.261   7.116 -1.4642  0.6208 -0.7239
   45MOL   N23724965   6.996   4.352   7.218 -0.1419  0.1533  0.2325
   45MOL   C23824966   7.020   4.230   7.006 -0.5477 -0.4190  0.4873
   45MOL   C23924967   6.980   4.134   6.911  0.0228 -1.0286  0.1782
   45MOL   O24024968   6.871   3.795   6.703 -0.0867 -0.3871 -0.0613
   45MOL   C24124969   7.047   3.839   7.001 -0.0376  0.6502 -1.1089
   45MOL   C24224970   7.170   3.869   7.065 -0.2589 -0.0726 -0.2188
   45MOL   O24324971   7.439   3.879   7.169  0.6110 -0.0574  0.4602
   45MOL   H24424972   7.377   3.888   6.796  0.2259 -0.5617 -0.7673
   45MOL   H24524973   7.153   3.852   6.682 -0.9180  1.8775 -0.2693
   45MOL   H24624974   6.737   3.963   6.803  0.3540 -0.8930 -0.9420
   45MOL   H24724975   6.690   4.049   7.075 -1.6174  1.2407 -0.4354
   45MOL   H24824976   6.771   4.221   7.221 -0.4714  1.3570 -0.0044
   45MOL   H24924977   6.920   4.382   7.276 -0.5438  2.3010 -1.3460
   45MOL   H25024978   7.122   4.264   6.993 -0.6344  1.2094  3.5796
   45MOL   H25124979   7.050   4.114   6.831  0.3811 -2.1658  0.7601
   45MOL   H25224980   6.967   3.816   7.070  3.0346 -1.6642  1.8460
   45MOL   H25324981   7.171   3.862   7.172 -0.6772 -0.3296 -0.2328
   45MOL   C25424982   7.123   4.382   7.251  0.1435 -0.0732 -0.0692
   45MOL   C25524983   7.146   4.474   7.363  0.3209  0.1279 -0.7702
   45MOL   C25624984   7.251   4.449   7.455  0.2778  0.6052 -0.6993
   45MOL   C25724985   7.283   4.541   7.551  0.3778 -0.2900 -0.2053
   45MOL   C25824986   7.208   4.659   7.558  0.2648  0.2193 -0.3482
   45MOL   C25924987   7.239   4.757   7.669 -0.4284 -0.5601  0.1247
   45MOL   N26024988   7.368   4.788   7.660  0.3843  0.0491  0.4091
   45MOL   C26124989   7.440   4.883   7.741 -0.2261  0.2212  0.3628
   45MOL   C26224990   7.570   4.849   7.780  0.2114 -0.1037  0.8681
   45MOL   C26324991   7.641   4.925   7.874 -0.3872 -0.1231  0.8215
   45MOL   C26424992   7.575   5.045   7.917 -0.2152  0.5708  0.5315
   45MOL   N26524993   7.638   5.130   8.010 -0.3421 -0.1852 -0.0617
   45MOL   C26624994   7.450   5.081   7.870  0.3040 -0.1175 -0.1549
   45MOL   C26724995   7.381   5.003   7.777  0.1370 -0.1213 -0.1881
   45MOL   O26824996   7.154   4.798   7.751  0.0373 -0.5941 -0.4619
   45MOL   C26924997   7.100   4.685   7.473  0.3454  0.3157  0.9415
   45MOL   C27024998   7.064   4.590   7.378 -1.0572  0.2560 -0.2644
   45MOL   O27124999   7.223   4.335   7.199  0.4555  0.5089 -0.1803
   45MOL   H27225000   7.306   4.356   7.452 -0.1931  0.2968  0.0835
   45MOL   H27325001   7.364   4.516   7.618  1.8452  0.8660 -1.5078
   45MOL   H27425002   7.419   4.736   7.590 -0.0733 -0.0513  0.1425
   45MOL   H27525003   7.613   4.753   7.756 -0.1736 -0.0416 -0.0740
   45MOL   H27625004   7.737   4.903   7.919  0.4306  1.0642 -0.2779
   45MOL   H27725005   7.578   5.165   8.084  0.8573 -0.1824  0.9271
   45MOL   H27825006   7.411   5.177   7.899  4.0228  1.2685  0.4521
   45MOL   H27925007   7.289   5.043   7.736  0.7440 -0.6560 -2.1604
   45MOL   H28025008   7.039   4.770   7.499 -1.6682 -0.9954  0.6730
   45MOL   H28125009   6.981   4.612   7.313 -0.5096  1.1340 -0.6816
   45MOL   C28225010   7.759   5.173   8.017  0.3081  0.3134 -0.0210
   45MOL   C28325011   7.775   5.267   8.134 -0.8425 -0.2107  0.0611
   45MOL   C28425012   7.861   5.372   8.117 -0.1355 -0.5838 -0.1898
   45MOL   C28525013   7.903   5.451   0.083 -0.0665  0.2820  0.4588
   45MOL   C28625014   7.854   5.423   0.219 -0.1760 -0.9000 -0.2321
   45MOL   C28725015   7.896   5.515   0.333 -0.0231 -0.0363 -0.2325
   45MOL   N28825016   8.023   5.565   0.325 -0.0101  0.0700  0.0196
   45MOL   C28925017   8.077   5.674   0.397  0.6425 -0.3342 -0.4896
   45MOL   C29025018   0.068   5.680   0.429 -0.2737  0.7101 -0.2095
   45MOL   C29125019   0.129   5.787   0.491  0.4708  0.2675  0.3407
   45MOL   C29225020   0.050   5.897   0.531  0.7000  0.9272 -0.7221
   45MOL   N29325021   0.109   6.011   0.595 -0.5091 -0.5303 -0.3296
   45MOL   C29425022   8.058   5.894   0.504 -0.6560  0.3541 -0.1624
   45MOL   C29525023   7.998   5.785   0.435  0.4632  0.6097 -0.1872
   45MOL   O29625024   7.822   5.527   0.434 -0.2737 -0.3618 -0.4292
   45MOL   C29725025   7.770   5.314   0.235  0.1022  0.1514 -0.8249
   45MOL   C29825026   7.729   5.239   0.123 -0.3905  0.0369 -0.3438
   45MOL   O29925027   7.855   5.141   7.944 -0.1877 -0.3210 -0.3502
   45MOL   H30025028   7.894   5.400   8.018 -1.0392 -1.0584 -0.6313
   45MOL   H30125029   7.967   5.534   0.060  1.5008 -1.5220 -1.9567
   45MOL   H30225030   8.085   5.529   0.255 -1.7004 -0.0938 -1.4328
   45MOL   H30325031   0.125   5.592   0.402  0.1930  0.9330  0.0253
   45MOL   H30425032   0.237   5.788   0.496  0.6474 -0.3524 -2.6206
   45MOL   H30525033   0.035   6.076   0.619 -1.3128 -1.5626  0.0184
   45MOL   H30625034   7.985   5.966   0.538  0.3481  3.1098 -3.6100
   45MOL   H30725035   7.891   5.795   0.430 -0.2003 -3.3044  3.3910
   45MOL   H30825036   7.730   5.291   0.332  0.5723 -1.6621 -1.0420
   45MOL   H30925037   7.660   5.158   0.144  1.8989 -1.3234  2.1963
   45MOL   C31025038   0.226   6.037   0.657  0.5295  0.3382 -0.1582
   45MOL   C31125039   0.224   6.161   0.740 -0.1531 -0.3663 -0.7376
   45MOL   C31225040   0.335   6.191   0.824 -0.4960 -0.5241  1.0832
   45MOL   C31325041   0.329   6.296   0.918 -0.2204  0.5215  0.6912
   45MOL   C31425042   0.214   6.376   0.932 -0.3751 -0.5566 -0.7318
   45MOL   C31525043   0.208   6.490   1.028 -0.0528  0.1442  1.1570
   45MOL   N31625044   0.291   6.496   1.130 -0.5034  0.3595  0.5472
   45MOL   C31725045   0.289   6.606   1.222  0.5413  0.1708 -0.8372
   45MOL   C31825046   0.166   6.651   1.283  0.8692  0.2258 -0.3589
   45MOL   C31925047   0.166   6.758   1.374  0.1321 -0.4375 -0.6144
   45MOL   C32025048   0.281   6.837   1.388  0.3379 -0.0153  0.0684
   45MOL   N32125049   0.273   6.957   1.465 -0.0996  0.8034  0.3820
   45MOL   C32225050   0.401   6.798   1.328  0.2502 -0.4010 -0.5285
   45MOL   C32325051   0.406   6.677   1.256  0.0222  0.5557 -0.1667
   45MOL   O32425052   0.139   6.586   0.996 -0.1849 -0.4366 -0.2505
   45MOL   C32525053   0.107   6.356   0.842 -0.0971 -0.0879  0.9110
   45MOL   C32625054   0.111   6.253   0.748  0.4611 -0.0935  0.5579
   45MOL   O32725055   0.319   5.957   0.653 -0.2999 -0.1185  0.1362
   45MOL   H32825056   0.427   6.133   0.818 -0.3638 -0.2342  0.1583
   45MOL   H32925057   0.416   6.311   0.981  0.3814  1.8381 -0.4102
   45MOL   H33025058   0.357   6.422   1.148 -1.3179 -0.5892 -0.3134
   45MOL   H33125059   0.078   6.591   1.262  1.8131 -0.8506 -1.3416
   45MOL   H33225060   0.070   6.781   1.417  0.1698 -1.1465 -0.1251
   45MOL   H33325061   0.180   6.969   1.503 -0.8260 -1.9736 -0.4133
   45MOL   H33425062   0.494   6.852   1.336  0.8176 -1.5338  0.5595
   45MOL   H33525063   0.505   6.662   1.215 -0.5678 -1.2133 -0.9757
   45MOL   H33625064   0.014   6.410   0.833 -1.3984 -2.4026 -0.0610
   45MOL   H33725065   0.029   6.243   0.679 -0.6581  3.2510  1.2677
   45MOL   C33825066   0.350   7.069   1.463  0.8243  0.1971 -0.3185
   45MOL   C33925067   0.293   7.179   1.548 -0.3613 -0.1341  0.2300
   45MOL   C34025068   0.327   7.306   1.515  0.2506 -0.1237  0.2403
   45MOL   C34125069   0.282   7.418   1.589  0.4310 -0.2002 -0.6340
   45MOL   C34225070   0.198   7.393   1.703 -0.3712  0.4670 -0.0472
   45MOL   C34325071   0.167   7.506   1.799  0.0693  0.0540 -0.7860
   45MOL   N34425072   0.114   7.471   1.916  0.9360  0.5781 -0.7599
   45MOL   C34525073   0.070   7.540   2.035 -0.2038  0.3454 -0.1040
   45MOL   C34625074   0.045   7.460   2.149 -0.4163 -0.1223 -0.0600
   45MOL   C34725075   8.126   7.521   2.261 -0.1232 -0.0333  0.2262
   45MOL   C34825076   8.101   7.662   2.271 -0.1338 -0.0306 -1.0157
   45MOL   N34925077   8.035   7.705   2.383  0.0042  0.2774 -0.2804
   45MOL   C35025078   8.130   7.740   2.156 -0.5154  0.1671 -1.1892
   45MOL   C35125079   0.033   7.674   2.037 -0.0336  1.2742  1.0127
   45MOL   O35225080   0.209   7.623   1.780 -0.4513 -0.1819 -0.0702
   45MOL   C35325081   0.149   7.262   1.728  0.3088  0.6451 -0.0573
   45MOL   C35425082   0.198   7.156   1.650 -0.0451 -0.2136  0.2326
   45MOL   O35525083   0.468   7.074   1.411  0.3156 -0.9925 -0.3584
   45MOL   H35625084   0.382   7.328   1.425 -2.6926 -0.2270 -1.6251
   45MOL   H35725085   0.321   7.518   1.577  0.9272 -0.6367 -2.9237
   45MOL   H35825086   0.098   7.372   1.916  0.2793  0.6784 -0.1071
   45MOL   H35925087   0.062   7.354   2.144  1.7470  0.2773 -1.9294
   45MOL   H36025088   8.105   7.454   2.343  1.8506  0.8148  1.4622
   45MOL   H36125089   7.969   7.636   2.415  1.5227 -0.8167  0.5464
   45MOL   H36225090   8.114   7.846   2.160  0.6450  0.2793  1.1486
   45MOL   H36325091   0.064   7.728   1.949  0.1554  1.5272  1.2377
   45MOL   H36425092   0.082   7.239   1.810  1.4998  0.5817  0.9127
   45MOL   H36525093   0.174   7.054   1.676  0.6791 -0.8719 -1.5842
   45MOL   C36625094   8.014   7.831   2.426 -0.4763  0.2669  0.2283
   45MOL   C36725095   7.901   7.842   2.528  1.0296  0.1958  0.2680
   45MOL   C36825096   7.916   7.901   2.657 -0.5516  0.5977  0.1499
   45MOL   C36925097   7.817   7.900   2.754  0.7660 -0.1450 -0.7345
   45MOL   C37025098   7.690   7.843   2.715 -0.3282 -0.3620  0.4662
   45MOL   C37125099   7.580   7.827   2.813  0.7035 -0.6532 -0.4461
   45MOL   N37225100   7.516   7.710   2.834 -0.4573 -0.6054 -0.1494
   45MOL   C37325101   7.562   7.583   2.786 -0.1629 -0.6112  0.5636
   45MOL   C37425102   7.680   7.533   2.844 -0.1546 -0.1470 -0.3225
   45MOL   C37525103   7.721   7.397   2.825  0.6053  0.0808 -0.1958
   45MOL   C37625104   7.638   7.311   2.741 -0.4597 -0.1693  0.3763
   45MOL   N37725105   7.657   7.168   2.729 -0.7376 -0.1804 -0.7680
   45MOL   C37825106   7.527   7.366   2.672 -0.1527  0.0857  0.0107
   45MOL   C37925107   7.492   7.499   2.697  0.1958  0.3620 -0.5019
   45MOL   O38025108   7.549   7.918   2.887  0.1773 -0.1565  0.4970
   45MOL   C38125109   7.671   7.794   2.585 -0.1487 -0.4975  0.6364
   45MOL   C38225110   7.777   7.789   2.496  0.2147 -0.4403 -0.5489
   45MOL   O38325111   8.085   7.929   2.397  0.3243  0.3768 -0.0903
   45MOL   H38425112   8.012   7.941   2.686 -0.6695  0.5701  0.5816
   45MOL   H38525113   7.828   7.942   2.853 -1.1053  1.7072 -1.2624
   45MOL   H38625114   7.433   7.710   2.891 -0.4504 -0.4208 -0.1388
   45MOL   H38725115   7.741   7.599   2.904 -0.3153  0.1755 -0.5098
   45MOL   H38825116   7.796   7.355   2.891 -0.6112 -0.6989  0.7274
   45MOL   H38925117   7.591   7.108   2.682 -1.0110 -1.9135  1.6904
   45MOL   H39025118   7.467   7.304   2.606  2.0984 -1.1509 -0.9392
   45MOL   H39125119   7.410   7.536   2.637 -1.6770 -1.0119  1.1474
   45MOL   H39225120   7.583   7.746   2.546  0.6972 -0.1295 -1.7597
   45MOL   H39325121   7.764   7.733   2.405 -0.1383 -1.8689  0.3681
   45MOL   C39425122   7.771   7.101   2.761 -0.2943  0.1685  0.0856
   45MOL   C39525123   7.769   6.961   2.705 -0.5784  0.2673  0.2449
   45MOL   C39625124   7.706   6.927   2.590  0.2965 -0.8684  0.2635
   45MOL   C39725125   7.712   6.788   2.554  0.1683  0.1225 -0.5222
   45MOL   C39825126   7.783   6.692   2.627  0.8828 -0.9024 -0.8648
   45MOL   C39925127   7.780   6.547   2.590  0.1313  0.4524  0.2076
   45MOL   N40025128   7.790   6.452   2.684 -0.0024  0.1355  0.3633
   45MOL   C40125129   7.777   6.308   2.671 -0.7450 -0.7229  0.2420
   45MOL   C40225130   7.789   6.246   2.545  0.0181  0.2050  0.2163
   45MOL   C40325131   7.802   6.108   2.536  0.5369  0.2750  0.8517
   45MOL   C40425132   7.806   6.029   2.646 -0.1628 -0.0669 -0.1707
   45MOL   N40525133   7.816   5.892   2.627  0.2905  0.2444 -0.1242
   45MOL   C40625134   7.783   6.090   2.771  0.1012 -0.5579  0.1770
   45MOL   C40725135   7.779   6.229   2.783 -0.5969  0.4331  0.1615
   45MOL   O40825136   7.769   6.520   2.465 -0.2871 -0.6180 -0.6526
   45MOL   C40925137   7.859   6.735   2.735  0.3393 -0.1620 -0.0632
   45MOL   C41025138   7.848   6.867   2.776  0.2706 -0.1941  0.1514
   45MOL   O41125139   7.859   7.139   2.837  0.4202 -0.0881  0.4966
   45MOL   H41225140   7.651   7.005   2.538  0.8543  0.0711  1.0622
   45MOL   H41325141   7.664   6.758   2.462 -0.2769 -1.1983  0.1245
   45MOL   H41425142   7.785   6.492   2.777 -0.8985 -1.4010  0.9766
   45MOL   H41525143   7.797   6.296   2.450  0.6435 -0.8200 -0.2812
   45MOL   H41625144   7.833   6.065   2.442 -1.0078  1.5434 -0.2763
   45MOL   H41725145   7.841   5.868   2.532 -0.1568  0.8145 -0.3878
   45MOL   H41825146   7.794   6.038   2.865 -0.1275 -1.2046 -0.1458
   45MOL   H41925147   7.772   6.277   2.880  0.6298 -0.3633  0.6646
   45MOL   H42025148   7.914   6.666   2.797 -0.3318 -0.9104 -0.2864
   45MOL   H42125149   7.905   6.899   2.862  0.6910 -0.6074  0.0277
   45MOL   C42225150   7.792   5.792   2.710 -0.6684  0.1911  0.7719
   45MOL   C42325151   7.829   5.655   2.653 -0.2601 -0.3276 -0.0790
   45MOL   C42425152   7.947   5.590   2.701 -0.4702  0.3357  0.7858
   45MOL   C42525153   7.988   5.467   2.642 -0.1072  0.3084 -0.6517
   45MOL   C42625154   7.901   5.403   2.549  0.0895 -0.0622 -0.8471
   45MOL   C42725155   7.935   5.274   2.485  0.7369  0.3300  0.2906
   45MOL   N42825156   7.830   5.185   2.479 -0.1609 -0.7108  0.0344
   45MOL   C42925157   7.848   5.056   2.442  0.4341 -0.5437 -0.2433
   45MOL   C43025158   7.746   4.982   2.499 -0.0987 -0.0156  0.2973
   45MOL   C43125159   7.752   4.841   2.471  0.6147  0.2713  0.9682
   45MOL   C43225160   7.854   4.783   2.389  0.7290 -0.0939  0.3360
   45MOL   N43325161   7.845   4.643   2.354  0.2567  0.6266 -0.1255
   45MOL   C43425162   7.955   4.867   2.332 -0.4533  0.1250 -0.1232
   45MOL   C43525163   7.955   5.003   2.363 -0.5710  0.2785  0.1094
   45MOL   O43625164   8.047   5.261   2.435 -0.1997 -0.3832 -0.9740
   45MOL   C43725165   7.786   5.474   2.504  0.0137 -0.4896  0.2398
   45MOL   C43825166   7.748   5.596   2.556 -0.1529 -0.0384 -0.8078
   45MOL   O43925167   7.753   5.807   2.824  0.6490 -0.2068  0.3922
   45MOL   H44025168   8.003   5.629   2.784 -0.7529  0.4277  0.9352
   45MOL   H44125169   8.083   5.421   2.667  0.2592  0.0538 -2.4523
   45MOL   H44225170   7.742   5.213   2.522  0.0700 -0.4319  0.3294
   45MOL   H44325171   7.667   5.028   2.557 -0.6595 -1.8064  0.9651
   45MOL   H44425172   7.673   4.779   2.510  0.6185  0.7123  1.6627
   45MOL   H44525173   7.855   4.573   2.426 -2.1915 -0.9312 -1.2523
   45MOL   H44625174   8.034   4.819   2.276 -0.7754  0.4144 -0.8367
   45MOL   H44725175   8.024   5.065   2.308  1.3946 -0.8890  1.2126
   45MOL   H44825176   7.707   5.441   2.438 -0.2006  0.1460  0.1782
   45MOL   H44925177   7.659   5.648   2.523 -0.1945  0.5580  0.2133
   45MOL   C45025178   7.831   4.602   2.222 -0.2551 -0.3451 -0.5595
   45MOL   C45125179   7.810   4.707   2.120 -0.4551  0.6335  0.3116
   45MOL   C45225180   7.701   4.790   2.125  0.2785 -0.5603  0.5136
   45MOL   C45325181   7.705   4.921   2.065 -0.3906  0.4281  0.3470
   45MOL   C45425182   7.829   4.962   2.004  0.4973  0.3010  0.5018
   45MOL   C45525183   7.857   5.106   1.981 -0.7725  0.8340  0.1023
   45MOL   N45625184   7.848   5.177   2.095  0.8008 -0.0685  0.4115
   45MOL   C45725185   7.831   5.313   2.089  0.3379 -0.0392  0.1156
   45MOL   C45825186   7.713   5.366   2.145 -0.3346 -0.9513 -0.0890
   45MOL   C45925187   7.703   5.507   2.157  0.3644 -0.1686 -0.5013
   45MOL   C46025188   7.810   5.590   2.111  0.5872  0.0998  0.2014
   45MOL   N46125189   7.811   5.731   2.116 -0.0304 -0.1895 -0.2879
   45MOL   C46225190   7.924   5.534   2.054  0.1634 -0.0498 -0.3127
   45MOL   C46325191   7.935   5.397   2.049  1.0082  0.2158 -0.3009
   45MOL   O46425192   7.884   5.151   1.863 -0.1075 -0.4193  0.3414
   45MOL   C46525193   7.921   4.865   1.968 -0.4927  0.0442  0.1831
   45MOL   C46625194   7.914   4.741   2.032 -0.2383 -0.9892 -0.5322
   45MOL   O46725195   7.816   4.481   2.202 -0.0824  0.0326 -0.5631
   45MOL   H46825196   7.622   4.772   2.196 -0.5615  1.7920  0.2323
   45MOL   H46925197   7.631   4.998   2.082  1.4195  2.2660  0.0971
   45MOL   H47025198   7.800   5.131   2.171  0.3142 -1.0137 -0.4462
   45MOL   H47125199   7.633   5.303   2.180 -0.3272  0.0807  1.8453
   45MOL   H47225200   7.615   5.556   2.196  1.0444  3.1499 -2.9448
   45MOL   H47325201   7.860   5.771   2.036 -0.3365  1.2616  0.2344
   45MOL   H47425202   8.008   5.592   2.017 -0.4180  1.0185  0.0361
   45MOL   H47525203   8.023   5.359   2.000  1.1635 -1.7046  1.4155
   45MOL   H47625204   8.016   4.896   1.926  0.5807 -1.0428  1.7335
   45MOL   H47725205   8.003   4.680   2.036  0.4536  0.1176  1.6559
   45MOL   C47825206   7.753   5.819   2.202  0.9015  0.5457  0.3724
   45MOL   C47925207   7.747   5.964   2.166  0.5794  0.4931  0.3703
   45MOL   C48025208   7.870   6.023   2.145 -0.1715  0.2109 -0.0737
   45MOL   C48125209   7.880   6.161   2.122 -0.2657  0.0173  0.0421
   45MOL   C48225210   7.762   6.242   2.126 -0.2901  0.2936  0.5905
   45MOL   C48325211   7.752   6.384   2.087  0.1473 -0.4572 -0.3761
   45MOL   N48425212   7.669   6.459   2.161  0.2176 -0.4281 -0.0131
   45MOL   C48525213   7.636   6.595   2.151 -0.2797  0.1480 -0.0203
   45MOL   C48625214   7.717   6.694   2.090  0.3359 -0.4236  0.6549
   45MOL   C48725215   7.684   6.830   2.096  0.2113 -0.6718  0.2740
   45MOL   C48825216   7.558   6.862   2.154 -0.2885 -0.0448 -0.3451
   45MOL   N48925217   7.511   6.994   2.173  0.6400  0.2399  0.4414
   45MOL   C49025218   7.478   6.766   2.214 -0.5040  0.8368 -0.7984
   45MOL   C49125219   7.520   6.633   2.220 -0.1073  0.5484  0.1054
   45MOL   O49225220   7.831   6.430   1.998  0.5795  0.3225 -0.0722
   45MOL   C49325221   7.639   6.181   2.161  0.4511 -0.3501 -0.8819
   45MOL   C49425222   7.637   6.042   2.184 -0.5220 -0.1306  0.8777
   45MOL   O49525223   7.694   5.786   2.303 -0.4055  0.2616 -0.2068
   45MOL   H49625224   7.961   5.965   2.153 -0.9769 -1.2013 -1.0468
   45MOL   H49725225   7.981   6.196   2.106  0.2359 -0.9510  1.0421
   45MOL   H49825226   7.639   6.417   2.248  2.0218  0.0985  0.9080
   45MOL   H49925227   7.807   6.664   2.037  0.6200 -0.1706  0.9853
   45MOL   H50025228   7.751   6.905   2.058  1.0513 -0.3618  2.2902
   45MOL   H50125229   7.426   7.012   2.225 -0.2305 -0.3382 -0.7532
   45MOL   H50225230   7.382   6.796   2.254 -0.5601  0.1744 -0.4257
   45MOL   H50325231   7.460   6.556   2.267  0.6643  0.0608  0.2979
   45MOL   H50425232   7.546   6.235   2.170  0.0464 -1.0463 -0.8145
   45MOL   H50525233   7.541   5.994   2.197 -1.2059  1.1790  0.7045
   45MOL   C50625234   7.544   7.105   2.110  0.2296 -0.6501  0.7168
   45MOL   C50725235   7.466   7.228   2.155 -0.3321 -0.4798  0.3292
   45MOL   C50825236   7.406   7.232   2.284 -0.0516  0.8648 -0.2692
   45MOL   C50925237   7.335   7.344   2.340  0.5358  0.1623 -0.3186
   45MOL   C51025238   7.341   7.462   2.264 -0.2325  0.5847 -0.3832
   45MOL   C51125239   7.267   7.585   2.316 -0.0647 -0.5734  0.1981
   45MOL   N51225240   7.202   7.654   2.221  0.0872  0.2961 -0.4444
   45MOL   C51325241   7.107   7.756   2.246 -0.2130 -0.2519  0.2568
   45MOL   C51425242   7.030   7.765   2.365  0.5434  0.0130 -0.1225
   45MOL   C51525243   6.928   7.861   2.379 -0.6330 -0.2222 -0.8407
   45MOL   C51625244   6.907   7.950   2.273 -0.4908  0.1977 -0.4286
   45MOL   N51725245   6.802   8.046   2.277  0.2935  0.6386 -0.8857
   45MOL   C51825246   6.981   7.939   2.152 -1.0184 -0.1889  0.8452
   45MOL   C51925247   7.079   7.841   2.141  0.3723  0.1541  1.1189
   45MOL   O52025248   7.262   7.608   2.436 -0.2430  1.2154 -0.0705
   45MOL   C52125249   7.408   7.473   2.140  0.0487  0.2852 -0.2271
   45MOL   C52225250   7.467   7.355   2.086  0.0176  0.3108 -0.1037
   45MOL   O52325251   7.628   7.116   2.022 -0.5401  0.9102  0.2766
   45MOL   H52425252   7.394   7.140   2.338  2.2996  1.9777  2.2401
   45MOL   H52525253   7.288   7.334   2.436  1.1758 -2.7274 -0.2729
   45MOL   H52625254   7.224   7.627   2.127 -0.6325 -1.5738 -0.1050
   45MOL   H52725255   7.048   7.705   2.453 -1.5031 -0.7367 -0.1878
   45MOL   H52825256   6.880   7.877   2.474  1.4818  0.8790  0.0729
   45MOL   H52925257   6.797   8.095   2.365 -2.0472 -0.2746 -0.4799
   45MOL   H53025258   6.973   7.998   2.062 -0.2308 -1.8942 -0.3850
   45MOL   H53125259   7.127   7.823   2.046 -1.2826 -1.3140  0.5351
   45MOL   H53225260   7.406   7.569   2.092  0.4699  0.3895 -0.0375
   45MOL   H53325261   7.521   7.358   1.993  1.5599 -1.1323  0.7036
   45MOL   C53425262   6.709   8.073   2.188 -0.1131 -0.2592 -0.2004
   45MOL   C53525263   6.594   0.021   2.239  0.2492  0.1906 -0.4825
   45MOL   C53625264   6.606   0.101   2.356  0.3299  0.4954  0.2268
   45MOL   C53725265   6.499   0.181   2.398  0.1057  0.0535  0.2557
   45MOL   C53825266   6.377   0.190   2.324 -0.7777  0.2039 -0.1188
   45MOL   C53925267   6.260   0.254   2.379 -0.3021 -0.5186 -0.4610
   45MOL   N54025268   6.290   0.335   2.485 -0.3720 -0.9673  0.3180
   45MOL   C54125269   6.209   0.399   2.584 -0.0813  0.4182 -0.4477
   45MOL   C54225270   6.255   0.516   2.652  0.1103 -0.4151  0.4534
   45MOL   C54325271   6.180   0.570   2.756  0.4040  0.1461  0.1318
   45MOL   C54425272   6.047   0.526   2.777  0.2905  0.1606  0.1801
   45MOL   N54525273   5.965   0.581   2.871  0.3755  0.2291 -0.0577
   45MOL   C54625274   5.997   0.414   2.709  0.1809  0.4678  0.2825
   45MOL   C54725275   6.081   0.353   2.612 -0.1359 -0.3754 -0.7277
   45MOL   O54825276   6.148   0.236   2.333 -0.4142  0.5075 -0.7133
   45MOL   C54925277   6.359   0.099   2.215 -0.0651  1.0948 -0.1182
   45MOL   C55025278   6.469   0.019   2.173  0.0875  0.0246  0.5348
   45MOL   O55125279   6.709   8.014   2.082 -0.2207 -0.4394  0.2797
   45MOL   H55225280   6.699   0.108   2.411 -0.7743 -0.9696  2.3910
   45MOL   H55325281   6.519   0.236   2.489 -1.3086 -0.8054  1.1044
   45MOL   H55425282   6.390   0.347   2.497 -0.5017 -0.1948  0.6522
   45MOL   H55525283   6.354   0.559   2.644  0.1799 -0.8097 -1.0189
   45MOL   H55625284   6.213   0.654   2.815  1.8815 -1.5632  1.8086
   45MOL   H55725285   5.880   0.530   2.891  0.4852  0.2854  0.5391
   45MOL   H55825286   5.897   0.374   2.719  1.0267 -2.4409 -2.0996
   45MOL   H55925287   6.033   0.271   2.560 -1.6941  0.8853 -1.3296
   45MOL   H56025288   6.264   0.102   2.164  0.2017  2.1938 -0.5598
   45MOL   H56125289   6.456   8.095   2.092  0.8271 -1.4017  1.6262
   45MOL   H56225290   5.999   0.633   2.951  1.1414  1.6344 -1.2636
   46MOL     C125291   0.075   0.014   8.028  0.3916 -0.4466 -0.0948
   46MOL     C225292   8.075   0.017   8.000 -0.5621 -0.1399  0.1744
   46MOL     C325293   8.001   0.132   8.013  0.5044 -0.8706 -0.0995
   46MOL     C425294   7.866   0.127   7.982  0.0815  0.3566 -0.7507
   46MOL     C525295   7.804   0.008   7.950 -0.5919  0.1605 -0.1231
   46MOL     C625296   7.658   8.135   7.927  0.3134 -0.1475 -0.5850
   46MOL     N725297   7.586   0.041   8.028 -0.2277 -0.3100  0.2714
   46MOL     C825298   7.446   0.067   8.023  0.7319  1.0528  0.1807
   46MOL     C925299   7.404   0.166   8.114  0.3853  0.3652  0.3132
   46MOL    C1025300   7.264   0.198   8.121 -0.4201  0.3106  0.0210
   46MOL    C1125301   7.174   0.145   8.021  0.1317  0.5749 -0.0495
   46MOL    N1225302   7.046   0.200   8.001 -0.3112 -1.0299 -0.2164
   46MOL    C1325303   7.221   0.046   7.934 -0.1862 -0.5801 -0.0695
   46MOL    C1425304   7.356   0.003   7.936  0.0881 -0.0801  0.0904
   46MOL    O1525305   7.615   8.068   7.830 -0.1658 -0.4717 -0.4038
   46MOL    C1625306   7.880   8.036   7.948 -0.7390  0.2465 -0.7821
   46MOL    C1725307   8.017   8.042   7.968  1.2075  0.3512 -0.0295
   46MOL    O1825308   0.147   0.110   8.059  0.5202 -0.0964  0.1854
   46MOL    H1925309   8.046   0.221   8.054 -0.9874 -0.6202  1.0315
   46MOL    H2025310   7.811   0.219   7.974  0.3600  0.6473  0.5084
   46MOL    H2125311   7.635   0.083   8.105  1.6478 -1.3899 -0.3124
   46MOL    H2225312   7.473   0.214   0.036  0.3427  0.0881  0.5558
   46MOL    H2325313   7.238   0.270   0.051 -1.2017 -1.0867  1.1028
   46MOL    H2425314   6.998   0.191   7.913  0.5177  0.5696 -0.8372
   46MOL    H2525315   7.145   8.140   7.877 -1.9031  0.7817  0.9335
   46MOL    H2625316   7.381   8.068   7.869 -0.0417  0.1942 -0.2877
   46MOL    H2725317   7.837   7.939   7.925  0.3152 -0.6568  0.9201
   46MOL    H2825318   8.072   7.949   7.979 -0.2817 -0.2380  2.7806
   46MOL    H2925319   0.115   8.059   8.017  3.3978  0.9543 -2.6004
   46MOL    C3025320   6.971   0.277   8.084 -0.5610 -0.5794 -0.5404
   46MOL    C3125321   6.841   0.331   8.036  0.4910  0.1143  0.9938
   46MOL    C3225322   6.734   0.346   8.124 -0.0526  0.2364  0.5658
   46MOL    C3325323   6.619   0.411   8.084  0.0328  0.3693  0.6992
   46MOL    C3425324   6.601   0.456   7.949 -0.3320  0.4597 -0.2503
   46MOL    C3525325   6.488   0.538   7.902 -0.5224 -0.0154  0.4124
   46MOL    N3625326   6.418   0.488   7.803  0.8001  0.0721  0.4868
   46MOL    C3725327   6.438   0.368   7.732  0.4196  0.5851  0.2362
   46MOL    C3825328   6.430   0.237   7.794  0.3217  0.2191 -0.5720
   46MOL    C3925329   6.483   0.126   7.726 -0.2669 -0.2364 -0.1088
   46MOL    C4025330   6.539   0.142   7.598  0.1309  0.5784  0.2630
   46MOL    N4125331   6.609   0.035   7.537 -0.0787  0.1644  0.0837
   46MOL    C4225332   6.528   0.267   7.526 -0.5015  0.0553 -0.1099
   46MOL    C4325333   6.478   0.378   7.597  0.1354 -0.3167  0.2135
   46MOL    O4425334   6.459   0.641   7.959  0.0528 -0.3350 -0.4236
   46MOL    C4525335   6.715   0.435   7.862  0.5615  0.6356 -0.1354
   46MOL    C4625336   6.834   0.378   7.907  0.7528  0.6933 -0.4958
   46MOL    O4725337   7.002   0.299   0.059 -0.2583 -0.5975 -0.6416
   46MOL    H4825338   6.734   0.304   0.078  1.9123 -0.4864  0.2811
   46MOL    H4925339   6.538   0.429   0.007 -0.7694 -0.3427 -0.0453
   46MOL    H5025340   6.364   0.551   7.746 -1.0737 -0.2529  1.8601
   46MOL    H5125341   6.392   0.226   7.894  1.1350  0.0370 -0.2800
   46MOL    H5225342   6.486   0.030   7.774  1.8077 -0.5095 -0.7569
   46MOL    H5325343   6.595   0.018   7.439 -0.4318 -0.3768  0.2256
   46MOL    H5425344   6.559   0.294   7.426 -1.6249  0.9746 -0.2210
   46MOL    H5525345   6.481   0.472   7.545  0.2155 -1.5748 -2.1384
   46MOL    H5625346   6.717   0.490   7.769  0.9383 -2.1447 -1.8182
   46MOL    H5725347   6.921   0.378   7.843  0.3404  0.1832 -1.0618
   46MOL    C5825348   6.690   8.097   7.594 -0.4710  0.2344  0.2788
   46MOL    C5925349   6.740   7.991   7.494  0.1831  0.4988  0.5616
   46MOL    C6025350   6.865   7.921   7.513  0.3972  0.1754 -0.3019
   46MOL    C6125351   6.911   7.837   7.413  0.0009  0.7751 -0.4100
   46MOL    C6225352   6.842   7.814   7.290 -0.0819 -0.0051  0.7157
   46MOL    C6325353   6.890   7.730   7.174  0.3359  0.3740 -0.3626
   46MOL    N6425354   7.011   7.678   7.200  0.0572 -0.3376 -0.0406
   46MOL    C6525355   7.097   7.608   7.121  0.2561 -0.1331 -0.0216
   46MOL    C6625356   7.213   7.558   7.180  0.5649 -0.0697 -0.1818
   46MOL    C6725357   7.304   7.478   7.114 -0.0104 -0.0421 -0.0004
   46MOL    C6825358   7.281   7.440   6.980  0.1505 -0.5481 -0.2722
   46MOL    N6925359   7.373   7.350   6.923  0.2078  0.4385 -0.0047
   46MOL    C7025360   7.172   7.492   6.919  0.1895  0.1431 -0.1057
   46MOL    C7125361   7.079   7.574   6.986 -0.1058 -0.1759  0.6798
   46MOL    O7225362   6.832   7.715   7.068  0.0598  0.0804 -0.2675
   46MOL    C7325363   6.728   7.893   7.268  0.6029  0.7702 -0.5349
   46MOL    C7425364   6.679   7.982   7.365  0.4584 -0.0763 -0.7345
   46MOL    O7525365   6.737   8.101   7.709  0.4462 -0.0954  0.3585
   46MOL    H7625366   6.924   7.922   7.603 -1.3361  0.8537  0.8779
   46MOL    H7725367   7.006   7.790   7.430 -0.8566 -0.2271  1.9101
   46MOL    H7825368   7.045   7.692   7.294 -0.2767 -0.8428  0.1630
   46MOL    H7925369   7.233   7.585   7.283 -0.9078 -0.3263  0.1729
   46MOL    H8025370   7.394   7.442   7.160 -0.9641 -0.4768  1.5584
   46MOL    H8125371   7.469   7.370   6.948  0.9344 -0.6430 -1.8264
   46MOL    H8225372   7.172   7.486   6.811 -1.3331 -2.7806  0.0287
   46MOL    H8325373   6.998   7.623   6.933  1.6547  3.4030  1.1961
   46MOL    H8425374   6.664   7.893   7.181 -1.4952 -0.5092  0.9637
   46MOL    H8525375   6.588   8.037   7.344  0.5545  1.1776  1.9212
   46MOL    C8625376   7.353   7.268   6.820  0.2042  0.6903  0.3096
   46MOL    C8725377   7.474   7.201   6.755 -0.7230 -0.6855 -0.1844
   46MOL    C8825378   7.590   7.176   6.830  0.7956 -0.3456 -0.2137
   46MOL    C8925379   7.696   7.104   6.773 -0.9851 -0.1078 -0.3579
   46MOL    C9025380   7.696   7.056   6.641 -0.3212  0.5853 -0.6671
   46MOL    C9125381   7.823   6.989   6.591  0.6422 -0.4325 -0.0612
   46MOL    N9225382   7.863   7.031   6.472  0.6893  0.3256 -0.2622
   46MOL    C9325383   7.966   6.981   6.385 -0.5357 -0.3144  0.3487
   46MOL    C9425384   8.028   7.075   6.299 -0.0314  0.6158  0.1373
   46MOL    C9525385   8.125   7.033   6.209  0.0967  0.4172 -0.6317
   46MOL    C9625386   0.023   6.901   6.210  0.0888 -0.6069  0.2595
   46MOL    N9725387   0.140   6.860   6.139  0.4771 -0.7157  0.0926
   46MOL    C9825388   8.119   6.809   6.303  0.3847  0.1608  0.5933
   46MOL    C9925389   8.019   6.851   6.394 -0.0418 -0.3570  0.2255
   46MOL   O10025390   7.888   6.912   6.661 -0.0425  0.0456 -0.3111
   46MOL   C10125391   7.584   7.095   6.563 -0.5231 -0.6428 -0.1993
   46MOL   C10225392   7.478   7.164   6.621 -0.4004  0.3590  0.0023
   46MOL   O10325393   7.244   7.258   6.769  0.2978  0.0860 -0.0134
   46MOL   H10425394   7.588   7.222   6.928 -0.2177  0.2781 -0.5150
   46MOL   H10525395   7.784   7.087   6.834 -1.2050  2.1586  0.6532
   46MOL   H10625396   7.804   7.105   6.438  3.2535  2.3275 -0.4925
   46MOL   H10725397   7.986   7.174   6.284 -0.5731  0.6924  2.1136
   46MOL   H10825398   0.031   7.101   6.143 -0.2194 -0.8186 -2.1627
   46MOL   H10925399   0.189   6.787   6.188  1.1695 -0.7987 -0.7026
   46MOL   H11025400   0.028   6.716   6.311 -0.6902 -0.4986  0.6065
   46MOL   H11125401   7.977   6.785   6.468 -0.4812  0.3931  0.6469
   46MOL   H11225402   7.566   7.072   6.459  0.0136 -0.5117 -0.3220
   46MOL   H11325403   7.396   7.202   6.563 -0.1223 -0.2272 -0.7864
   46MOL   C11425404   0.198   6.923   6.031 -0.4193 -0.4651  0.0924
   46MOL   C11525405   0.349   6.921   6.038 -0.3919 -0.2425 -0.6385
   46MOL   C11625406   0.415   6.901   5.916  0.2031 -0.5394 -0.8236
   46MOL   C11725407   0.552   6.915   5.902  0.4272 -0.3480 -0.2212
   46MOL   C11825408   0.630   6.949   6.017  0.7677 -0.0186  0.4505
   46MOL   C11925409   0.778   6.967   6.006  0.5336 -0.8897  0.1214
   46MOL   N12025410   0.840   7.017   6.113 -0.7971 -0.2095  0.2192
   46MOL   C12125411   0.972   7.075   6.128 -0.0665 -0.3156  0.6517
   46MOL   C12225412   0.979   7.193   6.211  0.2799  0.4004 -0.2919
   46MOL   C12325413   1.107   7.253   6.227 -0.5400 -0.7345 -0.0428
   46MOL   C12425414   1.219   7.198   6.158 -0.0817  0.2611  0.0071
   46MOL   N12525415   1.356   7.250   6.167 -0.5557 -0.8987  0.0128
   46MOL   C12625416   1.208   7.088   6.073 -0.3447 -0.4289 -0.7952
   46MOL   C12725417   1.081   7.024   6.055  0.0067  0.6249 -0.4370
   46MOL   O12825418   0.838   6.931   5.904 -0.1481  0.4218  0.0423
   46MOL   C12925419   0.565   6.964   6.142  0.4278 -0.0451  0.5472
   46MOL   C13025420   0.425   6.958   6.150 -0.3027  0.2345  0.1331
   46MOL   O13125421   0.130   6.965   5.933 -0.1031 -0.6258 -0.2567
   46MOL   H13225422   0.352   6.881   5.831  1.1229 -1.1636 -1.3650
   46MOL   H13325423   0.596   6.919   5.803  2.3312 -2.0698  0.5257
   46MOL   H13425424   0.782   7.008   6.196 -1.4520 -3.3977 -0.5012
   46MOL   H13525425   0.890   7.225   6.263  0.1443 -2.7093  1.5090
   46MOL   H13625426   1.112   7.342   6.288 -1.0550  0.2401 -1.3823
   46MOL   H13725427   1.433   7.185   6.160 -0.5041 -1.1570  2.5587
   46MOL   H13825428   1.291   7.045   6.019 -1.6792 -0.6160 -2.7773
   46MOL   H13925429   1.067   6.937   5.993 -3.1989  1.6740 -1.2533
   46MOL   H14025430   0.611   6.995   6.234  1.7340  1.2812 -0.5377
   46MOL   H14125431   0.378   6.979   6.245 -0.3779  2.0676 -0.2758
   46MOL   C14225432   1.386   7.383   6.179  0.5498  0.0379  0.2888
   46MOL   C14325433   1.527   7.420   6.206  0.4076 -0.0309 -0.2898
   46MOL   C14425434   1.630   7.360   6.139 -0.1720 -0.1264  0.0309
   46MOL   C14525435   1.763   7.386   6.178 -0.1509 -0.1862 -0.5294
   46MOL   C14625436   1.790   7.476   6.282  0.0038 -0.3022 -0.7016
   46MOL   C14725437   1.929   7.507   6.325  0.4721  0.2415  0.9194
   46MOL   N14825438   1.940   7.481   6.457 -0.3089 -0.6721 -0.5678
   46MOL   C14925439   2.047   7.496   6.544  0.6008  0.0825 -0.3343
   46MOL   C15025440   2.015   7.492   6.680 -0.4900  0.1054  0.2832
   46MOL   C15125441   2.120   7.506   6.771 -0.3373 -0.2576 -0.7348
   46MOL   C15225442   2.253   7.529   6.735  0.0683  0.3082  0.9330
   46MOL   N15325443   2.351   7.549   6.834 -0.0129 -0.2848 -0.2988
   46MOL   C15425444   2.292   7.514   6.600  0.0842  0.0031 -0.2660
   46MOL   C15525445   2.185   7.501   6.505  0.5484  0.3222  0.3030
   46MOL   O15625446   2.023   7.542   6.246 -0.5738  0.5016  0.1358
   46MOL   C15725447   1.684   7.538   6.349 -0.6550 -0.1251 -0.2930
   46MOL   C15825448   1.556   7.504   6.315  0.2429 -0.0755  0.4157
   46MOL   O15925449   1.298   7.464   6.161 -0.7934 -0.0158 -0.3740
   46MOL   H16025450   1.614   7.302   6.050  0.8587  1.2111 -1.0454
   46MOL   H16125451   1.847   7.358   6.116  0.8715  0.5153  0.5180
   46MOL   H16225452   1.855   7.461   6.507  0.1582 -0.8225  0.1666
   46MOL   H16325453   1.912   7.498   6.712  0.3252 -0.8484  3.1525
   46MOL   H16425454   2.104   7.497   6.878  1.6415 -1.0667 -0.4822
   46MOL   H16525455   2.325   7.575   6.928 -2.8192  0.3569 -1.2162
   46MOL   H16625456   2.391   7.502   6.560  0.2890  1.2319 -0.1479
   46MOL   H16725457   2.207   7.496   6.400  0.4848  0.2112  0.2944
   46MOL   H16825458   1.693   7.614   6.425  0.1169 -1.3745  0.8851
   46MOL   H16925459   1.472   7.546   6.369  0.1158 -1.0492  0.9947
   46MOL   C17025460   2.485   7.555   6.833 -0.2837  0.1408  0.2404
   46MOL   C17125461   2.546   7.598   6.967  0.2669 -0.1127 -0.7815
   46MOL   C17225462   2.665   7.533   7.001 -0.0216 -0.1044  0.0858
   46MOL   C17325463   2.740   7.566   7.113  0.0070 -0.0090 -0.9995
   46MOL   C17425464   2.692   7.668   7.197 -0.5183  0.2484  0.2636
   46MOL   C17525465   2.750   7.683   7.336 -0.2141 -0.8140  0.5942
   46MOL   N17625466   2.810   7.801   7.348  0.3317 -0.2004  0.0767
   46MOL   C17725467   2.838   7.869   7.472  0.2665  0.6269 -0.5338
   46MOL   C17825468   2.853   8.014   7.461 -0.5299  0.4414  0.0819
   46MOL   C17925469   2.869   8.087   7.583 -0.1334 -0.0889  0.3061
   46MOL   C18025470   2.861   8.021   7.710  0.1268 -0.2831 -0.0702
   46MOL   N18125471   2.859   8.091   7.837  0.0001  0.0418 -0.1065
   46MOL   C18225472   2.866   7.880   7.716  0.4756  0.3838 -0.4538
   46MOL   C18325473   2.856   7.804   7.601  0.6247  0.1456  0.5679
   46MOL   O18425474   2.749   7.593   7.420 -0.3360 -0.0430 -0.2998
   46MOL   C18525475   2.564   7.727   7.167  0.1734 -0.2815 -0.5562
   46MOL   C18625476   2.495   7.696   7.051 -0.0460  0.2580  0.1809
   46MOL   O18725477   2.561   7.529   6.741 -0.4986  0.3274 -0.0249
   46MOL   H18825478   2.711   7.465   6.932  1.8770  1.1861  0.0365
   46MOL   H18925479   2.827   7.506   7.137 -0.4058  0.9884  3.5909
   46MOL   H19025480   2.798   7.854   7.263 -0.4314  1.4777  1.2089
   46MOL   H19125481   2.861   8.062   7.365 -1.1781 -1.4582 -0.9593
   46MOL   H19225482   2.886   0.048   7.586 -0.1331 -0.1142  1.7415
   46MOL   H19325483   2.897   8.042   7.917  0.8989 -0.2487 -0.6988
   46MOL   H19425484   2.871   7.825   7.809 -3.0304 -0.2560 -0.5865
   46MOL   H19525485   2.847   7.697   7.612 -1.0365  0.1392 -0.6634
   46MOL   H19625486   2.523   7.805   7.228  1.2660  1.2705 -1.7638
   46MOL   H19725487   2.400   7.747   7.040 -0.0148  0.2306 -0.2204
   46MOL   C19825488   2.807   0.062   7.853 -0.6005 -0.1744 -0.4814
   46MOL   C19925489   2.810   0.117   7.999  0.1573 -0.0814  0.0033
   46MOL   C20025490   2.855   0.040   8.105 -0.3676 -0.0573  0.1101
   46MOL   C20125491   2.860   0.096   0.088  0.0006  0.4210  0.5042
   46MOL   C20225492   2.815   0.227   0.110 -0.0753 -0.0709  0.0148
   46MOL   C20325493   2.821   0.287   0.249  0.0159  0.5942 -0.2142
   46MOL   N20425494   2.743   0.396   0.271 -0.4818 -0.5570  0.3333
   46MOL   C20525495   2.734   0.479   0.381 -0.4662  0.0253  1.0200
   46MOL   C20625496   2.824   0.479   0.494  0.7636 -0.8795 -0.2156
   46MOL   C20725497   2.803   0.569   0.602  0.5756 -0.5962 -0.1783
   46MOL   C20825498   2.710   0.671   0.599  0.2409 -0.1077  0.0039
   46MOL   N20925499   2.703   0.770   0.706  0.2064 -0.1186  0.2174
   46MOL   C21025500   2.624   0.677   0.487 -0.3832 -0.5121  0.4975
   46MOL   C21125501   2.635   0.580   0.382  0.2138 -1.1551  0.7969
   46MOL   O21225502   2.878   0.229   0.341 -0.1437 -0.0504  0.1905
   46MOL   C21325503   2.770   0.303   0.004  1.0106 -0.1652  0.0444
   46MOL   C21425504   2.761   0.248   8.023 -0.0297  0.3465  0.0322
   46MOL   O21525505   2.775   0.140   7.762  0.0106 -0.0777  0.2763
   46MOL   H21625506   2.894   8.087   8.085  2.4268  0.9598  0.2422
   46MOL   H21725507   2.890   0.035   0.172  0.9282  1.5025  0.9736
   46MOL   H21825508   2.704   0.429   0.184 -1.2432  0.4354  1.0435
   46MOL   H21925509   2.897   0.399   0.494  2.4943  0.6577 -0.0677
   46MOL   H22025510   2.867   0.576   0.689 -0.0878  2.0917  0.1557
   46MOL   H22125511   2.738   0.750   0.799  1.8917  0.7127 -0.2065
   46MOL   H22225512   2.540   0.746   0.489 -0.0952 -0.1010 -1.1088
   46MOL   H22325513   2.564   0.605   0.305  2.2059 -0.5145 -0.8730
   46MOL   H22425514   2.751   0.408   0.013  1.4743 -0.1277  0.5926
   46MOL   H22525515   2.732   0.319   7.948 -0.1092 -0.1502 -0.4132
   46MOL   C22625516   2.670   0.903   0.700 -0.4540  0.6688 -0.4077
   46MOL   C22725517   2.684   0.971   0.833  0.0432  0.3891  0.6592
   46MOL   C22825518   2.701   1.112   0.847 -0.4469  0.6516  0.2668
   46MOL   C22925519   2.705   1.176   0.971 -0.3085  0.2872  0.5914
   46MOL   C23025520   2.694   1.101   1.090 -0.2826 -0.0515 -0.0054
   46MOL   C23125521   2.718   1.162   1.224 -0.1766  0.1374 -0.1627
   46MOL   N23225522   2.625   1.238   1.256  0.6169 -0.3813  0.6360
   46MOL   C23325523   2.612   1.296   1.381  0.3785 -0.4261  0.3929
   46MOL   C23425524   2.724   1.360   1.447  0.0140 -0.0557  0.2484
   46MOL   C23525525   2.715   1.412   1.577  0.2917  0.0333  0.4256
   46MOL   C23625526   2.589   1.425   1.634  0.8182 -0.4799 -0.5298
   46MOL   N23725527   2.564   1.493   1.755  0.6041 -0.2855  0.3505
   46MOL   C23825528   2.479   1.371   1.573 -0.4230 -0.0152  0.3466
   46MOL   C23925529   2.486   1.310   1.446 -0.1496  0.3216  0.0140
   46MOL   O24025530   2.818   1.129   1.289 -0.2777 -0.2119 -0.4081
   46MOL   C24125531   2.673   0.964   1.081  0.0670 -0.5503 -0.6142
   46MOL   C24225532   2.668   0.897   0.953 -0.7436 -0.0711 -0.0014
   46MOL   O24325533   2.649   0.962   0.597 -0.0766 -0.0565  0.2338
   46MOL   H24425534   2.714   1.171   0.757 -1.3201 -2.1407 -1.7581
   46MOL   H24525535   2.726   1.282   0.972  0.9080  0.1463 -2.6081
   46MOL   H24625536   2.556   1.251   1.184 -0.3909  2.9427  2.1262
   46MOL   H24725537   2.822   1.348   1.403  0.5613  0.9218  1.1811
   46MOL   H24825538   2.808   1.457   1.609  1.2290 -0.8816 -0.9415
   46MOL   H24925539   2.489   1.461   1.815 -1.4145  1.3419 -1.2288
   46MOL   H25025540   2.382   1.368   1.619 -1.1326 -4.7575 -1.1994
   46MOL   H25125541   2.396   1.268   1.404  0.0419  1.1672 -1.2639
   46MOL   H25225542   2.658   0.909   1.173 -0.3217 -3.0706 -2.1585
   46MOL   H25325543   2.648   0.791   0.948  2.4326 -0.6886 -0.9177
   46MOL   C25425544   2.614   1.614   1.780 -0.5999  0.3021  0.3811
   46MOL   C25525545   2.587   1.675   1.914  0.6290  0.4073  0.3572
   46MOL   C25625546   2.671   1.781   1.961  0.6208  0.0761  0.0741
   46MOL   C25725547   2.660   1.825   2.091  0.3350 -0.6558  0.1555
   46MOL   C25825548   2.562   1.772   2.180  0.6096 -0.3218 -0.3232
   46MOL   C25925549   2.553   1.833   2.317 -0.1119 -0.0455  0.4317
   46MOL   N26025550   2.439   1.908   2.344  0.0839 -0.5929  0.2322
   46MOL   C26125551   2.315   1.911   2.275 -0.1682 -0.7138 -0.1814
   46MOL   C26225552   2.196   1.882   2.347  0.3151 -0.1939  0.3446
   46MOL   C26325553   2.075   1.848   2.286 -0.0865 -0.5158 -0.0506
   46MOL   C26425554   2.067   1.857   2.142  0.0831 -0.8384 -0.5526
   46MOL   N26525555   1.949   1.821   2.075 -0.5833 -0.1474 -0.4915
   46MOL   C26625556   2.182   1.901   2.068 -0.1390  0.3988 -0.1355
   46MOL   C26725557   2.303   1.930   2.136  0.3869  0.1155 -0.3036
   46MOL   O26825558   2.645   1.833   2.395  0.3569  0.3486  0.0509
   46MOL   C26925559   2.486   1.664   2.141  0.2955 -0.4539  0.1583
   46MOL   C27025560   2.497   1.619   2.009  0.9271  1.0167 -0.0593
   46MOL   O27125561   2.687   1.679   1.700 -0.0007  0.1077 -0.3758
   46MOL   H27225562   2.746   1.820   1.892  0.1340 -1.6635 -1.4772
   46MOL   H27325563   2.724   1.909   2.111  1.6952 -0.9038 -2.9340
   46MOL   H27425564   2.453   1.957   2.431  1.3248 -1.8974  0.7986
   46MOL   H27525565   2.207   1.869   2.454  1.2587 -2.7375 -0.0118
   46MOL   H27625566   1.994   1.832   2.355  0.7143 -3.3880  0.2640
   46MOL   H27725567   1.964   1.786   1.982  3.1040 -0.8245  0.2795
   46MOL   H27825568   2.176   1.925   1.963 -0.5516 -0.1737 -0.2517
   46MOL   H27925569   2.389   1.959   2.076  1.4561 -0.0974  1.1066
   46MOL   H28025570   2.418   1.616   2.210 -0.9774  0.8580 -0.1671
   46MOL   H28125571   2.427   1.540   1.986 -1.4056  2.7667  0.8813
   46MOL   C28225572   1.823   1.819   2.116  0.0567 -0.8674  0.0867
   46MOL   C28325573   1.734   1.740   2.023 -0.5262 -0.0562  0.2323
   46MOL   C28425574   1.592   1.736   2.041  1.1384 -0.3069 -0.0180
   46MOL   C28525575   1.514   1.658   1.961  0.1953  0.1207  0.4251
   46MOL   C28625576   1.571   1.587   1.851  0.2115  0.4747 -0.5025
   46MOL   C28725577   1.481   1.489   1.777 -0.0854  0.0032  0.3517
   46MOL   N28825578   1.492   1.495   1.644  0.2399  0.6909  0.3980
   46MOL   C28925579   1.429   1.416   1.548 -0.8220  0.1316 -0.4984
   46MOL   C29025580   1.493   1.391   1.426 -0.3167  0.1654  0.3353
   46MOL   C29125581   1.429   1.315   1.327 -0.1494 -0.1659 -0.9732
   46MOL   C29225582   1.297   1.281   1.341  0.3197 -0.0376 -0.5520
   46MOL   N29325583   1.213   1.224   1.245  0.0820  0.3845 -0.0342
   46MOL   C29425584   1.231   1.310   1.465 -0.4269 -0.3717  0.6472
   46MOL   C29525585   1.295   1.376   1.570 -0.4588 -0.5164  0.1122
   46MOL   O29625586   1.398   1.418   1.841 -0.4801  0.3435 -0.1928
   46MOL   C29725587   1.706   1.598   1.820  0.5620 -0.2236 -0.6188
   46MOL   C29825588   1.786   1.664   1.916  0.3182 -0.4186 -0.0110
   46MOL   O29925589   1.783   1.865   2.222 -0.7113 -0.1266 -0.6386
   46MOL   H30025590   1.541   1.782   2.125 -0.0547  1.5932 -1.7443
   46MOL   H30125591   1.407   1.651   1.977  0.1092 -0.0343 -0.1751
   46MOL   H30225592   1.562   1.558   1.606 -1.0172  1.9447  0.1206
   46MOL   H30325593   1.598   1.403   1.402 -0.4715  0.6935 -0.0712
   46MOL   H30425594   1.492   1.292   1.242 -0.0266  1.5541 -1.3627
   46MOL   H30525595   1.129   1.171   1.265  1.0401 -0.7706  0.9877
   46MOL   H30625596   1.125   1.290   1.466 -0.3779 -0.6906 -0.0809
   46MOL   H30725597   1.244   1.393   1.664  1.6098 -0.5699  1.2612
   46MOL   H30825598   1.751   1.528   1.752  3.6705  1.6876 -0.6252
   46MOL   H30925599   1.890   1.658   1.885  0.2528 -2.7839  0.1093
   46MOL   C31025600   1.222   1.224   1.117 -0.8796  0.0480 -0.1020
   46MOL   C31125601   1.095   1.169   1.057  0.2493 -0.3516  0.0382
   46MOL   C31225602   0.976   1.147   1.131 -0.0157  0.3353 -0.2081
   46MOL   C31325603   0.868   1.090   1.066 -0.0502 -0.6592 -0.0210
   46MOL   C31425604   0.870   1.055   0.927 -0.3784  0.3404 -0.6413
   46MOL   C31525605   0.758   0.977   0.861  0.3483 -0.1280 -0.0597
   46MOL   N31625606   0.654   0.962   0.942 -0.3125  0.0742 -0.8788
   46MOL   C31725607   0.535   0.882   0.928 -0.4937 -0.0787 -0.0835
   46MOL   C31825608   0.502   0.804   0.814 -0.0746 -0.0461  0.0517
   46MOL   C31925609   0.380   0.731   0.794 -0.4776  0.1032 -0.3428
   46MOL   C32025610   0.282   0.754   0.900 -0.4149 -0.1132  0.0168
   46MOL   N32125611   0.147   0.714   0.891 -0.2466  0.5147 -0.2022
   46MOL   C32225612   0.315   0.825   1.016  1.1967  0.7086  0.1361
   46MOL   C32325613   0.443   0.890   1.033 -0.5353  0.3364  0.3122
   46MOL   O32425614   0.761   0.931   0.746  0.5825 -1.5905 -0.2949
   46MOL   C32525615   0.991   1.073   0.858 -0.2234  0.3362 -0.2511
   46MOL   C32625616   1.101   1.138   0.920  0.5234 -0.0740 -0.0773
   46MOL   O32725617   1.319   1.262   1.052  0.1365 -0.5785  0.2009
   46MOL   H32825618   0.959   1.182   1.231 -1.0392 -1.3104  0.2038
   46MOL   H32925619   0.777   1.085   1.123  0.8871  2.0429  1.7719
   46MOL   H33025620   0.675   1.002   1.033 -0.7551  0.4497 -0.9368
   46MOL   H33125621   0.564   0.797   0.725  0.5609 -2.4625  0.6593
   46MOL   H33225622   0.358   0.670   0.708  2.4641 -1.9943  0.3342
   46MOL   H33325623   0.085   0.762   0.954 -1.6479  0.1275 -1.2549
   46MOL   H33425624   0.240   0.835   1.093 -1.2216 -0.8179 -1.9417
   46MOL   H33525625   0.461   0.937   1.129 -0.0121 -2.6239  1.7504
   46MOL   H33625626   0.997   1.029   0.760  0.8366  0.3600 -0.2024
   46MOL   H33725627   1.192   1.154   0.864  1.8069 -0.9172  1.7163
   46MOL   C33825628   0.091   0.612   0.819  0.6706 -1.2840 -0.4454
   46MOL   C33925629   8.090   0.609   0.826 -0.4168 -0.3240 -0.6230
   46MOL   C34025630   8.015   0.715   0.883  0.1020 -0.8096 -0.5770
   46MOL   C34125631   7.876   0.698   0.903  0.2875  0.5155 -0.2047
   46MOL   C34225632   7.805   0.584   0.857  0.1717 -0.4359  0.1446
   46MOL   C34325633   7.654   0.577   0.878  0.3993 -0.2241 -0.1119
   46MOL   N34425634   7.610   0.651   0.986 -0.0030  0.1211  0.0814
   46MOL   C34525635   7.483   0.670   1.048 -0.4848  0.9172  0.3003
   46MOL   C34625636   7.485   0.715   1.181 -0.1433 -0.1026 -0.4514
   46MOL   C34725637   7.362   0.736   1.245 -0.1191  0.1118  0.4007
   46MOL   C34825638   7.239   0.721   1.179  0.2406 -0.3230 -0.1669
   46MOL   N34925639   7.122   0.751   1.254 -0.7400 -0.6623  0.2665
   46MOL   C35025640   7.240   0.679   1.046  0.3653  0.2264  0.4585
   46MOL   C35125641   7.362   0.652   0.981 -0.2160 -0.4614  0.0324
   46MOL   O35225642   7.585   0.502   0.812  0.5244  0.6827 -0.5026
   46MOL   C35325643   7.884   0.481   0.790  0.9981 -0.5311  0.7088
   46MOL   C35425644   8.025   0.492   0.776  0.2196 -0.0687  0.0411
   46MOL   O35525645   0.151   0.526   0.754  0.2994 -0.0323 -0.4582
   46MOL   H35625646   8.055   0.811   0.912  0.0822 -0.3357 -2.1221
   46MOL   H35725647   7.833   0.792   0.934  2.3978  2.5923 -3.2549
   46MOL   H35825648   7.689   0.694   1.033  0.9283 -0.6241 -0.7655
   46MOL   H35925649   7.578   0.729   1.234 -0.0360  1.1234 -0.9424
   46MOL   H36025650   7.360   0.768   1.348  0.9551 -0.2348  0.5309
   46MOL   H36125651   7.133   0.785   1.348 -0.5491  0.0916 -0.0205
   46MOL   H36225652   7.149   0.669   0.989  1.5797 -2.7369 -1.0976
   46MOL   H36325653   7.358   0.607   0.883 -1.9805 -2.6962  1.0685
   46MOL   H36425654   7.849   0.385   0.753  3.1859 -0.7840 -0.8108
   46MOL   H36525655   8.086   0.425   0.718  1.5025  1.1049  0.0058
   46MOL   C36625656   6.993   0.767   1.210  0.4229 -0.1828 -0.5529
   46MOL   C36725657   6.903   0.791   1.322  0.4102 -0.3120 -0.0789
   46MOL   C36825658   6.937   0.872   1.436  0.1597  0.1990  0.4963
   46MOL   C36925659   6.849   0.888   1.538  0.2047  0.3613  0.5710
   46MOL   C37025660   6.733   0.809   1.543  0.5292 -0.6175 -0.1477
   46MOL   C37125661   6.646   0.821   1.668  0.7145  0.4989 -0.1282
   46MOL   N37225662   6.523   0.869   1.644  0.7791 -1.3521 -0.3843
   46MOL   C37325663   6.416   0.889   1.732  0.0231 -1.0763 -0.2668
   46MOL   C37425664   6.404   0.812   1.845 -0.7319  0.4129 -0.1387
   46MOL   C37525665   6.285   0.819   1.921  0.8230 -0.1497 -0.4264
   46MOL   C37625666   6.177   0.900   1.875 -0.5491 -1.1199  0.3070
   46MOL   N37725667   6.057   0.887   1.943 -0.5794 -0.1575 -0.1173
   46MOL   C37825668   6.188   0.969   1.750  0.3019  0.3746  0.4738
   46MOL   C37925669   6.315   0.970   1.684  0.6922  0.2359  0.1846
   46MOL   O38025670   6.696   0.810   1.782  0.0387 -0.2009 -0.3069
   46MOL   C38125671   6.693   0.725   1.435 -0.2065  0.1250  0.2277
   46MOL   C38225672   6.780   0.712   1.326  0.3262 -0.4542  0.1679
   46MOL   O38325673   6.946   0.757   1.099 -0.0144  0.0228  0.0391
   46MOL   H38425674   7.034   0.919   1.441  1.1041 -1.7498  1.3224
   46MOL   H38525675   6.884   0.956   1.614  0.2822 -0.0464  0.9065
   46MOL   H38625676   6.524   0.917   1.555  0.7500 -0.1376  0.2710
   46MOL   H38725677   6.473   0.735   1.874 -2.5407 -0.8081  1.0555
   46MOL   H38825678   6.260   0.762   2.009  1.8208  0.1842  0.0795
   46MOL   H38925679   6.068   0.847   2.035  1.9960 -1.1362 -0.7996
   46MOL   H39025680   6.108   1.021   1.698  1.0979  0.6410 -0.4950
   46MOL   H39125681   6.315   1.013   1.584 -1.2422  0.0119  0.0556
   46MOL   H39225682   6.603   0.667   1.431  0.0743 -0.2692 -0.3918
   46MOL   H39325683   6.744   0.657   1.240 -0.9413  0.9002 -0.1987
   46MOL   C39425684   5.929   0.900   1.896 -0.7559  0.5133 -0.7151
   46MOL   C39525685   5.821   0.845   1.986  0.3555 -0.0424 -0.3533
   46MOL   C39625686   5.820   0.859   2.125  0.1087 -0.2909 -0.4614
   46MOL   C39725687   5.715   0.809   2.206 -0.5983  0.7027 -0.6603
   46MOL   C39825688   5.604   0.753   2.152  0.2780  0.5332 -0.4610
   46MOL   C39925689   5.495   0.705   2.244 -0.5026 -0.4710 -0.4532
   46MOL   N40025690   5.442   0.585   2.227  0.1553  0.0518  0.4751
   46MOL   C40125691   5.466   0.486   2.127  0.5147  0.0058  0.4811
   46MOL   C40225692   5.590   0.423   2.117 -0.3484 -0.0077  0.1215
   46MOL   C40325693   5.613   0.317   2.026 -0.4848 -0.4852 -0.6525
   46MOL   C40425694   5.508   0.259   1.955 -0.8571  0.1920 -0.2159
   46MOL   N40525695   5.524   0.142   1.872 -0.5011  0.2473 -0.2906
   46MOL   C40625696   5.384   0.319   1.960  0.1574 -0.0319 -0.0588
   46MOL   C40725697   5.362   0.430   2.048 -0.1517  0.8141  0.1869
   46MOL   O40825698   5.463   0.776   2.336 -0.3310  0.0605 -0.1917
   46MOL   C40925699   5.599   0.730   2.012 -0.6048  0.1903  0.3293
   46MOL   C41025700   5.710   0.774   1.932  1.1763 -0.5305 -0.0566
   46MOL   O41125701   5.893   0.963   1.799  0.0231 -0.1833 -0.0396
   46MOL   H41225702   5.895   0.909   2.185 -0.9141  0.6506  0.0600
   46MOL   H41325703   5.728   0.825   2.312 -0.6931 -1.2573 -0.3305
   46MOL   H41425704   5.384   0.551   2.302 -0.9447  0.5505 -0.1339
   46MOL   H41525705   5.669   0.461   2.179 -0.1873  1.1451 -0.7814
   46MOL   H41625706   5.710   0.267   2.024 -0.3780 -0.3217  0.3236
   46MOL   H41725707   5.466   0.129   1.791  1.0849 -0.7854 -1.3021
   46MOL   H41825708   5.300   0.281   1.905 -0.9389  0.3597  1.3270
   46MOL   H41925709   5.259   0.464   2.050 -0.3863  0.1613 -0.4956
   46MOL   H42025710   5.514   0.682   1.966  0.3416 -2.0274  0.8179
   46MOL   H42125711   5.697   0.758   1.826  2.7115  0.9353 -0.5010
   46MOL   C42225712   5.571   0.026   1.920 -0.2266 -0.0109 -0.5055
   46MOL   C42325713   5.520   8.064   1.836  0.3019  0.4023 -0.6740
   46MOL   C42425714   5.608   7.958   1.807 -0.2868  0.4496 -0.9144
   46MOL   C42525715   5.558   7.858   1.723 -0.3716 -0.3493  0.3843
   46MOL   C42625716   5.423   7.854   1.673 -0.6520 -0.2896  0.2773
   46MOL   C42725717   5.375   7.731   1.602  0.1839 -0.0340 -0.3262
   46MOL   N42825718   5.241   7.724   1.589 -0.1075 -0.3453  0.2045
   46MOL   C42925719   5.160   7.610   1.583  0.2074  0.1579  0.0673
   46MOL   C43025720   5.178   7.515   1.479  0.0114  0.0390 -0.1719
   46MOL   C43125721   5.097   7.406   1.470  0.2381 -0.4658  0.4982
   46MOL   C43225722   5.009   7.376   1.577  0.2575 -0.4626  0.2227
   46MOL   N43325723   4.932   7.252   1.564  0.8608 -0.1271  0.9604
   46MOL   C43425724   4.992   7.465   1.691  0.2487  0.8149 -0.0709
   46MOL   C43525725   5.071   7.583   1.688  0.1321  0.1262  0.2930
   46MOL   O43625726   5.456   7.650   1.557  0.3031  0.3264 -0.0807
   46MOL   C43725727   5.336   7.961   1.702  0.5297 -0.5542  0.0922
   46MOL   C43825728   5.389   8.065   1.787 -0.0742 -0.9477  0.4687
   46MOL   O43925729   5.648   0.009   2.012 -0.4689 -0.2647 -0.3842
   46MOL   H44025730   5.711   7.953   1.839 -0.6385 -0.7246  0.0535
   46MOL   H44125731   5.617   7.769   1.714 -0.3108 -0.6085  3.0864
   46MOL   H44225732   5.193   7.805   1.626 -0.4605 -0.3767 -0.1868
   46MOL   H44325733   5.248   7.540   1.400  2.2195 -0.7532  1.4856
   46MOL   H44425734   5.116   7.346   1.383  0.7535  1.9739 -1.1295
   46MOL   H44525735   4.914   7.223   1.469  1.0765 -0.1052  0.9121
   46MOL   H44625736   4.933   7.442   1.778 -0.2589  1.0140 -0.3636
   46MOL   H44725737   5.063   7.648   1.774  0.5160  1.3281 -0.5728
   46MOL   H44825738   5.231   7.958   1.678  0.4233 -0.5218  0.5592
   46MOL   H44925739   5.321   8.140   1.824  1.4324 -0.0346  1.3878
   46MOL   C45025740   4.891   7.169   1.665 -0.2554  0.4477 -0.2749
   46MOL   C45125741   4.814   7.054   1.605 -0.2680 -0.0502 -0.3927
   46MOL   C45225742   4.686   7.023   1.659 -0.1832 -0.5899 -0.3397
   46MOL   C45325743   4.597   6.940   1.588  0.1706 -0.2499  0.4136
   46MOL   C45425744   4.627   6.883   1.465 -0.2481 -0.5730  0.5383
   46MOL   C45525745   4.518   6.812   1.384  0.3880 -0.6583  1.4447
   46MOL   N45625746   4.562   6.760   1.272 -0.0004  0.2147  0.5954
   46MOL   C45725747   4.506   6.685   1.168  0.4105 -0.4906  0.7088
   46MOL   C45825748   4.592   6.633   1.071  0.1982  0.5175  0.2381
   46MOL   C45925749   4.535   6.565   0.961  0.1797 -0.5881  0.2123
   46MOL   C46025750   4.398   6.547   0.947  0.1424 -0.3046 -0.0241
   46MOL   N46125751   4.354   6.473   0.829  0.0686  0.1729 -0.4841
   46MOL   C46225752   4.313   6.601   1.043  0.0109 -0.2361 -0.4043
   46MOL   C46325753   4.368   6.671   1.150  0.1894  0.1599  0.1425
   46MOL   O46425754   4.396   6.819   1.402  0.6332  0.4652 -0.4968
   46MOL   C46525755   4.762   6.899   1.424 -0.3335  0.1865 -0.5024
   46MOL   C46625756   4.857   6.982   1.495  0.2584  0.0986  1.0062
   46MOL   O46725757   4.917   7.174   1.787  0.0455 -0.5853 -0.3634
   46MOL   H46825758   4.647   7.076   1.745  0.4481 -0.5992 -0.0433
   46MOL   H46925759   4.492   6.939   1.617  0.2198 -1.3931  0.5622
   46MOL   H47025760   4.663   6.767   1.274  0.1701 -1.9524  0.7443
   46MOL   H47125761   4.695   6.664   1.074  0.4536 -0.4667  2.1198
   46MOL   H47225762   4.601   6.527   0.884  2.7875 -1.3762  2.7321
   46MOL   H47325763   4.409   6.396   0.792 -0.8732 -0.6053 -0.2899
   46MOL   H47425764   4.206   6.602   1.027  0.0317  1.8911 -0.4859
   46MOL   H47525765   4.296   6.700   1.225 -1.3461  0.1289 -1.2934
   46MOL   H47625766   4.790   6.847   1.334 -0.8340  0.6506 -0.9359
   46MOL   H47725767   4.955   6.995   1.451  1.8196 -1.0936  3.9767
   46MOL   C47825768   4.241   6.491   0.766 -0.2903 -0.4088  0.6220
   46MOL   C47925769   4.237   6.403   0.645 -0.0785  0.3791 -0.2202
   46MOL   C48025770   4.120   6.336   0.613  0.0469 -0.4140 -0.1549
   46MOL   C48125771   4.117   6.252   0.501 -0.0353  0.3915  0.3300
   46MOL   C48225772   4.221   6.244   0.409  0.2169 -0.0733  0.5642
   46MOL   C48325773   4.206   6.169   0.283 -0.3426  0.3345  0.1560
   46MOL   N48425774   4.224   6.239   0.169  0.3018 -0.4902  0.1960
   46MOL   C48525775   4.191   6.206   0.036  0.3694  0.0878 -0.2622
   46MOL   C48625776   4.203   6.072   8.128  0.0967 -0.0162  0.5561
   46MOL   C48725777   4.169   6.045   7.993  0.2556  0.2864  0.1675
   46MOL   C48825778   4.117   6.149   7.917 -0.6514  0.2805  0.5272
   46MOL   N48925779   4.088   6.122   7.780  0.2331  0.6087  0.5003
   46MOL   C49025780   4.107   6.279   7.972  0.1677 -0.5029 -0.7845
   46MOL   C49125781   4.140   6.310   8.104 -0.2148 -0.3410  0.4057
   46MOL   O49225782   4.169   6.051   0.284 -0.1778  0.0007 -0.2186
   46MOL   C49325783   4.341   6.316   0.434  0.3217  0.0936 -0.0661
   46MOL   C49425784   4.345   6.393   0.556  0.2301 -1.0023 -0.7557
   46MOL   O49525785   4.143   6.563   0.800 -0.6210  0.4947  0.0302
   46MOL   H49625786   4.028   6.349   0.669 -0.3329 -0.1722 -0.8188
   46MOL   H49725787   4.033   6.188   0.480  0.2803 -0.3321  1.2404
   46MOL   H49825788   4.246   6.336   0.188 -1.2995 -0.3866  1.7085
   46MOL   H49925789   4.248   5.996   0.045  0.8701 -0.0042  0.0188
   46MOL   H50025790   4.199   5.953   7.945  2.7405  1.0963  0.0495
   46MOL   H50125791   4.114   6.191   7.711  1.2852  1.0230  1.3073
   46MOL   H50225792   4.072   6.355   7.903  2.7983  0.2252 -1.3667
   46MOL   H50325793   4.120   6.408   0.000  0.6781  0.4352 -0.9496
   46MOL   H50425794   4.423   6.306   0.365  0.2211 -0.7820 -0.0682
   46MOL   H50525795   4.434   6.451   0.575 -0.1734 -0.5073 -0.3603
   46MOL   C50625796   3.978   6.055   7.743 -0.4145 -0.3740  0.2219
   46MOL   C50725797   3.937   6.067   7.604 -0.4431 -0.6370 -0.4705
   46MOL   C50825798   3.901   5.951   7.529  0.5787 -0.0308  0.1050
   46MOL   C50925799   3.870   5.949   7.388 -0.4999  0.6813  0.1197
   46MOL   C51025800   3.858   6.074   7.325 -0.2659  0.2548 -0.4927
   46MOL   C51125801   3.829   6.089   7.184  0.0632 -0.5774  0.1051
   46MOL   N51225802   3.743   6.172   7.130  0.6472  0.7149  0.0197
   46MOL   C51325803   3.662   6.280   7.180 -0.1444 -0.2820 -0.3922
   46MOL   C51425804   3.603   6.277   7.308  0.2262  0.4263  0.5443
   46MOL   C51525805   3.553   6.404   7.358  0.1193  0.0494 -0.0902
   46MOL   C51625806   3.534   6.513   7.269 -0.0126 -0.2807  0.5620
   46MOL   N51725807   3.514   6.646   7.314  0.3386 -0.0211 -0.3154
   46MOL   C51825808   3.583   6.506   7.134  0.1306  0.1534 -0.6052
   46MOL   C51925809   3.649   6.389   7.096  0.5326 -0.0844  0.6410
   46MOL   O52025810   3.906   6.035   7.105  0.1114 -0.5215  0.3430
   46MOL   C52125811   3.889   6.188   7.398  0.1981 -0.1651 -0.5707
   46MOL   C52225812   3.930   6.193   7.533 -0.4985  0.4016  0.9445
   46MOL   O52325813   3.920   5.975   7.816 -0.4187 -0.4618 -0.4978
   46MOL   H52425814   3.894   5.853   7.574 -0.3764 -0.6394 -1.3532
   46MOL   H52525815   3.848   5.855   7.341 -1.7727  0.4815  1.0995
   46MOL   H52625816   3.736   6.170   7.029 -2.3141  0.9266  0.1770
   46MOL   H52725817   3.623   6.199   7.380  1.5350  0.7147  0.5148
   46MOL   H52825818   3.528   6.407   7.463 -1.3532  1.7382 -0.4557
   46MOL   H52925819   3.540   6.721   7.251  3.0797 -0.7474 -0.1218
   46MOL   H53025820   3.589   6.587   7.062 -2.7542  0.3039 -0.7238
   46MOL   H53125821   3.682   6.386   6.993  1.3784  0.9079  0.8758
   46MOL   H53225822   3.867   6.278   7.341  0.4141  0.0071 -0.3826
   46MOL   H53325823   3.971   6.283   7.575 -0.6068 -0.2507  2.4558
   46MOL   C53425824   3.470   6.689   7.431  0.3092 -0.1101 -0.0926
   46MOL   C53525825   3.494   6.837   7.461  1.0618 -0.2371  0.0656
   46MOL   C53625826   3.495   6.933   7.360  0.5180  0.1452 -0.5984
   46MOL   C53725827   3.508   7.072   7.388  0.4084  0.1228  0.9543
   46MOL   C53825828   3.515   7.118   7.521  0.4371  0.2271  0.2902
   46MOL   C53925829   3.501   7.264   7.547  0.3984  0.2757  0.5384
   46MOL   N54025830   3.530   7.295   7.673 -0.2092 -0.0102  0.6914
   46MOL   C54125831   3.541   7.418   7.730 -0.3844  0.0011  0.2743
   46MOL   C54225832   3.496   7.436   7.862  0.0523  0.8691 -0.1174
   46MOL   C54325833   3.507   7.559   7.927 -0.1494 -0.2585 -0.5316
   46MOL   C54425834   3.566   7.674   7.867  0.7203  0.1839  0.1391
   46MOL   N54525835   3.595   7.793   7.934 -0.5320  0.0080  0.2915
   46MOL   C54625836   3.603   7.658   7.730  0.4755  0.1269  0.0677
   46MOL   C54725837   3.592   7.532   7.662  0.9586  0.5453 -0.2810
   46MOL   O54825838   3.449   7.344   7.464  0.3609  0.3848 -0.0851
   46MOL   C54925839   3.508   7.022   7.626  0.8740  0.1345  0.6481
   46MOL   C55025840   3.493   6.879   7.596 -1.0467  0.0413  0.5998
   46MOL   O55125841   3.414   6.616   7.517  0.0835  0.6987 -0.0490
   46MOL   H55225842   3.489   6.892   7.260  0.3986 -0.9964 -0.1350
   46MOL   H55325843   3.496   7.141   7.306  1.2213  1.1558  1.6871
   46MOL   H55425844   3.558   7.220   7.735  1.8227 -0.5153 -0.7985
   46MOL   H55525845   3.453   7.347   7.907  1.6261  0.0148 -0.2829
   46MOL   H55625846   3.451   7.563   8.019  0.3516 -2.2956 -0.0981
   46MOL   H55725847   3.619   7.870   7.873  0.4712 -0.8501 -0.4002
   46MOL   H55825848   3.650   7.729   7.663 -1.9331 -1.5273 -3.5234
   46MOL   H55925849   3.623   7.526   7.559 -0.8789  0.9779 -0.8912
   46MOL   H56025850   3.505   7.058   7.727  3.4682 -0.2089  0.8981
   46MOL   H56125851   3.481   6.810   7.678 -1.3521 -0.9340 -0.2607
   46MOL   H56225852   3.516   7.822   7.990  0.3428  0.3255  1.3822
   47MOL     C125853   0.230   1.282   1.673 -0.6806 -1.0807  0.0075
   47MOL     C225854   0.157   1.393   1.732 -0.1470 -0.0237  0.2751
   47MOL     C325855   0.101   1.370   1.862  0.3590 -0.4584  0.0302
   47MOL     C425856   0.037   1.472   1.937  1.0715  0.0425 -0.6986
   47MOL     C525857   0.011   1.598   1.874 -0.5805  0.1498 -0.4519
   47MOL     C625858   8.076   1.705   1.945  0.4428 -0.1075  0.0467
   47MOL     N725859   7.980   1.657   2.025  0.2187 -0.2544 -0.9876
   47MOL     C825860   7.888   1.721   2.105 -0.2266  0.4817  0.5399
   47MOL     C925861   7.811   1.638   2.185 -0.2276  0.2877 -0.2895
   47MOL    C1025862   7.724   1.692   2.287  0.1469  0.3154  0.4970
   47MOL    C1125863   7.702   1.834   2.302 -0.4679  0.1380  0.4880
   47MOL    N1225864   7.610   1.896   2.392  0.6121  0.3124 -0.1958
   47MOL    C1325865   7.780   1.915   2.216  0.0925  0.1621 -0.8814
   47MOL    C1425866   7.870   1.859   2.121 -0.0752 -0.7506 -0.1563
   47MOL    O1525867   8.098   1.825   1.923 -0.1709  0.0586 -0.6898
   47MOL    C1625868   0.067   1.622   1.745  0.4399  0.2489  0.1163
   47MOL    C1725869   0.138   1.518   1.670  0.5007  0.2472 -0.1278
   47MOL    O1825870   0.303   1.307   1.576 -0.0616  0.1331 -0.5451
   47MOL    H1925871   0.126   1.278   1.912  0.1062  0.3093  1.5949
   47MOL    H2025872   8.144   1.464   2.037 -1.4484  0.0785 -1.6499
   47MOL    H2125873   7.967   1.556   2.024  0.3566 -0.3028  0.6827
   47MOL    H2225874   7.813   1.531   2.178  0.8454  0.3656 -1.3815
   47MOL    H2325875   7.687   1.621   2.360  0.8448 -0.2075  0.3439
   47MOL    H2425876   7.601   1.996   2.389 -0.8325  0.2566  1.1307
   47MOL    H2525877   7.768   2.022   2.225 -0.5988 -0.0313  0.6494
   47MOL    H2625878   7.920   1.927   2.053 -0.8016  1.4843  1.4598
   47MOL    H2725879   0.060   1.717   1.695 -1.4342  0.6107  1.0303
   47MOL    H2825880   0.179   1.543   1.574  2.2334  0.3901  0.6305
   47MOL    H2925881   0.227   1.186   1.725 -2.5277 -1.7678 -1.3126
   47MOL    C3025882   7.518   1.829   2.466 -0.1114 -0.1724  0.1053
   47MOL    C3125883   7.427   1.921   2.547 -0.0096  0.2017  0.2967
   47MOL    C3225884   7.401   1.898   2.681 -0.2707 -0.3431 -0.2412
   47MOL    C3325885   7.315   1.980   2.758  0.1388 -0.2038  0.1383
   47MOL    C3425886   7.254   2.087   2.691 -0.5455  0.1154  0.2116
   47MOL    C3525887   7.158   2.174   2.767 -0.0187  0.1182 -0.0775
   47MOL    N3625888   7.203   2.204   2.889  0.1416 -0.1789  0.2152
   47MOL    C3725889   7.141   2.272   2.994  0.3317 -0.3208 -0.2210
   47MOL    C3825890   7.219   2.264   3.113 -0.1992 -0.0313 -0.7164
   47MOL    C3925891   7.172   2.321   3.232  0.3231  0.1158  0.0742
   47MOL    C4025892   7.042   2.379   3.228  0.6632  0.8478  0.3099
   47MOL    N4125893   6.991   2.434   3.351  0.1673 -1.1277  0.3655
   47MOL    C4225894   6.963   2.389   3.109  0.6403  0.2266 -0.0308
   47MOL    C4325895   7.010   2.327   2.990 -0.1914  0.3969  0.2941
   47MOL    O4425896   7.058   2.203   2.710  0.1320 -0.7763  0.0235
   47MOL    C4525897   7.269   2.104   2.549  0.6254  0.2043 -0.5365
   47MOL    C4625898   7.359   2.026   2.481 -0.2055  0.1107 -0.4517
   47MOL    O4725899   7.503   1.709   2.482 -0.1584  0.0103  0.4441
   47MOL    H4825900   7.438   1.810   2.731 -1.7596 -0.9859 -0.2460
   47MOL    H4925901   7.301   1.953   2.861 -1.9378  1.9878  0.4807
   47MOL    H5025902   7.299   2.175   2.902  1.4435  2.8147 -2.0698
   47MOL    H5125903   7.323   2.234   3.114 -0.0997  0.3171 -0.0525
   47MOL    H5225904   7.237   2.317   3.318 -0.1954 -0.9653  0.4258
   47MOL    H5325905   6.933   2.515   3.344  0.8011 -0.7196 -0.2522
   47MOL    H5425906   6.868   2.439   3.116  0.7459  0.2063  1.7852
   47MOL    H5525907   6.937   2.323   2.911  0.0072  0.9523  0.0804
   47MOL    H5625908   7.225   2.187   2.496  0.9082  0.1815 -0.8071
   47MOL    H5725909   7.381   2.057   2.380  2.3323  1.6444  0.5509
   47MOL    C5825910   6.982   2.375   3.472  0.0908  0.3380  0.1944
   47MOL    C5925911   6.918   2.457   3.577  0.4663  0.0262 -0.2235
   47MOL    C6025912   6.842   2.572   3.533  0.3438 -0.3566  0.3027
   47MOL    C6125913   6.799   2.665   3.631 -0.2408  0.2293 -0.3565
   47MOL    C6225914   6.829   2.644   3.769  0.4621 -0.3384  0.0260
   47MOL    C6325915   6.780   2.726   3.878  0.2595  0.1687  0.4054
   47MOL    N6425916   6.792   2.856   3.856 -0.1421 -0.0519 -0.1507
   47MOL    C6525917   6.757   2.961   3.943  0.1428 -0.9611  0.1256
   47MOL    C6625918   6.679   2.955   4.058  0.1472  0.0587  0.5471
   47MOL    C6725919   6.650   3.069   4.136 -0.3193  0.6053 -0.0970
   47MOL    C6825920   6.700   3.193   4.093  0.1802 -0.1754  0.0241
   47MOL    N6925921   6.677   3.314   4.157 -0.1545  0.0878  0.6337
   47MOL    C7025922   6.781   3.201   3.980 -0.2642 -0.6290  0.1865
   47MOL    C7125923   6.823   3.085   3.915  0.1998 -0.5834  0.2254
   47MOL    O7225924   6.750   2.676   3.986  0.5292  0.0543  0.3055
   47MOL    C7325925   6.908   2.534   3.810  0.5973 -1.0125  0.0608
   47MOL    C7425926   6.954   2.439   3.713  0.6011 -0.0835  0.1665
   47MOL    O7525927   7.026   2.266   3.496 -0.1400  0.0982  0.3554
   47MOL    H7625928   6.807   2.591   3.432  1.5021 -0.0783 -0.0589
   47MOL    H7725929   6.738   2.746   3.592 -0.7619  0.3364  0.6618
   47MOL    H7825930   6.839   2.893   3.775 -0.4044 -1.9914 -1.2124
   47MOL    H7925931   6.626   2.862   4.076 -0.1243 -0.2205 -1.5490
   47MOL    H8025932   6.580   3.072   4.218  1.9327 -0.6264  1.9483
   47MOL    H8125933   6.665   3.396   4.100  5.7964  0.8078  0.1043
   47MOL    H8225934   6.812   3.298   3.946  0.6053 -0.6951  0.7719
   47MOL    H8325935   6.886   3.106   3.830  0.3573 -2.0625 -0.0336
   47MOL    H8425936   6.928   2.517   3.915 -0.7436  1.1779  0.7164
   47MOL    H8525937   7.016   2.360   3.752 -0.6531 -0.1446  2.1181
   47MOL    C8625938   6.647   3.325   4.288 -0.3403 -0.3688  0.0940
   47MOL    C8725939   6.579   3.444   4.339  0.4365 -0.3058  0.1568
   47MOL    C8825940   6.548   3.550   4.253  0.2936 -0.0976  0.3616
   47MOL    C8925941   6.476   3.662   4.308  0.0301 -0.4553  0.3750
   47MOL    C9025942   6.433   3.665   4.443 -0.0487  0.4826  0.2570
   47MOL    C9125943   6.351   3.777   4.497  0.8512  0.1558  0.3105
   47MOL    N9225944   6.340   3.891   4.420 -0.5310 -0.1706  0.2622
   47MOL    C9325945   6.271   4.015   4.437  0.4802 -0.0235 -0.4678
   47MOL    C9425946   6.145   4.015   4.504  0.1460  0.7576  0.4037
   47MOL    C9525947   6.066   4.129   4.511  0.2609  0.4652 -0.4099
   47MOL    C9625948   6.120   4.247   4.454  0.2741  0.5647  0.6399
   47MOL    N9725949   6.039   4.364   4.469 -0.3388  0.1212  0.1774
   47MOL    C9825950   6.249   4.254   4.385 -0.2164  0.4190  0.1880
   47MOL    C9925951   6.322   4.132   4.371  0.5638  0.3934  0.0508
   47MOL   O10025952   6.299   3.770   4.607 -0.6799 -0.2791  0.0035
   47MOL   C10125953   6.469   3.556   4.529 -0.4369  0.2546 -0.0237
   47MOL   C10225954   6.543   3.450   4.481 -0.6172  0.9754 -0.6933
   47MOL   O10325955   6.697   3.252   4.377  0.3736  0.8697  0.5766
   47MOL   H10425956   6.579   3.546   4.150 -1.2555  1.3623 -0.1949
   47MOL   H10525957   6.445   3.740   4.240  2.0067  0.7822  0.8607
   47MOL   H10625958   6.402   3.895   4.341  0.3115 -2.8942  0.7260
   47MOL   H10725959   6.108   3.921   4.543  0.2684  0.1983 -0.7996
   47MOL   H10825960   5.970   4.131   4.561  1.1649 -0.3511  1.4194
   47MOL   H10925961   5.959   4.368   4.407 -0.5543  2.0166  0.5516
   47MOL   H11025962   6.287   4.344   4.341  0.5448 -0.9541 -2.0173
   47MOL   H11125963   6.419   4.125   4.325  0.5888  1.1040 -0.0121
   47MOL   H11225964   6.436   3.559   4.632  1.2957  0.9396  0.5195
   47MOL   H11325965   6.581   3.375   4.549 -0.5790  0.4468 -1.2815
   47MOL   C11425966   6.058   4.467   4.552 -0.1301 -0.4792  0.0682
   47MOL   C11525967   5.945   4.558   4.560 -0.2332 -0.9656 -0.3715
   47MOL   C11625968   5.819   4.511   4.587  0.4168  0.7438 -0.4861
   47MOL   C11725969   5.709   4.591   4.605  0.1852  0.5691  0.1150
   47MOL   C11825970   5.714   4.728   4.603  0.3270 -0.7492  0.2855
   47MOL   C11925971   5.599   4.815   4.637 -0.4284  0.3885 -0.3428
   47MOL   N12025972   5.533   4.789   4.753 -0.0314  0.1425 -0.5141
   47MOL   C12125973   5.570   4.695   4.856  0.1563  0.3314  0.3147
   47MOL   C12225974   5.674   4.725   4.941  0.6329  0.2991  0.3598
   47MOL   C12325975   5.713   4.625   5.034 -0.3406  0.4625 -0.0491
   47MOL   C12425976   5.640   4.505   5.051 -0.0555  0.9471 -0.1150
   47MOL   N12525977   5.683   4.389   5.124 -0.2981 -0.5386 -0.0918
   47MOL   C12625978   5.535   4.481   4.963  0.2240  0.1443  0.0155
   47MOL   C12725979   5.495   4.577   4.867  0.5880  0.2341 -0.1366
   47MOL   O12825980   5.564   4.904   4.558  0.2298  0.0888 -1.1010
   47MOL   C12925981   5.835   4.784   4.560 -0.3102  0.4923  0.5987
   47MOL   C13025982   5.954   4.700   4.537  0.6528  0.0036 -0.1379
   47MOL   O13125983   6.167   4.494   4.612 -0.0931  0.5131 -0.2507
   47MOL   H13225984   5.795   4.410   4.615 -1.1673  1.8259  2.2678
   47MOL   H13325985   5.613   4.545   4.626 -0.1125  1.4040  0.5804
   47MOL   H13425986   5.456   4.852   4.770  0.5584  0.2009  2.2174
   47MOL   H13525987   5.728   4.816   4.920 -0.9006  0.8289 -1.4198
   47MOL   H13625988   5.791   4.646   5.105  0.3095 -1.4093 -0.1839
   47MOL   H13725989   5.652   4.304   5.078 -1.7319  0.7316 -1.5033
   47MOL   H13825990   5.470   4.394   4.962 -1.5292  1.4337 -0.4389
   47MOL   H13925991   5.417   4.561   4.794  0.1525 -0.7726  0.5396
   47MOL   H14025992   5.840   4.892   4.555  1.7738  0.3686 -0.6078
   47MOL   H14125993   6.043   4.752   4.504  0.4009  0.5107 -0.0173
   47MOL   C14225994   5.758   4.385   5.237 -0.1985 -0.7746 -0.6508
   47MOL   C14325995   5.808   4.247   5.268 -0.7467  0.0703 -0.0267
   47MOL   C14425996   5.864   4.211   5.397  0.2381  0.1569  0.3114
   47MOL   C14525997   5.927   4.087   5.421 -0.4820 -0.3778  0.4570
   47MOL   C14625998   5.942   3.988   5.325  0.0423 -0.1709  0.0535
   47MOL   C14725999   6.008   3.859   5.353  0.1033  0.2791  1.1777
   47MOL   N14826000   6.088   3.810   5.252 -0.4236 -0.1719  0.0149
   47MOL   C14926001   6.176   3.696   5.249  0.5280 -0.1937 -0.2852
   47MOL   C15026002   6.217   3.644   5.127 -0.3269  0.4839  0.4235
   47MOL   C15126003   6.281   3.518   5.121  0.4983  0.3363  0.3817
   47MOL   C15226004   6.322   3.450   5.239 -0.9575  0.1610  0.1777
   47MOL   N15326005   6.384   3.322   5.232  0.3492  0.2969  0.4706
   47MOL   C15426006   6.285   3.505   5.357  0.3021 -0.3822 -0.1186
   47MOL   C15526007   6.216   3.632   5.364 -0.3404  0.2498  0.1148
   47MOL   O15626008   5.981   3.798   5.454  0.1228 -0.5150 -0.5594
   47MOL   C15726009   5.899   4.027   5.194 -0.1890 -0.6166 -0.5152
   47MOL   C15826010   5.837   4.150   5.171  0.1897  0.5168 -0.0409
   47MOL   O15926011   5.763   4.482   5.316  0.0019  0.3408  0.0736
   47MOL   H16026012   5.851   4.281   5.478  0.6602 -0.2665  0.7457
   47MOL   H16126013   5.956   4.073   5.524  0.1888  2.0654  0.6283
   47MOL   H16226014   6.114   3.871   5.176 -1.6850 -0.9803 -1.0885
   47MOL   H16326015   6.172   3.686   5.039  0.5910  0.1415 -0.2222
   47MOL   H16426016   6.291   3.473   5.023  1.4003  3.0415 -0.8260
   47MOL   H16526017   6.436   3.307   5.147  1.7618  1.3727  1.1191
   47MOL   H16626018   6.326   3.465   5.449  1.2461 -0.1072 -0.4201
   47MOL   H16726019   6.194   3.677   5.459 -0.3296 -1.2046  0.8208
   47MOL   H16826020   5.913   3.956   5.114  1.3766 -0.4158 -0.4265
   47MOL   H16926021   5.811   4.164   5.067 -0.1248  1.1693  0.1163
   47MOL   C17026022   6.382   3.212   5.316  0.2806  0.1146  0.1718
   47MOL   C17126023   6.451   3.090   5.259  0.2888 -0.0191  0.4272
   47MOL   C17226024   6.547   3.098   5.156  0.5803 -0.2031 -0.1286
   47MOL   C17326025   6.621   2.985   5.116  0.0253  0.1061  0.4281
   47MOL   C17426026   6.585   2.857   5.163 -0.7684  0.3253 -0.0816
   47MOL   C17526027   6.654   2.734   5.122 -0.3427  0.5527 -0.0642
   47MOL   N17626028   6.713   2.740   5.003  0.1491 -0.1662 -0.7798
   47MOL   C17726029   6.787   2.637   4.936  1.0339  0.6293  0.4948
   47MOL   C17826030   6.880   2.551   5.006  0.2800 -0.4783  0.3371
   47MOL   C17926031   6.968   2.462   4.937 -0.2893  0.1053 -0.1313
   47MOL   C18026032   6.958   2.457   4.796  0.5241 -0.0841 -0.2923
   47MOL   N18126033   7.036   2.384   4.706  0.4060  0.3924 -0.1358
   47MOL   C18226034   6.862   2.543   4.728 -0.0296  0.9807 -0.0043
   47MOL   C18326035   6.779   2.636   4.795  0.3139 -0.1316  0.1128
   47MOL   O18426036   6.666   2.641   5.202 -0.2802 -0.3017  0.2353
   47MOL   C18526037   6.488   2.843   5.266 -0.1641  0.3078 -1.0208
   47MOL   C18626038   6.422   2.964   5.307  0.4021  0.1363 -0.2438
   47MOL   O18726039   6.315   3.209   5.418  0.0667 -0.0131 -0.5067
   47MOL   H18826040   6.570   3.197   5.118  0.3195 -0.1576 -0.1676
   47MOL   H18926041   6.703   3.001   5.049  0.5980 -0.7683  0.9121
   47MOL   H19026042   6.684   2.820   4.949  2.8970  2.6500  1.7428
   47MOL   H19126043   6.887   2.544   5.113  0.8838  0.3011  0.3552
   47MOL   H19226044   7.039   2.401   4.991 -0.0706  0.3463 -0.1453
   47MOL   H19326045   6.990   2.372   4.617  2.2140  1.1655 -1.2038
   47MOL   H19426046   6.852   2.540   4.620  1.2640  1.1921 -0.1295
   47MOL   H19526047   6.731   2.713   4.736  0.1518 -0.6173 -0.3963
   47MOL   H19626048   6.461   2.751   5.317  1.2728 -0.9144 -2.4065
   47MOL   H19726049   6.345   2.966   5.383 -1.2052  1.4794 -1.8623
   47MOL   C19826050   7.166   2.345   4.721  0.1302  0.0946 -0.4724
   47MOL   C19926051   7.235   2.268   4.609  0.3461 -0.6073  0.0861
   47MOL   C20026052   7.173   2.241   4.480 -1.0790 -0.1199 -0.5620
   47MOL   C20126053   7.234   2.173   4.381  0.6098  0.5240  0.4290
   47MOL   C20226054   7.364   2.116   4.403  0.6612 -0.0239  0.0952
   47MOL   C20326055   7.434   2.039   4.298 -0.2395 -0.2349 -0.0675
   47MOL   N20426056   7.567   2.045   4.287 -0.6350  0.1391  0.3153
   47MOL   C20526057   7.659   2.020   4.176  0.2636 -0.7578 -0.8182
   47MOL   C20626058   7.782   2.076   4.185 -0.0305  0.2549  0.0484
   47MOL   C20726059   7.875   2.064   4.081  0.6113 -0.0952  1.1850
   47MOL   C20826060   7.847   1.977   3.970 -0.2987 -0.1326  0.2706
   47MOL   N20926061   7.947   1.958   3.875 -0.0632  0.3203  0.0658
   47MOL   C21026062   7.720   1.917   3.955 -0.0897  0.3712  0.4426
   47MOL   C21126063   7.621   1.943   4.057  0.9770 -0.5988  1.0608
   47MOL   O21226064   7.373   1.981   4.216 -0.6690 -0.3511 -0.2361
   47MOL   C21326065   7.430   2.135   4.526  0.2879 -0.4508 -0.0618
   47MOL   C21426066   7.368   2.211   4.628  0.8284 -0.1030 -0.0195
   47MOL   O21526067   7.232   2.368   4.825 -0.4489 -0.3987 -0.6257
   47MOL   H21626068   7.071   2.272   4.466 -1.6621 -0.7696  1.9695
   47MOL   H21726069   7.184   2.174   4.285  0.2749 -1.3709  0.5807
   47MOL   H21826070   7.612   2.101   4.358 -1.4286 -1.3217  1.9931
   47MOL   H21926071   7.803   2.145   4.266  1.0433 -0.7674  0.6631
   47MOL   H22026072   7.973   2.110   4.091  1.0018 -0.8679  0.9930
   47MOL   H22126073   7.967   1.860   3.859 -2.1473 -0.0819 -0.2602
   47MOL   H22226074   7.690   1.862   3.866  0.7955  1.1221 -0.3260
   47MOL   H22326075   7.520   1.907   4.041  0.4244  0.9717  0.8390
   47MOL   H22426076   7.531   2.101   4.539  0.0471 -0.5659  1.7509
   47MOL   H22526077   7.411   2.228   4.725  1.1820 -0.1540 -0.1673
   47MOL   C22626078   7.993   2.039   3.782 -0.4842 -0.4823  0.9698
   47MOL   C22726079   7.926   2.172   3.776  0.3761  0.8692  0.2347
   47MOL   C22826080   8.003   2.278   3.817  0.7224 -0.6790 -0.3604
   47MOL   C22926081   7.973   2.417   3.812 -0.0108  0.3152  0.1991
   47MOL   C23026082   7.841   2.446   3.760 -0.6506 -0.3428  0.4480
   47MOL   C23126083   7.795   2.587   3.744 -0.1180 -0.6251 -0.1539
   47MOL   N23226084   7.739   2.614   3.622 -0.2195 -0.7579 -0.1417
   47MOL   C23326085   7.686   2.739   3.576  0.1021 -0.2680  0.5966
   47MOL   C23426086   7.573   2.735   3.487 -0.7496  0.5422 -0.1614
   47MOL   C23526087   7.527   2.859   3.440 -0.1896  0.0853  0.1478
   47MOL   C23626088   7.559   2.983   3.499  0.3282  0.5488  0.0454
   47MOL   N23726089   7.489   3.107   3.477 -0.2167  0.3729  0.0271
   47MOL   C23826090   7.674   2.992   3.585 -0.3223  0.0023 -0.1899
   47MOL   C23926091   7.733   2.865   3.621  0.4240  0.0943 -0.1797
   47MOL   O24026092   7.795   2.669   3.838  0.4179  0.0797 -0.6010
   47MOL   C24126093   7.754   2.341   3.729  0.1952 -0.0020 -0.1230
   47MOL   C24226094   7.789   2.204   3.741  0.2887  0.0320  1.0440
   47MOL   O24326095   8.079   2.006   3.703  0.3261  0.1371  0.2626
   47MOL   H24426096   8.094   2.263   3.874  0.6122  0.0082  0.0022
   47MOL   H24526097   8.035   2.493   3.856 -1.0710  1.1172  0.3400
   47MOL   H24626098   7.738   2.534   3.561 -0.4458 -1.7072  1.1082
   47MOL   H24726099   7.530   2.643   3.451 -0.6026  0.8810 -1.2176
   47MOL   H24826100   7.448   2.860   3.367  0.6455 -1.5921 -0.8080
   47MOL   H24926101   7.522   3.183   3.535  0.7638 -1.0219  1.3121
   47MOL   H25026102   7.715   3.078   3.634 -0.8865  0.6957 -0.9148
   47MOL   H25126103   7.823   2.868   3.680 -0.0753  1.8861  0.5081
   47MOL   H25226104   7.653   2.367   3.702 -0.1320  0.5856  1.6116
   47MOL   H25326105   7.723   2.126   3.705  4.1459 -2.4653 -0.9909
   47MOL   C25426106   7.406   3.142   3.381 -0.5375  0.3737 -0.1101
   47MOL   C25526107   7.356   3.281   3.374 -0.4325 -0.3424  0.1883
   47MOL   C25626108   7.331   3.351   3.257 -0.8720  0.6345 -0.1913
   47MOL   C25726109   7.279   3.484   3.252  0.1670  0.4019 -0.1553
   47MOL   C25826110   7.255   3.548   3.367 -0.6370 -0.6831 -0.1822
   47MOL   C25926111   7.216   3.698   3.377 -0.2212 -0.1704  0.2062
   47MOL   N26026112   7.171   3.752   3.259  0.2871  0.2001 -0.1472
   47MOL   C26126113   7.108   3.874   3.240  0.0760 -0.0834  0.3932
   47MOL   C26226114   7.019   3.876   3.131 -0.5386  0.7695  0.8166
   47MOL   C26326115   6.945   3.999   3.110 -0.2349 -0.6990  0.9560
   47MOL   C26426116   6.966   4.116   3.187  0.1150 -0.0262 -0.1388
   47MOL   N26526117   6.908   4.242   3.153 -0.1223 -0.2208  0.5358
   47MOL   C26626118   7.055   4.104   3.302 -0.0494  0.1642  0.0103
   47MOL   C26726119   7.118   3.983   3.330 -0.2821  0.3017  0.2658
   47MOL   O26826120   7.211   3.756   3.485 -0.4878  0.2300 -0.4019
   47MOL   C26926121   7.281   3.478   3.490 -0.0661  0.6710 -0.2734
   47MOL   C27026122   7.320   3.344   3.490 -0.3282  0.5663 -0.7269
   47MOL   O27126123   7.377   3.072   3.282 -0.2653  0.0365 -0.0387
   47MOL   H27226124   7.360   3.306   3.163  1.6033 -0.3236  0.9736
   47MOL   H27326125   7.289   3.541   3.161  1.5468 -1.4020 -1.1679
   47MOL   H27426126   7.171   3.697   3.175 -1.4375  0.9194 -0.6440
   47MOL   H27526127   6.998   3.785   3.077  1.2098  0.9339 -0.1747
   47MOL   H27626128   6.878   4.002   3.025  1.3006  1.5447 -0.2276
   47MOL   H27726129   6.958   4.321   3.193  2.3626 -0.8842 -1.1478
   47MOL   H27826130   7.064   4.189   3.367 -2.1125 -0.0086  0.5586
   47MOL   H27926131   7.177   3.979   3.420  0.0815  0.1933  0.0233
   47MOL   H28026132   7.269   3.529   3.584 -0.1545  0.4252 -0.1502
   47MOL   H28126133   7.333   3.294   3.585 -1.1493  4.1023  1.3754
   47MOL   C28226134   6.810   4.265   3.065 -0.5629 -0.8173  0.1710
   47MOL   C28326135   6.785   4.410   3.040 -0.0011  0.2564  0.9591
   47MOL   C28426136   6.839   4.514   3.122 -0.0398 -0.1755 -0.5299
   47MOL   C28526137   6.828   4.652   3.087 -0.1553  0.0517  0.5955
   47MOL   C28626138   6.777   4.683   2.958  0.1178  0.4703 -0.2098
   47MOL   C28726139   6.805   4.816   2.904  0.4461  0.2079  0.7365
   47MOL   N28826140   6.920   4.837   2.840  0.2595  0.3677 -0.0903
   47MOL   C28926141   7.030   4.747   2.838  0.5769  0.3083 -0.2278
   47MOL   C29026142   7.049   4.642   2.746 -0.2922  0.0352  0.3950
   47MOL   C29126143   7.136   4.534   2.771  0.5503  0.3696  0.1891
   47MOL   C29226144   7.230   4.535   2.872 -0.3173 -0.3949 -0.5971
   47MOL   N29326145   7.311   4.425   2.890  0.0022 -0.1426  0.1651
   47MOL   C29426146   7.215   4.642   2.966  0.0499  0.3638  0.3327
   47MOL   C29526147   7.124   4.745   2.948 -0.7024 -0.7941  0.2530
   47MOL   O29626148   6.726   4.908   2.931 -0.7894  0.2200 -0.0711
   47MOL   C29726149   6.717   4.580   2.876  0.2265  0.0825  0.5245
   47MOL   C29826150   6.721   4.446   2.920  0.3466 -0.7189 -0.0232
   47MOL   O29926151   6.738   4.178   3.012  0.0861 -0.2743 -0.2290
   47MOL   H30026152   6.885   4.502   3.218 -0.8774 -4.0034 -0.5495
   47MOL   H30126153   6.878   4.732   3.138 -0.2861 -0.7446  1.9953
   47MOL   H30226154   6.939   4.919   2.785  1.4483 -0.2972 -0.7129
   47MOL   H30326155   6.984   4.628   2.661  2.4050 -1.7276 -1.4547
   47MOL   H30426156   7.124   4.452   2.701 -2.3058  1.8697 -1.2009
   47MOL   H30526157   7.293   4.354   2.820 -0.1564 -0.5661  0.6283
   47MOL   H30626158   7.272   4.639   3.059  0.3843 -0.3404  0.1108
   47MOL   H30726159   7.108   4.825   3.019  1.9731 -0.3801  0.4210
   47MOL   H30826160   6.680   4.604   2.777  3.1264  1.6897 -0.2165
   47MOL   H30926161   6.693   4.371   2.847 -1.0065 -0.2434 -0.0178
   47MOL   C31026162   7.401   4.398   2.985 -0.0439 -0.7490  0.1140
   47MOL   C31126163   7.453   4.257   2.998 -0.5844 -0.5621  0.7371
   47MOL   C31226164   7.587   4.227   3.010  0.0696  0.0656 -0.2602
   47MOL   C31326165   7.625   4.094   3.034  0.4068 -0.0582 -0.1648
   47MOL   C31426166   7.524   3.991   3.036 -0.3782  0.0636 -0.4792
   47MOL   C31526167   7.566   3.851   3.065  0.2772 -0.1962 -0.0443
   47MOL   N31626168   7.682   3.830   3.127 -0.3368 -0.3963 -0.6369
   47MOL   C31726169   7.731   3.710   3.192 -0.6627  0.4351 -0.0208
   47MOL   C31826170   7.850   3.721   3.270  0.2899  0.4948  0.0558
   47MOL   C31926171   7.891   3.616   3.353 -0.1507  0.0754  0.1415
   47MOL   C32026172   7.819   3.499   3.364  0.3991 -0.5666  0.2992
   47MOL   N32126173   7.865   3.404   3.460 -0.0121 -0.2571 -0.4487
   47MOL   C32226174   7.707   3.482   3.282 -0.3046  0.3074 -1.1615
   47MOL   C32326175   7.664   3.586   3.194 -0.3245 -0.4769 -0.1398
   47MOL   O32426176   7.490   3.759   3.037 -0.0947 -0.3054  0.1245
   47MOL   C32526177   7.386   4.020   3.027 -0.5630  0.2329  0.0261
   47MOL   C32626178   7.353   4.156   3.001  0.2165 -1.1730  0.1221
   47MOL   O32726179   7.443   4.482   3.066 -0.0163 -0.6047 -0.0296
   47MOL   H32826180   7.660   4.307   3.015 -2.0076  2.0825 -1.1733
   47MOL   H32926181   7.730   4.070   3.048  0.8406  2.4316  1.0392
   47MOL   H33026182   7.724   3.910   3.173  1.8576 -1.7435 -0.1764
   47MOL   H33126183   7.908   3.812   3.271  0.0718  0.6343  0.2174
   47MOL   H33226184   7.980   3.636   3.411  0.9669 -2.1118 -0.7626
   47MOL   H33326185   7.846   3.427   3.556  1.7351 -2.1091  0.3837
   47MOL   H33426186   7.636   3.404   3.307  0.9057 -0.1879  0.8763
   47MOL   H33526187   7.567   3.569   3.149 -0.3919 -1.6670  0.4104
   47MOL   H33626188   7.313   3.941   3.030 -0.3562  0.0054 -0.7446
   47MOL   H33726189   7.247   4.172   2.984  0.1431 -0.8355  0.8724
   47MOL   C33826190   7.966   3.321   3.441 -0.0148 -0.6147  0.0707
   47MOL   C33926191   8.030   3.273   3.570  0.4556  0.2977 -0.4397
   47MOL   C34026192   8.117   3.354   3.637 -0.2665 -0.1486 -0.0922
   47MOL   C34126193   0.027   3.312   3.758 -0.0960 -0.0383  0.1068
   47MOL   C34226194   8.138   3.191   3.823  0.2837 -0.2019  0.2561
   47MOL   C34326195   0.044   3.156   3.964 -0.1133  0.3075 -1.0454
   47MOL   N34426196   0.069   3.026   3.987  0.4797  0.5449  0.3098
   47MOL   C34526197   0.059   2.972   4.114 -0.0513  0.0949  0.5903
   47MOL   C34626198   0.180   2.967   4.189  0.1766 -0.1100 -0.2889
   47MOL   C34726199   0.177   2.925   4.324  0.4018 -0.6509  0.6259
   47MOL   C34826200   0.056   2.882   4.382 -0.4086 -0.4718  0.2951
   47MOL   N34926201   0.054   2.830   4.515 -0.2656 -0.0064 -0.0265
   47MOL   C35026202   8.091   2.871   4.297  0.1472  0.0257 -0.1814
   47MOL   C35126203   8.086   2.912   4.161 -0.6649  0.0792 -0.4594
   47MOL   O35226204   0.064   3.241   4.050 -0.5634  0.2807 -0.2926
   47MOL   C35326205   8.045   3.113   3.754 -0.1457 -0.1453 -0.6014
   47MOL   C35426206   7.999   3.148   3.626  0.1112 -0.0573  0.1537
   47MOL   O35526207   8.004   3.274   3.332  1.0608  0.1177  0.1339
   47MOL   H35626208   8.146   3.453   3.604  0.4709 -0.5447 -0.6594
   47MOL   H35726209   0.094   3.378   3.812  1.0609 -1.6030  0.6284
   47MOL   H35826210   0.043   2.956   3.919  0.6478 -1.4719  2.2646
   47MOL   H35926211   0.275   2.987   4.142 -0.2872 -0.0712 -1.2256
   47MOL   H36026212   0.269   2.916   4.379  1.3233 -1.4177 -1.0114
   47MOL   H36126213   8.113   2.783   4.539 -0.7764 -0.1831 -2.1137
   47MOL   H36226214   7.997   2.831   4.330 -0.8324  1.5393 -1.1157
   47MOL   H36326215   7.992   2.899   4.108 -0.7915 -1.2512  0.0684
   47MOL   H36426216   8.017   3.015   3.791  2.9189 -1.3958 -1.3785
   47MOL   H36526217   7.932   3.083   3.571  0.9547 -1.7116  1.0502
   47MOL   C36626218   0.106   2.881   4.622  0.0841 -0.7176 -0.1014
   47MOL   C36726219   0.236   2.955   4.608  0.1580 -0.3821  0.1671
   47MOL   C36826220   0.359   2.883   4.595  0.2253  0.5017  0.2124
   47MOL   C36926221   0.480   2.953   4.594  0.5219 -1.2807 -0.2383
   47MOL   C37026222   0.474   3.095   4.609  0.5501 -0.0714 -0.4412
   47MOL   C37126223   0.602   3.173   4.612  0.5962  0.6095 -0.5300
   47MOL   N37226224   0.601   3.290   4.687 -0.2551  0.2139  0.2496
   47MOL   C37326225   0.694   3.398   4.668  0.3532  0.1150 -0.2129
   47MOL   C37426226   0.834   3.372   4.650  0.2851 -0.0465  0.6526
   47MOL   C37526227   0.925   3.478   4.632 -0.3222  0.2415 -0.9371
   47MOL   C37626228   0.889   3.612   4.656 -0.4704 -0.0906 -0.1293
   47MOL   N37726229   0.979   3.722   4.654 -0.7101  0.4224  0.6297
   47MOL   C37826230   0.748   3.639   4.682  0.0849  0.6348  0.3038
   47MOL   C37926231   0.653   3.533   4.684 -0.3674 -0.9406 -0.5533
   47MOL   O38026232   0.702   3.134   4.545 -0.1528 -0.8070 -0.4439
   47MOL   C38126233   0.352   3.164   4.620  0.0367  0.3136  0.3551
   47MOL   C38226234   0.226   3.096   4.619  0.0507  0.1252 -0.2029
   47MOL   O38326235   0.051   2.872   4.730 -0.0042  0.1750  0.3479
   47MOL   H38426236   0.356   2.776   4.582 -1.8557  0.4835  0.6283
   47MOL   H38526237   0.576   2.903   4.589  0.7453 -0.6738 -2.4156
   47MOL   H38626238   0.513   3.301   4.735  0.7878  0.6247  2.1054
   47MOL   H38726239   0.877   3.273   4.649 -0.6996 -0.4821 -1.6988
   47MOL   H38826240   1.029   3.455   4.612  0.1086 -0.2030  1.5418
   47MOL   H38926241   0.928   3.808   4.645 -2.2518 -0.4940  0.2692
   47MOL   H39026242   0.714   3.741   4.695  1.0131  0.8430  1.1504
   47MOL   H39126243   0.548   3.550   4.705  0.2864  0.0353  2.1256
   47MOL   H39226244   0.344   3.271   4.627 -2.8973  0.1660  0.0419
   47MOL   H39326245   0.130   3.145   4.623 -0.7133 -1.1749 -1.9464
   47MOL   C39426246   1.112   3.716   4.674 -0.1287 -0.7694  0.0857
   47MOL   C39526247   1.175   3.855   4.643  0.5703  0.2533 -0.7755
   47MOL   C39626248   1.136   3.972   4.707 -0.0171 -0.1850  0.3955
   47MOL   C39726249   1.209   4.089   4.674  0.3366  0.0142 -0.1610
   47MOL   C39826250   1.311   4.096   4.576 -0.2241 -0.8991 -0.1984
   47MOL   C39926251   1.384   4.230   4.547  0.2209 -0.3754 -0.0137
   47MOL   N40026252   1.483   4.208   4.458 -0.1277  1.0311  0.0205
   47MOL   C40126253   1.541   4.305   4.366 -0.6290  1.0576 -0.1431
   47MOL   C40226254   1.665   4.271   4.300  0.0822 -0.2446 -0.2153
   47MOL   C40326255   1.720   4.344   4.194 -0.7609 -0.4308  0.0391
   47MOL   C40426256   1.649   4.459   4.153  0.5244  0.6042  0.2723
   47MOL   N40526257   1.684   4.544   4.043 -1.1750 -0.0697 -0.1172
   47MOL   C40626258   1.530   4.498   4.216  0.8830 -0.4247  0.5582
   47MOL   C40726259   1.472   4.425   4.319 -0.9395  0.5887 -0.1948
   47MOL   O40826260   1.355   4.341   4.596  0.0634  0.0038  0.1280
   47MOL   C40926261   1.342   3.977   4.507 -0.1451 -0.3681  0.3501
   47MOL   C41026262   1.271   3.854   4.542  0.1073 -0.0272 -0.3324
   47MOL   O41126263   1.176   3.618   4.704  0.1596  0.0992  0.1092
   47MOL   H41226264   1.069   3.976   4.792 -3.1940  0.5742 -2.0724
   47MOL   H41326265   1.173   4.177   4.725  0.0939  0.2054 -0.6532
   47MOL   H41426266   1.501   4.110   4.445 -2.3056  0.3541  1.7203
   47MOL   H41526267   1.709   4.176   4.329 -0.6326 -0.8103 -0.9706
   47MOL   H41626268   1.814   4.323   4.145 -2.1872 -1.8090 -2.1761
   47MOL   H41726269   1.616   4.614   4.019  1.2531  2.3136 -0.2747
   47MOL   H41826270   1.474   4.584   4.183  1.2472 -0.7811 -0.9915
   47MOL   H41926271   1.384   4.463   4.369 -0.2320  1.1257  0.6612
   47MOL   H42026272   1.416   3.975   4.429  0.4333 -0.2018  0.8922
   47MOL   H42126273   1.293   3.763   4.488 -0.6826  0.1441 -0.9417
   47MOL   C42226274   1.772   4.524   3.944 -0.1357 -0.6606  0.2927
   47MOL   C42326275   1.740   4.615   3.822 -0.2263 -0.2792 -0.4945
   47MOL   C42426276   1.610   4.658   3.804  0.6361 -0.3185  0.0726
   47MOL   C42526277   1.566   4.728   3.687 -0.3930  0.2869 -0.3302
   47MOL   C42626278   1.657   4.752   3.581 -0.0930  0.2183 -0.4803
   47MOL   C42726279   1.615   4.822   3.455  0.2387 -0.4053  0.1448
   47MOL   N42826280   1.697   4.814   3.351  0.1755  0.0492  0.0440
   47MOL   C42926281   1.690   4.879   3.226  0.1442 -0.8870  0.6198
   47MOL   C43026282   1.802   4.882   3.135 -0.0053  0.6385 -0.6475
   47MOL   C43126283   1.791   4.934   3.005  0.1882  0.5113  0.1791
   47MOL   C43226284   1.679   5.011   2.971 -0.4497  0.1466 -0.3479
   47MOL   N43326285   1.678   5.061   2.835 -0.1695  0.1257 -0.4619
   47MOL   C43426286   1.569   5.021   3.063 -0.1434  0.1797 -0.5134
   47MOL   C43526287   1.572   4.950   3.181 -0.0991  0.0777 -0.2971
   47MOL   O43626288   1.504   4.878   3.452 -0.0276 -0.1854 -0.7380
   47MOL   C43726289   1.792   4.724   3.609  0.9446  1.1918  0.4600
   47MOL   C43826290   1.832   4.649   3.723 -0.4887 -0.7525 -0.1185
   47MOL   O43926291   1.876   4.453   3.959 -0.1183 -0.4305  0.2974
   47MOL   H44026292   1.528   4.636   3.870  1.2373 -1.2429  0.5325
   47MOL   H44126293   1.464   4.761   3.679 -1.1553 -2.2053 -1.4456
   47MOL   H44226294   1.774   4.749   3.364 -0.3023 -0.1674  1.8707
   47MOL   H44326295   1.887   4.821   3.162 -0.1120  1.5213  1.7609
   47MOL   H44426296   1.874   4.926   2.937 -2.4806 -0.8161 -3.0921
   47MOL   H44526297   1.761   5.039   2.781  1.0366 -3.0862  2.4821
   47MOL   H44626298   1.476   5.069   3.036 -2.2029 -2.9009  0.8470
   47MOL   H44726299   1.484   4.956   3.243  0.0493  1.2997 -0.1926
   47MOL   H44826300   1.863   4.748   3.531 -1.2685  0.3132 -1.8974
   47MOL   H44926301   1.929   4.604   3.738 -0.5844 -0.5865  0.9890
   47MOL   C45026302   1.584   5.127   2.772  0.0009 -0.0100 -0.9687
   47MOL   C45126303   1.616   5.178   2.629  0.1033  0.0000  0.3070
   47MOL   C45226304   1.526   5.158   2.519  0.0442  0.1315  0.4508
   47MOL   C45326305   1.566   5.207   2.391 -0.0353  0.0865  0.3105
   47MOL   C45426306   1.682   5.283   2.369  0.5985  0.9743  0.3519
   47MOL   C45526307   1.704   5.355   2.247 -0.6842 -0.5272 -0.8363
   47MOL   N45626308   1.678   5.288   2.130  0.3636  0.3775  0.5287
   47MOL   C45726309   1.664   5.343   1.995  0.4275 -0.6277 -0.0530
   47MOL   C45826310   1.677   5.254   1.882 -0.8580 -0.1326 -0.4654
   47MOL   C45926311   1.686   5.309   1.751  0.1587  0.2735 -0.0486
   47MOL   C46026312   1.685   5.448   1.731 -0.2582  0.1354 -0.3479
   47MOL   N46126313   1.673   5.505   1.600 -0.0200 -0.4569  0.4245
   47MOL   C46226314   1.654   5.534   1.840 -0.2097 -0.0092  0.2023
   47MOL   C46326315   1.649   5.483   1.974  0.1986 -0.0703  0.3798
   47MOL   O46426316   1.745   5.469   2.255 -0.2598  0.0932 -0.2984
   47MOL   C46526317   1.766   5.301   2.479 -0.6396  0.6454  0.2797
   47MOL   C46626318   1.736   5.241   2.604  0.0810  0.3647  0.3738
   47MOL   O46726319   1.468   5.123   2.804  0.1496  0.2470  0.3134
   47MOL   H46826320   1.429   5.112   2.530 -0.5270  1.2468  0.1729
   47MOL   H46926321   1.496   5.191   2.311 -1.6325  1.0236  1.4981
   47MOL   H47026322   1.647   5.192   2.141  0.4340  0.3167  0.2146
   47MOL   H47126323   1.684   5.148   1.900  1.9521  0.0702 -0.0584
   47MOL   H47226324   1.691   5.234   1.674 -0.6109  1.2564 -1.0563
   47MOL   H47326325   1.603   5.578   1.587  0.9831  0.5401  0.5239
   47MOL   H47426326   1.634   5.639   1.824  0.4510 -0.3571 -3.1085
   47MOL   H47526327   1.642   5.558   2.052  0.0258  0.9123 -0.5779
   47MOL   H47626328   1.859   5.356   2.481  1.6127 -3.0081  0.4433
   47MOL   H47726329   1.801   5.263   2.687  1.9994 -0.0763 -0.9822
   47MOL   C47826330   1.753   5.464   1.497  0.0253 -0.1291 -0.0954
   47MOL   C47926331   1.715   5.528   1.363  0.4432  0.0582 -0.3695
   47MOL   C48026332   1.580   5.571   1.333  0.2964  0.0122  0.3646
   47MOL   C48126333   1.553   5.635   1.214 -0.1251 -0.0416 -0.0360
   47MOL   C48226334   1.648   5.653   1.114 -0.8669 -0.8969  0.0587
   47MOL   C48326335   1.613   5.720   0.984  0.0593 -0.1574  0.0103
   47MOL   N48426336   1.504   5.670   0.922 -0.0884 -0.2327 -0.3241
   47MOL   C48526337   1.464   5.691   0.783 -0.4126  0.0016 -0.3880
   47MOL   C48626338   1.426   5.583   0.706  0.4664 -0.2149  0.4080
   47MOL   C48726339   1.393   5.601   0.570  0.6866 -0.2078 -0.3645
   47MOL   C48826340   1.389   5.731   0.508  0.2908 -0.3295 -0.5061
   47MOL   N48926341   1.374   5.735   0.367  0.5231  0.3537 -0.6301
   47MOL   C49026342   1.411   5.835   0.593 -0.0936  0.0716 -0.1664
   47MOL   C49126343   1.453   5.821   0.728  0.3945  0.1222  0.0896
   47MOL   O49226344   1.685   5.811   0.940 -0.2292 -0.0151  0.0490
   47MOL   C49326345   1.780   5.613   1.144 -0.0272  0.5785  0.6045
   47MOL   C49426346   1.815   5.554   1.266  0.3803 -0.0103  0.5605
   47MOL   O49526347   1.848   5.396   1.508 -0.4127  0.1694  0.4441
   47MOL   H49626348   1.499   5.554   1.402  0.4944 -1.2689  0.2871
   47MOL   H49726349   1.447   5.650   1.200 -0.3918 -1.6844  0.1593
   47MOL   H49826350   1.475   5.582   0.962  0.3427 -0.0594  0.3681
   47MOL   H49926351   1.423   5.483   0.746  1.0252 -0.3095  0.2192
   47MOL   H50026352   1.369   5.512   0.514  0.1645  0.2192 -0.8275
   47MOL   H50126353   1.408   5.652   0.320  2.5903  1.3397 -0.9289
   47MOL   H50226354   1.392   5.931   0.546 -0.2480  0.1012 -0.0420
   47MOL   H50326355   1.483   5.911   0.779 -0.0157 -0.0889  0.7175
   47MOL   H50426356   1.859   5.621   1.071 -0.3650  0.6461  0.2500
   47MOL   H50526357   1.916   5.521   1.285 -0.9289 -2.9534  2.8896
   47MOL   C50626358   1.308   5.827   0.290 -0.2937 -0.0426  0.3519
   47MOL   C50726359   1.280   5.774   0.151  0.2213 -0.7929 -0.2641
   47MOL   C50826360   1.252   5.637   0.124  0.1827 -0.4771 -0.4840
   47MOL   C50926361   1.218   5.602   8.140 -0.2020 -0.2560 -0.2097
   47MOL   C51026362   1.218   5.691   8.031  0.0701  0.2678  0.2493
   47MOL   C51126363   1.190   5.645   7.892  0.5495 -0.1091 -0.4541
   47MOL   N51226364   1.292   5.589   7.827  0.1811 -0.1317  0.6753
   47MOL   C51326365   1.291   5.462   7.762 -0.4782 -0.3265 -0.0331
   47MOL   C51426366   1.177   5.420   7.701  0.4431  0.2190  0.4428
   47MOL   C51526367   1.163   5.294   7.644 -0.3236  0.0963 -0.1069
   47MOL   C51626368   1.267   5.196   7.659  0.5714  0.4743  0.0531
   47MOL   N51726369   1.247   5.056   7.629  0.5522 -0.1474 -0.3377
   47MOL   C51826370   1.385   5.239   7.721 -0.6803  0.2623  0.5076
   47MOL   C51926371   1.394   5.370   7.769 -0.5341 -0.7618 -0.9212
   47MOL   O52026372   1.078   5.659   7.845  0.0115 -0.1172 -0.1046
   47MOL   C52126373   1.259   5.822   8.058 -0.6831  0.4483  0.5728
   47MOL   C52226374   1.275   5.863   0.047  0.2780  0.0071 -0.1477
   47MOL   O52326375   1.258   5.926   0.335 -0.1685  0.0033 -0.0614
   47MOL   H52426376   1.252   5.562   0.202 -3.0415  1.2201  1.2327
   47MOL   H52526377   1.192   5.498   8.125  0.3232 -0.0296 -3.1708
   47MOL   H52626378   1.382   5.610   7.869  0.3081  0.5411  0.0844
   47MOL   H52726379   1.097   5.491   7.688  0.4198  0.2739  0.8765
   47MOL   H52826380   1.070   5.260   7.601 -1.5595  1.7304  1.2037
   47MOL   H52926381   1.334   5.004   7.625 -0.5863 -2.0798 -0.6519
   47MOL   H53026382   1.469   5.177   7.749  0.8712  1.6853 -0.8392
   47MOL   H53126383   1.483   5.380   7.828 -2.3856  0.7081  1.7469
   47MOL   H53226384   1.268   5.890   7.974 -0.1827  1.2079  1.2408
   47MOL   H53326385   1.288   5.967   0.073  0.4235 -0.2577  0.8588
   47MOL   C53426386   1.139   4.993   7.588  0.6130  0.3751  0.8491
   47MOL   C53526387   1.156   4.851   7.543 -0.1752  0.2528  0.2702
   47MOL   C53626388   1.283   4.791   7.527  0.0931 -0.4893  0.0520
   47MOL   C53726389   1.298   4.659   7.475 -0.4923 -0.0916  0.5236
   47MOL   C53826390   1.188   4.586   7.435 -0.2188  0.6061  0.1056
   47MOL   C53926391   1.202   4.441   7.392  0.1658 -0.1048  0.8610
   47MOL   N54026392   1.311   4.406   7.319  0.1886 -0.0551 -0.0414
   47MOL   C54126393   1.346   4.280   7.261  0.3681  0.4143 -0.5266
   47MOL   C54226394   1.279   4.156   7.296  0.3129  0.6086 -0.1390
   47MOL   C54326395   1.329   4.034   7.242  0.3104 -0.3783  0.1720
   47MOL   C54426396   1.429   4.035   7.139 -0.6635  0.8087  0.2970
   47MOL   N54526397   1.476   3.916   7.084 -0.5447 -0.1277  0.4639
   47MOL   C54626398   1.483   4.163   7.100  0.2758 -0.2878  0.0111
   47MOL   C54726399   1.448   4.284   7.166 -0.2406 -0.1389  0.7024
   47MOL   O54826400   1.106   4.373   7.425  0.3405  0.3928 -0.0231
   47MOL   C54926401   1.063   4.646   7.442 -0.2909 -0.1634  0.0845
   47MOL   C55026402   1.048   4.770   7.504 -0.5827 -0.0104  0.2778
   47MOL   O55126403   1.026   5.041   7.598 -0.0231 -0.4937  0.0402
   47MOL   H55226404   1.370   4.848   7.555 -2.0180  0.9247  4.0501
   47MOL   H55326405   1.396   4.614   7.481 -0.3264  0.4685  2.5198
   47MOL   H55426406   1.356   4.490   7.287  1.9711 -0.9766 -0.0499
   47MOL   H55526407   1.197   4.152   7.367 -0.1680 -1.1278 -0.7715
   47MOL   H55626408   1.288   3.937   7.265  2.2503 -1.1282  0.5441
   47MOL   H55726409   1.416   3.836   7.068 -0.4376  0.0776 -1.0382
   47MOL   H55826410   1.562   4.162   7.027 -0.6844 -1.3961 -1.0401
   47MOL   H55926411   1.496   4.378   7.145  1.8356 -1.4051 -0.4173
   47MOL   H56026412   0.970   4.601   7.412 -1.4863 -0.5447  4.0440
   47MOL   H56126413   0.952   4.820   7.512 -0.6380 -0.3387  1.8586
   47MOL   H56226414   1.519   3.938   6.995  2.3892  1.0481  2.1049
   48MOL     C126415   7.683   2.281   3.421 -0.6682 -0.2911  0.1963
   48MOL     C226416   7.676   2.369   3.299 -0.6434 -0.8378  0.4965
   48MOL     C326417   7.787   2.359   3.212  1.0507 -0.8630 -0.4622
   48MOL     C426418   7.793   2.448   3.097  0.0472  0.2530 -0.1069
   48MOL     C526419   7.693   2.546   3.070  0.4182 -0.1536  0.1301
   48MOL     C626420   7.714   2.642   2.954  0.3247  0.4557  0.6037
   48MOL     N726421   7.685   2.760   3.001  0.1312 -0.1235 -0.7869
   48MOL     C826422   7.676   2.882   2.934 -0.9734  0.2826  0.2983
   48MOL     C926423   7.718   2.905   2.804  0.1626 -0.3004 -0.2970
   48MOL    C1026424   7.690   3.030   2.735  0.5422  0.2982 -0.5418
   48MOL    C1126425   7.633   3.134   2.810 -0.2495 -0.1625 -0.1956
   48MOL    N1226426   7.611   3.267   2.764  0.4119 -0.2195 -0.4802
   48MOL    C1326427   7.597   3.115   2.947  0.2212 -0.4709  0.2261
   48MOL    C1426428   7.623   2.992   3.005 -0.3537 -0.1900 -0.5186
   48MOL    O1526429   7.770   2.618   2.847  0.8370  0.3646 -0.1392
   48MOL    C1626430   7.582   2.545   3.154  0.8267 -0.3934 -0.6727
   48MOL    C1726431   7.574   2.461   3.272 -0.2618  0.3353  0.1340
   48MOL    O1826432   7.587   2.235   3.480 -0.5402  0.3487 -0.1928
   48MOL    H1926433   7.870   2.296   3.241 -0.4885 -2.3384  0.8274
   48MOL    H2026434   7.874   2.438   3.027  0.9298 -1.0144  1.0847
   48MOL    H2126435   7.674   2.763   3.101  1.3667 -0.6856 -0.6236
   48MOL    H2226436   7.770   2.826   2.754  0.9365 -0.1025  0.1845
   48MOL    H2326437   7.718   3.040   2.631  1.2576  2.3144 -0.1682
   48MOL    H2426438   7.582   3.330   2.838  1.4308  0.2086 -0.4393
   48MOL    H2526439   7.551   3.199   2.997 -0.0960 -0.0357 -0.7787
   48MOL    H2626440   7.592   2.976   3.107  0.9966  1.3083  0.1434
   48MOL    H2726441   7.499   2.609   3.127  0.6620  0.0129  0.7522
   48MOL    H2826442   7.482   2.460   3.329 -0.6518 -1.6659 -0.5053
   48MOL    H2926443   7.786   2.267   3.454 -0.4416  0.2125 -0.2848
   48MOL    C3026444   7.623   3.308   2.637  0.0226 -0.4485 -0.1166
   48MOL    C3126445   7.611   3.457   2.615  0.8091  0.1728 -1.0344
   48MOL    C3226446   7.635   3.550   2.723  0.4187 -0.8849  0.3627
   48MOL    C3326447   7.607   3.688   2.710 -0.1851 -0.6691  0.1001
   48MOL    C3426448   7.546   3.737   2.591 -0.7656  1.6315  0.0324
   48MOL    C3526449   7.491   3.878   2.585 -0.4209 -0.0747  0.3571
   48MOL    N3626450   7.585   3.974   2.554  0.1475  0.2718 -0.4424
   48MOL    C3726451   7.566   4.112   2.564  0.3305 -0.6024 -0.5404
   48MOL    C3826452   7.442   4.181   2.574 -0.2178 -0.0897 -0.6237
   48MOL    C3926453   7.430   4.317   2.602 -0.1104 -0.7413  0.2403
   48MOL    C4026454   7.549   4.391   2.614  0.3934  0.3256  0.4121
   48MOL    N4126455   7.535   4.529   2.642 -0.0404 -0.2712 -0.6617
   48MOL    C4226456   7.676   4.331   2.590  0.1260  0.8221 -0.0465
   48MOL    C4326457   7.683   4.193   2.566 -0.5940  0.1372  0.1682
   48MOL    O4426458   7.376   3.907   2.616 -0.2819  0.1375  0.5934
   48MOL    C4526459   7.530   3.644   2.483 -0.7894  0.5877  0.3681
   48MOL    C4626460   7.563   3.507   2.493  0.0740 -1.0001 -0.4591
   48MOL    O4726461   7.637   3.235   2.543 -0.3195  0.1947 -0.5329
   48MOL    H4826462   7.665   3.505   2.816 -0.8855 -1.8662  0.3229
   48MOL    H4926463   7.603   3.756   2.793  0.3524 -0.6193  0.0894
   48MOL    H5026464   7.676   3.933   2.540 -0.3914 -0.7257 -1.1206
   48MOL    H5126465   7.347   4.129   2.571 -1.1640  1.3009  2.7039
   48MOL    H5226466   7.329   4.353   2.615  0.1622  1.3920 -2.9501
   48MOL    H5326467   7.444   4.565   2.618  1.1911  0.6254 -4.2255
   48MOL    H5426468   7.773   4.375   2.609  1.7860 -2.9605  0.7145
   48MOL    H5526469   7.782   4.153   2.551 -0.5971  0.4596 -0.7749
   48MOL    H5626470   7.497   3.674   2.384 -0.8933 -0.9399 -0.0757
   48MOL    H5726471   7.534   3.447   2.408 -2.8354 -1.7461  0.9995
   48MOL    C5826472   7.603   4.599   2.735  0.9636  0.5742  0.0717
   48MOL    C5926473   7.537   4.724   2.783  0.0729 -0.2787  0.5463
   48MOL    C6026474   7.466   4.805   2.688 -0.1807  0.5316 -0.4441
   48MOL    C6126475   7.407   4.924   2.731  0.3798 -0.1742 -0.5040
   48MOL    C6226476   7.420   4.972   2.864 -0.7861  0.1136  0.0316
   48MOL    C6326477   7.342   5.096   2.910 -0.4070 -0.4763 -0.3074
   48MOL    N6426478   7.321   5.186   2.809 -0.0103 -0.9958 -0.6449
   48MOL    C6526479   7.254   5.310   2.812  0.0504 -0.1272  0.9317
   48MOL    C6626480   7.209   5.362   2.689  0.0198 -0.1034 -0.0886
   48MOL    C6726481   7.117   5.468   2.691 -0.3848  0.3987  0.0302
   48MOL    C6826482   7.097   5.546   2.805  0.4903  0.6762  0.0010
   48MOL    N6926483   7.014   5.661   2.801 -0.3100  0.2962 -0.0825
   48MOL    C7026484   7.158   5.500   2.920  0.5063 -0.2488 -0.3756
   48MOL    C7126485   7.232   5.379   2.926  0.5611 -0.0338  0.1567
   48MOL    O7226486   7.316   5.114   3.029 -0.3338  0.5593 -0.1138
   48MOL    C7326487   7.490   4.892   2.953 -0.0096 -0.6757  0.2698
   48MOL    C7426488   7.541   4.768   2.917 -0.1563  0.6608  0.0207
   48MOL    O7526489   7.708   4.566   2.782  0.5210 -0.3420 -0.0727
   48MOL    H7626490   7.453   4.768   2.588  0.2546  1.0439 -0.6903
   48MOL    H7726491   7.335   4.968   2.664 -1.5715  0.0468  1.6396
   48MOL    H7826492   7.377   5.168   2.726  0.4162 -0.4590 -0.4771
   48MOL    H7926493   7.219   5.307   2.596  0.8697  0.7423 -0.5113
   48MOL    H8026494   7.068   5.495   2.599  0.1455  1.8315  0.1540
   48MOL    H8126495   6.949   5.676   2.877 -1.2515 -0.9889 -0.6020
   48MOL    H8226496   7.155   5.554   3.014  0.3770 -0.8445 -0.0367
   48MOL    H8326497   7.274   5.352   3.023 -2.7718  0.4012  1.7791
   48MOL    H8426498   7.491   4.930   3.054 -0.0524  1.2736 -0.4497
   48MOL    H8526499   7.595   4.710   2.991  1.2214 -2.7430 -3.5034
   48MOL    C8626500   7.006   5.750   2.702 -0.1172  0.1451  0.3528
   48MOL    C8726501   6.908   5.862   2.721 -0.2949  0.1363  0.5752
   48MOL    C8826502   6.774   5.845   2.673 -0.1043 -0.3618  0.4415
   48MOL    C8926503   6.680   5.951   2.689 -0.4633 -0.0442  0.9608
   48MOL    C9026504   6.719   6.070   2.752  0.2211  0.9902 -0.4615
   48MOL    C9126505   6.631   6.191   2.765 -1.0568  0.1647  0.2982
   48MOL    N9226506   6.500   6.161   2.739 -0.2231 -0.4796  0.1138
   48MOL    C9326507   6.375   6.236   2.751 -0.1459  0.1012  0.1010
   48MOL    C9426508   6.371   6.349   2.834  0.3069 -0.0327 -0.5745
   48MOL    C9526509   6.245   6.412   2.852 -0.3654  0.3036 -0.6517
   48MOL    C9626510   6.127   6.367   2.793 -0.2678  0.0052 -0.4944
   48MOL    N9726511   6.015   6.443   2.827  0.2786 -0.6100  0.3138
   48MOL    C9826512   6.129   6.250   2.712  0.5006  0.1825  0.0159
   48MOL    C9926513   6.254   6.185   2.695  0.0029  0.2931 -0.0886
   48MOL   O10026514   6.674   6.302   2.790  0.3905 -0.0786  0.0318
   48MOL   C10126515   6.854   6.084   2.800  0.1351 -0.3066 -0.1288
   48MOL   C10226516   6.949   5.986   2.780  0.5404 -0.6491  0.2070
   48MOL   O10326517   7.076   5.752   2.603 -0.2241 -0.6116  0.7523
   48MOL   H10426518   6.743   5.757   2.618 -1.2925 -0.8217  1.8354
   48MOL   H10526519   6.581   5.931   2.650  0.4103 -1.2224 -0.6677
   48MOL   H10626520   6.491   6.073   2.690 -0.8936  0.1082 -0.8419
   48MOL   H10726521   6.458   6.399   2.873 -0.7761  1.0187  0.5736
   48MOL   H10826522   6.251   6.506   2.906  0.3908 -0.7192  1.1223
   48MOL   H10926523   6.004   6.524   2.768  0.8400  0.1593  1.2637
   48MOL   H11026524   6.036   6.214   2.671  0.6951 -1.2699  0.8030
   48MOL   H11126525   6.265   6.103   2.625  0.1289  1.0890 -1.0100
   48MOL   H11226526   6.883   6.179   2.843  0.2987 -1.1728  1.7115
   48MOL   H11326527   7.049   5.993   2.819 -0.1437 -1.2339  2.1353
   48MOL   C11426528   5.921   6.403   2.907  1.1499  0.8067 -0.4659
   48MOL   C11526529   5.950   6.275   2.975  0.3813 -0.1492 -0.2182
   48MOL   C11626530   5.899   6.157   2.921 -0.7010 -0.3654  0.6254
   48MOL   C11726531   5.921   6.030   2.983 -0.1579 -0.2889  0.4847
   48MOL   C11826532   5.985   6.030   3.112  0.7325  0.0553  0.0228
   48MOL   C11926533   5.990   5.899   3.185  0.6103 -0.2118  0.8487
   48MOL   N12026534   6.103   5.881   3.246 -0.0755 -0.9175  0.2355
   48MOL   C12126535   6.159   5.770   3.312  1.5957 -0.5271 -0.5838
   48MOL   C12226536   6.240   5.803   3.421 -0.6069 -0.0956 -1.1353
   48MOL   C12326537   6.291   5.703   3.507 -0.6542  0.8395  0.0744
   48MOL   C12426538   6.275   5.565   3.468 -0.5305  0.0317  0.0557
   48MOL   N12526539   6.324   5.464   3.551  0.5230 -0.0056 -0.0591
   48MOL   C12626540   6.199   5.538   3.351 -0.3361  0.3777 -0.1161
   48MOL   C12726541   6.150   5.642   3.269  0.7509  0.0633  0.0609
   48MOL   O12826542   5.889   5.824   3.206  0.1184 -0.3356  0.1091
   48MOL   C12926543   6.029   6.151   3.167  0.7380 -0.5337 -0.3567
   48MOL   C13026544   6.009   6.270   3.097 -0.0723 -0.6489 -0.2620
   48MOL   O13126545   5.804   6.447   2.924 -0.2871 -0.3996 -0.3128
   48MOL   H13226546   5.834   6.165   2.835  0.2776 -0.2896 -0.1134
   48MOL   H13326547   5.890   5.933   2.946 -0.1966  0.2446 -0.9341
   48MOL   H13426548   6.170   5.957   3.241 -0.3786 -0.6926 -0.3942
   48MOL   H13526549   6.254   5.906   3.450  1.3897 -1.1878  2.0721
   48MOL   H13626550   6.344   5.744   3.591 -0.2140 -0.2243  0.3178
   48MOL   H13726551   6.251   5.396   3.570  0.7854 -0.6406 -1.2716
   48MOL   H13826552   6.187   5.443   3.301 -0.1045  1.2954 -1.9714
   48MOL   H13926553   6.099   5.620   3.176  0.1663 -1.6443  0.7624
   48MOL   H14026554   6.065   6.156   3.269 -0.7444  1.1789  0.1078
   48MOL   H14126555   6.029   6.364   3.145  1.8841 -0.8888 -0.5570
   48MOL   C14226556   6.430   5.461   3.636 -0.0238 -0.1915 -0.0455
   48MOL   C14326557   6.537   5.567   3.610 -0.4313  0.7123 -0.1920
   48MOL   C14426558   6.585   5.599   3.484  0.4336  0.3696 -1.0117
   48MOL   C14526559   6.690   5.697   3.470  0.2732 -0.9220  0.5873
   48MOL   C14626560   6.753   5.756   3.581  0.2080  0.5288  0.0452
   48MOL   C14726561   6.860   5.862   3.573 -0.5356  0.3605 -0.1372
   48MOL   N14826562   6.819   5.982   3.544 -0.1308 -0.4003  0.3112
   48MOL   C14926563   6.894   6.101   3.517  0.1234 -0.0024 -0.1864
   48MOL   C15026564   6.821   6.221   3.523  0.7110  1.1560  0.9643
   48MOL   C15126565   6.890   6.341   3.529  0.1701  0.5467 -0.5478
   48MOL   C15226566   7.027   6.351   3.514 -0.1531 -0.4555 -0.1385
   48MOL   N15326567   7.083   6.485   3.527 -0.4685 -1.0928 -0.0448
   48MOL   C15426568   7.097   6.232   3.495 -0.7377  0.1081 -0.5080
   48MOL   C15526569   7.034   6.109   3.509  0.1858 -0.0947 -0.0073
   48MOL   O15626570   6.982   5.826   3.587  0.0092 -0.5604  0.0315
   48MOL   C15726571   6.707   5.710   3.705 -0.9561  0.2062  0.3874
   48MOL   C15826572   6.594   5.633   3.721  0.1748 -0.0198  0.2403
   48MOL   O15926573   6.446   5.378   3.729  0.9436  0.1798 -0.6764
   48MOL   H16026574   6.541   5.554   3.396 -0.4602 -0.8671  0.0405
   48MOL   H16126575   6.713   5.732   3.371 -0.9240  0.6242  0.8237
   48MOL   H16226576   6.720   5.999   3.536  0.3332  1.6101 -1.7102
   48MOL   H16326577   6.713   6.221   3.528  0.4750 -1.7428 -1.9807
   48MOL   H16426578   6.828   6.428   3.545  1.9619  1.8315 -0.5131
   48MOL   H16526579   7.021   6.550   3.571  0.2874 -0.5463  0.2223
   48MOL   H16626580   7.204   6.238   3.488 -0.6500 -1.5680 -0.8219
   48MOL   H16726581   7.091   6.018   3.515  0.5393  0.1041 -0.3295
   48MOL   H16826582   6.754   5.742   3.796 -0.3926 -0.5168  0.3541
   48MOL   H16926583   6.552   5.608   3.817 -1.1636  1.1910 -0.0012
   48MOL   C17026584   7.209   6.525   3.500 -0.6840  0.5069 -0.1809
   48MOL   C17126585   7.241   6.667   3.541 -0.0151 -0.2928  0.0696
   48MOL   C17226586   7.376   6.704   3.557  0.4106 -0.7909 -0.0754
   48MOL   C17326587   7.412   6.838   3.567 -0.0292  0.4110 -0.2554
   48MOL   C17426588   7.324   6.947   3.569 -0.0224 -0.1568  0.3188
   48MOL   C17526589   7.366   7.091   3.576 -0.0722  1.0906 -0.3387
   48MOL   N17626590   7.490   7.123   3.545  0.3699 -0.2455  0.1909
   48MOL   C17726591   7.552   7.253   3.543 -0.2062 -0.3720 -0.0415
   48MOL   C17826592   7.690   7.270   3.568  1.2982 -1.2997 -0.3094
   48MOL   C17926593   7.747   7.398   3.560  0.1586  0.1228 -0.6935
   48MOL   C18026594   7.667   7.512   3.537  0.4760  0.1130 -0.2201
   48MOL   N18126595   7.721   7.642   3.514  0.3491  0.4259 -0.6901
   48MOL   C18226596   7.529   7.497   3.513  0.0945 -0.8196 -0.4343
   48MOL   C18326597   7.470   7.368   3.508  0.4825 -0.3090 -0.2907
   48MOL   O18426598   7.290   7.176   3.620  0.7220  0.5033 -0.4802
   48MOL   C18526599   7.193   6.908   3.574 -0.4810  0.9799 -0.0041
   48MOL   C18626600   7.146   6.773   3.558 -0.0041 -0.1481 -0.4886
   48MOL   O18726601   7.301   6.454   3.464  0.3109  0.4440 -0.6282
   48MOL   H18826602   7.454   6.635   3.529  1.0061  0.1875 -0.8201
   48MOL   H18926603   7.515   6.867   3.551 -0.4654  1.8653 -0.5100
   48MOL   H19026604   7.543   7.041   3.518  1.1055  0.6619 -1.1865
   48MOL   H19126605   7.751   7.183   3.590  1.8669 -0.5644  1.0766
   48MOL   H19226606   7.854   7.409   3.572  0.0494  0.0793  0.3724
   48MOL   H19326607   7.652   7.716   3.516  1.8819  1.9423 -2.4067
   48MOL   H19426608   7.472   7.586   3.488  0.9439  0.1951  1.1276
   48MOL   H19526609   7.362   7.366   3.494  0.4964  1.3632 -0.7618
   48MOL   H19626610   7.119   6.987   3.573 -3.3988 -1.7047 -0.6755
   48MOL   H19726611   7.040   6.754   3.544 -0.1090 -0.8986  1.1502
   48MOL   C19826612   7.842   7.706   3.509 -0.7484  1.6576 -0.4716
   48MOL   C19926613   7.967   7.628   3.467  0.0841  0.3314  0.5072
   48MOL   C20026614   8.075   7.647   3.559  0.2031 -0.2921  0.7566
   48MOL   C20126615   0.058   7.595   3.529  0.1284  0.3877  0.3035
   48MOL   C20226616   0.071   7.490   3.431 -0.1190 -0.3163  0.0540
   48MOL   C20326617   0.194   7.402   3.409 -0.1162 -1.2759 -0.9542
   48MOL   N20426618   0.186   7.267   3.408  0.4248 -0.2734 -0.4706
   48MOL   C20526619   0.081   7.176   3.430  0.9609 -0.1224 -0.0252
   48MOL   C20626620   8.140   7.187   3.545 -0.9691 -0.3819  0.0708
   48MOL   C20726621   8.048   7.080   3.570 -0.2552 -0.3270  0.1962
   48MOL   C20826622   8.052   6.957   3.498  0.0193 -0.0748  0.5697
   48MOL   N20926623   7.974   6.843   3.535 -0.1198 -0.1337 -0.4340
   48MOL   C21026624   8.139   6.952   3.390  0.8970 -0.1381 -0.1412
   48MOL   C21126625   0.078   7.059   3.352 -0.7866 -0.0669  0.0980
   48MOL   O21226626   0.306   7.448   3.392  0.4994  0.4583  0.2850
   48MOL   C21326627   8.097   7.467   3.342 -0.3343 -0.3844 -0.3031
   48MOL   C21426628   7.981   7.544   3.356 -0.2212  0.7869  0.2689
   48MOL   O21526629   7.856   7.822   3.551 -0.1400  0.1742  0.1524
   48MOL   H21626630   8.064   7.718   3.640  0.7158  1.6429 -0.8385
   48MOL   H21726631   0.142   7.610   3.595  0.1861  0.4398  0.2184
   48MOL   H21826632   0.269   7.225   3.368  0.9233  1.1238 -0.9488
   48MOL   H21926633   0.010   7.267   3.616 -0.6802 -1.9917  1.8701
   48MOL   H22026634   7.995   7.092   3.662  0.1211 -0.1767  0.3956
   48MOL   H22126635   8.016   6.753   3.518  1.9327  0.7816 -0.4703
   48MOL   H22226636   8.128   6.864   3.329 -0.4902 -0.9516  1.2317
   48MOL   H22326637   0.127   7.037   3.258 -0.6257 -3.2329  0.8408
   48MOL   H22426638   8.096   7.395   3.261 -1.1079  0.6390 -1.2011
   48MOL   H22526639   7.891   7.542   3.297 -0.7648 -0.2679  1.1024
   48MOL   C22626640   7.850   6.821   3.578 -0.0375 -0.0222 -0.1261
   48MOL   C22726641   7.798   6.676   3.573 -0.1006  0.1899 -0.4136
   48MOL   C22826642   7.850   6.584   3.476  0.4708 -0.0648  0.2089
   48MOL   C22926643   7.807   6.447   3.485 -0.1765  0.2555  0.6061
   48MOL   C23026644   7.698   6.407   3.562  0.3831 -0.0362 -0.5197
   48MOL   C23126645   7.642   6.269   3.562 -0.1345 -0.4627  0.0892
   48MOL   N23226646   7.512   6.263   3.529  0.1153  0.8463  0.5176
   48MOL   C23326647   7.427   6.163   3.581  0.1380  0.5273 -0.0538
   48MOL   C23426648   7.369   6.194   3.705  0.7189 -0.4404  0.2129
   48MOL   C23526649   7.289   6.096   3.768  0.3375  0.1994  0.4710
   48MOL   C23626650   7.267   5.970   3.715 -0.8679 -0.0273 -0.1636
   48MOL   N23726651   7.190   5.872   3.784  0.1538  0.2705  0.1050
   48MOL   C23826652   7.311   5.949   3.580 -0.7667  0.4289 -0.8833
   48MOL   C23926653   7.391   6.043   3.511 -0.3394  0.8010  0.1081
   48MOL   O24026654   7.713   6.170   3.557  0.0515  0.6215 -0.2555
   48MOL   C24126655   7.648   6.495   3.659  1.1546 -0.0700  0.1686
   48MOL   C24226656   7.699   6.628   3.667  0.1863  0.0034  0.1374
   48MOL   O24326657   7.777   6.912   3.619 -0.6147 -0.2771 -0.2751
   48MOL   H24426658   7.925   6.600   3.399 -0.2410  0.1113 -0.4613
   48MOL   H24526659   7.834   6.374   3.411 -0.3985  1.8091 -1.0390
   48MOL   H24626660   7.466   6.352   3.517  0.1202  0.7471 -0.2990
   48MOL   H24726661   7.390   6.285   3.760 -2.6511  0.4962  0.0479
   48MOL   H24826662   7.259   6.124   3.868  1.6148 -0.3200  1.0043
   48MOL   H24926663   7.131   5.812   3.728  2.8419 -3.4131  1.0489
   48MOL   H25026664   7.282   5.862   3.523 -1.0423  0.3019 -0.5471
   48MOL   H25126665   7.426   6.026   3.410  0.2384 -0.3260  0.4900
   48MOL   H25226666   7.586   6.455   3.737  1.2470  1.4354  1.0445
   48MOL   H25326667   7.658   6.690   3.746  2.1895  0.9869  0.4350
   48MOL   C25426668   7.192   5.835   3.911 -0.9982  0.4939  0.9224
   48MOL   C25526669   7.117   5.710   3.952 -0.0381  0.3371 -1.0659
   48MOL   C25626670   7.124   5.657   4.083  0.3345  0.2241 -0.1860
   48MOL   C25726671   7.051   5.542   4.127  0.0485  0.0350 -0.2797
   48MOL   C25826672   6.967   5.470   4.036  0.2155 -0.5868 -0.3851
   48MOL   C25926673   6.890   5.351   4.084 -0.0204  0.5736  0.4154
   48MOL   N26026674   6.779   5.319   4.011  0.2217  0.5395  0.0674
   48MOL   C26126675   6.733   5.181   4.006 -0.6643 -0.6526  0.0843
   48MOL   C26226676   6.658   5.132   4.116 -0.2755 -0.1844  0.7463
   48MOL   C26326677   6.605   5.001   4.113  0.1525  0.1323 -0.8169
   48MOL   C26426678   6.625   4.914   4.004 -0.2391 -0.0003  0.3605
   48MOL   N26526679   6.564   4.778   3.987  0.2976 -0.8620 -0.0495
   48MOL   C26626680   6.710   4.965   3.901  0.4976  0.3296  0.2346
   48MOL   C26726681   6.763   5.091   3.901 -0.3774  0.1425 -0.3184
   48MOL   O26826682   6.924   5.293   4.185 -0.6238  0.2994  0.2549
   48MOL   C26926683   6.952   5.525   3.904 -0.1509  0.4049 -0.9239
   48MOL   C27026684   7.024   5.641   3.870  0.2010 -0.3241 -0.1915
   48MOL   O27126685   7.245   5.900   4.000 -0.2244  0.4067 -0.3599
   48MOL   H27226686   7.194   5.703   4.151  0.7653 -1.9023  0.8538
   48MOL   H27326687   7.066   5.506   4.227 -1.8131  0.2834  0.1156
   48MOL   H27426688   6.763   5.386   3.936 -0.6350  2.4652  1.9090
   48MOL   H27526689   6.644   5.200   4.199 -0.9334  0.5734  0.0196
   48MOL   H27626690   6.546   4.962   4.195 -1.1576  1.1576 -1.2694
   48MOL   H27726691   6.629   4.707   3.958 -0.8206 -2.0997  0.4345
   48MOL   H27826692   6.738   4.896   3.823  0.7812 -0.1373  0.7424
   48MOL   H27926693   6.831   5.124   3.824  0.4497  1.1484  0.8189
   48MOL   H28026694   6.883   5.482   3.832 -0.6723  0.2175 -0.3107
   48MOL   H28126695   7.004   5.683   3.772 -2.2451 -0.4265  0.2517
   48MOL   C28226696   6.438   4.741   4.023  0.6735 -0.5775 -0.4294
   48MOL   C28326697   6.404   4.592   4.010  0.4456 -0.3002 -0.3520
   48MOL   C28426698   6.301   4.531   4.090 -0.0647  0.1834  0.1010
   48MOL   C28526699   6.266   4.398   4.060  0.7465  0.2557 -0.5647
   48MOL   C28626700   6.331   4.321   3.968 -0.6243  0.9469 -0.1260
   48MOL   C28726701   6.310   4.173   3.954  0.7032  0.5971 -0.4061
   48MOL   N28826702   6.189   4.126   3.992 -0.2753 -0.2381  0.7612
   48MOL   C28926703   6.163   3.986   4.009  0.2663 -0.7862 -0.2498
   48MOL   C29026704   6.218   3.887   3.927 -0.3042  0.0130 -0.3955
   48MOL   C29126705   6.197   3.750   3.957 -0.0208  0.2814 -0.2245
   48MOL   C29226706   6.134   3.717   4.075  0.8623 -0.6825  0.2520
   48MOL   N29326707   6.143   3.580   4.107  0.9001 -0.1366  0.1942
   48MOL   C29426708   6.071   3.816   4.153 -0.4942  0.3292  0.3467
   48MOL   C29526709   6.078   3.949   4.114 -0.1413 -0.3049 -0.0459
   48MOL   O29626710   6.403   4.108   3.906 -0.1014  0.5388 -0.0226
   48MOL   C29726711   6.426   4.382   3.887 -0.2931 -0.0156 -0.0364
   48MOL   C29826712   6.461   4.517   3.903  0.5218 -0.5121 -0.3067
   48MOL   O29926713   6.354   4.823   4.075  0.4248  0.1756  0.2456
   48MOL   H30026714   6.252   4.594   4.163 -0.8212 -0.3616  0.0686
   48MOL   H30126715   6.183   4.362   4.120  0.1556  0.9397 -0.9600
   48MOL   H30226716   6.119   4.190   4.027 -1.1541 -1.6289  1.5885
   48MOL   H30326717   6.275   3.917   3.840 -0.7848  0.1859 -0.6523
   48MOL   H30426718   6.233   3.675   3.888  2.2210 -0.6477  1.8805
   48MOL   H30526719   6.180   3.514   4.039 -0.2063  1.0596 -1.6306
   48MOL   H30626720   6.017   3.783   4.240 -0.4682  0.5480  0.4466
   48MOL   H30726721   6.036   4.021   4.182 -2.6381  0.3713 -2.2088
   48MOL   H30826722   6.474   4.322   3.811  0.3495  0.4866 -0.0334
   48MOL   H30926723   6.537   4.570   3.848  2.5934 -1.6746  1.3893
   48MOL   C31026724   6.104   3.511   4.213 -0.1303  0.0840  0.0659
   48MOL   C31126725   6.143   3.368   4.193 -0.9292  0.0019  0.8701
   48MOL   C31226726   6.053   3.266   4.220  0.1996 -0.1544  0.0761
   48MOL   C31326727   6.085   3.133   4.195  0.7634 -0.1605 -0.4188
   48MOL   C31426728   6.219   3.100   4.164  0.1399  0.5285  0.2647
   48MOL   C31526729   6.261   2.956   4.151  0.0139  0.0870  0.5227
   48MOL   N31626730   6.182   2.879   4.073  0.7050 -0.7321 -0.0880
   48MOL   C31726731   6.187   2.744   4.041 -0.3255  0.1830  0.2238
   48MOL   C31826732   6.076   2.695   3.964 -0.0859 -0.0641  0.0475
   48MOL   C31926733   6.069   2.560   3.932 -0.1684 -0.4707  0.0863
   48MOL   C32026734   6.166   2.470   3.977 -0.0818  0.3314  0.7130
   48MOL   N32126735   6.132   2.327   3.969  0.3098  0.2881  0.0007
   48MOL   C32226736   6.287   2.519   4.038 -0.7470 -0.0393 -0.1580
   48MOL   C32326737   6.295   2.657   4.067  0.0529  0.8575 -0.2222
   48MOL   O32426738   6.361   2.914   4.212  0.8351 -0.1892  0.0778
   48MOL   C32526739   6.312   3.201   4.152 -0.5537 -0.5496 -0.0420
   48MOL   C32626740   6.277   3.340   4.164 -0.9290  0.8262 -0.7044
   48MOL   O32726741   6.035   3.549   4.308 -0.0927  0.1345  0.2321
   48MOL   H32826742   5.953   3.295   4.249 -1.0787 -0.3994 -3.8282
   48MOL   H32926743   6.008   3.058   4.207  0.8162 -0.2687 -0.7512
   48MOL   H33026744   6.104   2.931   4.035 -1.0947 -2.1374  1.6167
   48MOL   H33126745   5.988   2.754   3.945  0.0816 -0.6205 -2.5893
   48MOL   H33226746   5.990   2.533   3.862  1.2649 -1.0283 -1.3452
   48MOL   H33326747   6.137   2.299   3.872  1.4027  0.8681 -0.1117
   48MOL   H33426748   6.356   2.444   4.073 -0.4834  0.4890  0.4689
   48MOL   H33526749   6.387   2.690   4.113 -0.3930  1.4598  0.2381
   48MOL   H33626750   6.410   3.160   4.129 -1.5362 -4.0749  1.7043
   48MOL   H33726751   6.350   3.419   4.153 -1.5597  1.7538  1.5991
   48MOL   C33826752   6.101   2.239   4.071 -0.1389 -0.6118 -0.4652
   48MOL   C33926753   6.075   2.289   4.208  0.0858 -0.4647  0.3760
   48MOL   C34026754   5.991   2.396   4.236 -0.3163  0.2511  0.4049
   48MOL   C34126755   5.959   2.439   4.364 -0.4048 -0.0989 -1.1775
   48MOL   C34226756   6.027   2.379   4.469  0.8033  0.5686  0.2614
   48MOL   C34326757   5.990   2.402   4.609 -0.1418  0.6053  0.7606
   48MOL   N34426758   5.913   2.510   4.631 -0.7543  0.0674  0.1156
   48MOL   C34526759   5.871   2.565   4.758 -0.4990  0.0926 -0.2946
   48MOL   C34626760   5.942   2.539   4.882  0.1674 -0.2334  0.3668
   48MOL   C34726761   5.906   2.609   4.998  0.2546 -0.8449  0.1596
   48MOL   C34826762   5.805   2.709   4.999 -0.3317  0.1677 -0.5926
   48MOL   N34926763   5.777   2.774   5.121  0.3870 -0.0105 -0.4249
   48MOL   C35026764   5.740   2.737   4.880  0.5214 -0.4115 -0.5554
   48MOL   C35126765   5.773   2.667   4.758  0.2705 -0.1191  0.2198
   48MOL   O35226766   6.023   2.317   4.692  0.4514  0.5482  0.5874
   48MOL   C35326767   6.122   2.269   4.442  0.2489 -0.2705 -0.0687
   48MOL   C35426768   6.147   2.227   4.313 -0.1239  0.4452  0.1686
   48MOL   O35526769   6.077   2.125   4.036 -0.3328 -0.1945  0.5198
   48MOL   H35626770   5.938   2.446   4.156 -0.5461  1.3972  1.2676
   48MOL   H35726771   5.871   2.501   4.376 -0.6945 -1.0048  1.7259
   48MOL   H35826772   5.899   2.575   4.554 -0.7246  2.5832  2.1688
   48MOL   H35926773   6.031   2.478   4.882 -1.0825 -2.1029 -0.4546
   48MOL   H36026774   5.952   2.602   5.096  0.5351  3.7031  0.4511
   48MOL   H36126775   5.798   2.724   5.206 -2.4856  0.7621  0.7956
   48MOL   H36226776   5.663   2.813   4.881  0.9715  0.0549  0.8218
   48MOL   H36326777   5.736   2.700   4.662  0.0999  0.1696  0.3833
   48MOL   H36426778   6.177   2.210   4.514  1.1247  0.5467 -0.0669
   48MOL   H36526779   6.211   2.141   4.302 -1.0221 -0.7835  3.8580
   48MOL   C36626780   5.709   2.889   5.147  0.3955 -0.2071 -0.0093
   48MOL   C36726781   5.676   2.917   5.291  0.7516 -0.7698  0.0277
   48MOL   C36826782   5.616   3.043   5.330 -0.4931  0.7855  0.1852
   48MOL   C36926783   5.584   3.073   5.463  0.0413  0.5461  0.1274
   48MOL   C37026784   5.625   2.986   5.562  1.0923 -0.5078  0.0136
   48MOL   C37126785   5.603   3.027   5.704 -0.0146 -0.0787  0.5313
   48MOL   N37226786   5.704   2.992   5.790  0.0772  0.3194  0.4729
   48MOL   C37326787   5.721   2.998   5.934 -0.8848  0.4069  0.7506
   48MOL   C37426788   5.632   3.058   6.029  0.6934  0.2495  0.8616
   48MOL   C37526789   5.667   3.061   6.167  0.6540 -0.6166  0.5079
   48MOL   C37626790   5.789   3.001   6.209  0.1786 -0.0700 -0.1335
   48MOL   N37726791   5.814   2.998   6.344 -0.0833 -0.6869  0.6816
   48MOL   C37826792   5.876   2.940   6.112  0.7021 -0.0566  1.1088
   48MOL   C37926793   5.846   2.954   5.976 -0.5093 -0.8682 -0.0952
   48MOL   O38026794   5.506   3.099   5.738 -0.3950  0.1352  0.0449
   48MOL   C38126795   5.677   2.857   5.528 -0.0496 -0.0811  0.7388
   48MOL   C38226796   5.692   2.825   5.394 -0.3968  0.3247  0.3472
   48MOL   O38326797   5.665   2.961   5.060  0.2401  0.4575 -0.1623
   48MOL   H38426798   5.587   3.113   5.254  1.6775  1.6230  0.1002
   48MOL   H38526799   5.530   3.164   5.484 -1.4794 -0.0307 -1.2229
   48MOL   H38626800   5.780   2.944   5.744 -1.1526 -0.9773 -0.2457
   48MOL   H38726801   5.537   3.097   5.994  0.7577  0.8469  1.3551
   48MOL   H38826802   5.607   3.108   6.243 -0.7835 -1.4298 -0.1037
   48MOL   H38926803   5.733   3.024   6.398  0.2349  2.8377 -0.3568
   48MOL   H39026804   5.962   2.879   6.133  0.6827 -0.1240  0.9920
   48MOL   H39126805   5.922   2.906   5.915 -1.2794 -0.7475 -1.1686
   48MOL   H39226806   5.697   2.785   5.606  0.1021  0.1010  0.8679
   48MOL   H39326807   5.734   2.727   5.376  1.4786  0.5567  3.2185
   48MOL   C39426808   5.919   2.952   6.411  0.0354 -0.2542 -0.6734
   48MOL   C39526809   5.910   2.958   6.560 -0.2446  0.5716 -0.9363
   48MOL   C39626810   5.868   3.074   6.626  0.3395  0.7552 -0.0709
   48MOL   C39726811   5.860   3.078   6.765  0.2253  0.7646 -0.5240
   48MOL   C39826812   5.892   2.962   6.836  0.2809  0.2468  0.1900
   48MOL   C39926813   5.911   2.966   6.984 -0.2663  0.9812 -0.1878
   48MOL   N40026814   5.979   3.073   7.030 -0.0299  0.3034 -0.5555
   48MOL   C40126815   6.041   3.096   7.154 -0.3025 -0.5202 -0.4698
   48MOL   C40226816   6.037   3.008   7.269  0.4945 -0.0711 -0.1228
   48MOL   C40326817   6.097   3.049   7.390  0.2940 -0.4502 -0.0088
   48MOL   C40426818   6.149   3.181   7.397 -0.4776 -0.4214  0.1721
   48MOL   N40526819   6.213   3.234   7.513  0.6228  0.1771  0.8700
   48MOL   C40626820   6.150   3.263   7.287 -0.0976 -0.1768 -0.3154
   48MOL   C40726821   6.101   3.221   7.166  0.1450  0.1967  0.5439
   48MOL   O40826822   5.864   2.873   7.048 -0.1909  0.4709  0.1663
   48MOL   C40926823   5.916   2.838   6.769  0.4132 -0.3750  0.8518
   48MOL   C41026824   5.934   2.837   6.628 -0.2981  0.5712  0.3240
   48MOL   O41126825   6.029   2.923   6.358 -0.0450 -0.3748  0.0208
   48MOL   H41226826   5.843   3.164   6.572 -1.7558 -0.0414 -0.4976
   48MOL   H41326827   5.825   3.167   6.814  0.0303  0.0546  0.6255
   48MOL   H41426828   5.992   3.145   6.960  3.3155  0.0638 -0.2425
   48MOL   H41526829   5.990   2.911   7.262 -0.3436  0.2419  1.0983
   48MOL   H41626830   6.124   2.978   7.466  1.2079 -0.8099 -0.6642
   48MOL   H41726831   6.232   3.332   7.505  1.0103  0.0405  0.0669
   48MOL   H41826832   6.202   3.358   7.295  1.3641 -0.9350 -0.6727
   48MOL   H41926833   6.114   3.289   7.082 -0.4625  0.5747  0.7509
   48MOL   H42026834   5.933   2.743   6.817 -1.4194 -0.9133  0.4754
   48MOL   H42126835   5.961   2.746   6.578 -0.4372  1.1863 -0.8788
   48MOL   C42226836   6.288   3.173   7.605 -0.5827 -0.3451 -0.2411
   48MOL   C42326837   6.354   3.263   7.701 -0.1383 -0.1474 -0.2022
   48MOL   C42426838   6.296   3.382   7.748  0.2996  0.8651  0.5652
   48MOL   C42526839   6.372   3.466   7.833  0.1112 -0.4755 -0.9963
   48MOL   C42626840   6.502   3.439   7.865  0.3019  0.2541  0.4021
   48MOL   C42726841   6.575   3.522   7.963 -0.2464 -0.6983  0.4237
   48MOL   N42826842   6.532   3.645   7.996  0.1115  0.2883 -0.0092
   48MOL   C42926843   6.580   3.733   8.094 -0.3664  0.2554  0.1944
   48MOL   C43026844   6.492   3.780   0.043 -0.0734 -0.4051  0.2176
   48MOL   C43126845   6.534   3.861   0.147  0.1221 -0.2558 -0.0335
   48MOL   C43226846   6.672   3.888   0.159  0.2867  0.1083 -0.2583
   48MOL   N43326847   6.725   3.968   0.264  0.7896 -0.3224  0.1670
   48MOL   C43426848   6.763   3.856   0.059  0.1837  0.8900 -0.2801
   48MOL   C43526849   6.717   3.763   8.106  0.1839 -0.6799 -1.0302
   48MOL   O43626850   6.672   3.471   8.017 -0.4828 -0.1248  0.5385
   48MOL   C43726851   6.557   3.316   7.823  0.5380  0.0993  0.0603
   48MOL   C43826852   6.487   3.231   7.741 -0.4727  0.4231  0.3345
   48MOL   O43926853   6.298   3.054   7.619 -0.5069 -0.3801 -0.7108
   48MOL   H44026854   6.194   3.403   7.719  0.9468  1.3699 -1.3873
   48MOL   H44126855   6.328   3.561   7.859  0.2349 -0.9202  0.9370
   48MOL   H44226856   6.439   3.671   7.968 -0.1726 -0.8318 -0.1266
   48MOL   H44326857   6.389   3.753   0.022  0.0489  0.2278 -1.2669
   48MOL   H44426858   6.466   3.901   0.221  0.0355 -0.8565  0.2172
   48MOL   H44526859   6.773   4.053   0.235 -0.7774  0.6116  0.2735
   48MOL   H44626860   6.867   3.884   0.065  0.7895 -1.1703 -0.7660
   48MOL   H44726861   6.787   3.720   8.036  1.6759 -0.2149  0.1589
   48MOL   H44826862   6.656   3.284   7.851  1.5352  2.6540 -0.4933
   48MOL   H44926863   6.523   3.132   7.720  0.7899  0.6911  1.2008
   48MOL   C45026864   6.698   3.955   0.393  1.1635 -0.3770 -0.2416
   48MOL   C45126865   6.795   4.033   0.477 -0.5397  0.1772 -0.3211
   48MOL   C45226866   6.751   4.091   0.602  0.3347  0.5621 -0.0646
   48MOL   C45326867   6.841   4.166   0.681  0.2093  0.4775 -0.8868
   48MOL   C45426868   6.970   4.194   0.640 -0.4127  0.0480 -0.1116
   48MOL   C45526869   7.056   4.304   0.709  0.2520 -0.7575  0.3392
   48MOL   N45626870   7.187   4.311   0.672 -0.1176  0.3544 -0.0313
   48MOL   C45726871   7.284   4.402   0.706 -0.1854 -0.1648  0.1338
   48MOL   C45826872   7.392   4.421   0.615 -0.0081  0.0413  0.3199
   48MOL   C45926873   7.483   4.524   0.643 -0.2020 -0.1304  0.1703
   48MOL   C46026874   7.488   4.581   0.772 -0.3229 -0.9582  0.4730
   48MOL   N46126875   7.599   4.650   0.803  0.5602  0.2165 -0.8321
   48MOL   C46226876   7.391   4.543   0.868 -0.0117  0.1678  0.8647
   48MOL   C46326877   7.290   4.459   0.833  0.1199 -0.5915  0.0130
   48MOL   O46426878   7.006   4.377   0.796  0.3405 -0.3433 -0.3361
   48MOL   C46526879   7.018   4.130   0.522  0.5851 -0.1816  0.6943
   48MOL   C46626880   6.936   4.045   0.444  0.2625 -0.5877  0.4318
   48MOL   O46726881   6.605   3.896   0.446  0.0622 -0.3246 -0.3436
   48MOL   H46826882   6.651   4.068   0.637  0.3296 -0.6182 -0.8201
   48MOL   H46926883   6.808   4.220   0.768 -1.3183 -3.5887  1.1328
   48MOL   H47026884   7.212   4.251   0.595  1.4772 -0.1186  0.8334
   48MOL   H47126885   7.390   4.372   0.518  2.5010 -1.0015  0.7571
   48MOL   H47226886   7.547   4.558   0.563 -2.4751  1.7372 -0.9100
   48MOL   H47326887   7.675   4.634   0.739  0.6777 -1.5893 -0.2696
   48MOL   H47426888   7.394   4.574   0.972 -1.7543  0.9455  0.6848
   48MOL   H47526889   7.214   4.439   0.907 -0.0859 -0.3835 -0.1430
   48MOL   H47626890   7.121   4.130   0.490  0.1464 -2.6704 -0.9251
   48MOL   H47726891   6.992   3.994   0.366 -1.3087 -0.0062 -1.1023
   48MOL   C47826892   7.615   4.746   0.895  0.6684 -1.4868 -0.0485
   48MOL   C47926893   7.755   4.806   0.894 -0.0590  0.1136 -0.7915
   48MOL   C48026894   7.831   4.811   0.775  0.0994 -0.1327  0.5211
   48MOL   C48126895   7.955   4.871   0.782 -0.1228 -0.7645 -0.4915
   48MOL   C48226896   8.015   4.916   0.900 -0.3727 -0.1195 -0.3735
   48MOL   C48326897   0.011   4.971   0.905 -1.0212 -0.5014  0.6109
   48MOL   N48426898   0.068   4.992   0.787 -0.7719  0.3079  0.3579
   48MOL   C48526899   0.198   5.042   0.747  0.3562  0.1187 -0.2189
   48MOL   C48626900   0.212   5.086   0.617 -0.0795  0.4566  0.7391
   48MOL   C48726901   0.337   5.115   0.562 -0.5738  0.6703  0.4611
   48MOL   C48826902   0.452   5.088   0.639  0.1007 -0.3513  0.5424
   48MOL   N48926903   0.582   5.124   0.580  0.3207  0.3655  0.0345
   48MOL   C49026904   0.440   5.046   0.774  0.9732  0.4862 -0.0159
   48MOL   C49126905   0.313   5.027   0.825 -0.3637  0.6469  0.0102
   48MOL   O49226906   0.069   4.996   1.014 -0.0016  0.2415 -0.4661
   48MOL   C49326907   7.943   4.922   1.020  0.3334  0.4190 -0.3374
   48MOL   C49426908   7.810   4.858   1.014  0.3604 -0.5068  0.2682
   48MOL   O49526909   7.535   4.770   0.986 -0.3346  0.0028 -0.0378
   48MOL   H49626910   7.785   4.782   0.681  1.8298  1.4116 -0.8426
   48MOL   H49726911   8.005   4.870   0.686 -0.0911  1.7197 -0.5269
   48MOL   H49826912   0.008   4.971   0.708  0.6157  0.7599 -0.8328
   48MOL   H49926913   0.133   5.096   0.544  1.3269  0.8246 -0.7547
   48MOL   H50026914   0.339   5.143   0.458 -0.9956 -0.7540  0.0484
   48MOL   H50126915   0.579   5.203   0.517  0.7064 -0.3231 -0.8365
   48MOL   H50226916   0.522   5.019   0.839 -0.5215 -2.7761  0.6141
   48MOL   H50326917   0.303   4.988   0.925  2.6547 -0.9997 -0.2651
   48MOL   H50426918   7.977   4.955   1.117  0.0458 -1.5354  0.4585
   48MOL   H50526919   7.743   4.870   1.099 -0.0846 -1.4605  0.0594
   48MOL   C50626920   0.687   5.045   0.591 -0.7473 -0.1249 -0.5486
   48MOL   C50726921   0.802   5.100   0.507  0.2590  0.8150  0.8900
   48MOL   C50826922   0.790   5.110   0.371  0.4614 -0.1111  0.0474
   48MOL   C50926923   0.898   5.165   0.299 -0.3783 -0.4142  0.2133
   48MOL   C51026924   1.019   5.201   0.361 -0.5010  0.0289 -0.4555
   48MOL   C51126925   1.138   5.260   0.286 -0.8376  1.0137 -0.0304
   48MOL   N51226926   1.165   5.236   0.157 -0.2372 -0.4230  0.2650
   48MOL   C51326927   1.106   5.139   0.071 -0.8445  0.3121  0.3088
   48MOL   C51426928   1.031   5.193   8.111  0.0509 -0.2627  0.6802
   48MOL   C51526929   0.976   5.101   8.017 -0.1517 -0.0009 -0.2940
   48MOL   C51626930   0.994   4.959   8.031 -0.7097 -0.3580 -0.0342
   48MOL   N51726931   0.959   4.871   7.928  0.6040  0.1822 -0.0237
   48MOL   C51826932   1.060   4.907   8.142 -0.3101  0.0179 -0.3006
   48MOL   C51926933   1.113   4.997   0.089 -0.0591 -0.1945  0.0260
   48MOL   O52026934   1.225   5.326   0.344 -0.5711  0.7741 -0.1907
   48MOL   C52126935   1.031   5.190   0.500  0.4145  0.1188  0.4566
   48MOL   C52226936   0.925   5.133   0.566 -0.5471  0.3553 -0.0596
   48MOL   O52326937   0.697   4.946   0.665  0.4994  0.1401  0.4764
   48MOL   H52426938   0.699   5.084   0.321  0.8275 -0.8382 -0.2416
   48MOL   H52526939   0.890   5.200   0.197  2.7006  0.0636  0.1040
   48MOL   H52626940   1.233   5.298   0.115 -0.5985  0.6614  1.2697
   48MOL   H52726941   1.019   5.299   8.093 -1.0458 -0.6208 -0.8363
   48MOL   H52826942   0.922   5.141   7.932  0.5780  0.2993 -0.6199
   48MOL   H52926943   1.029   4.806   7.896 -0.4381 -0.2682 -1.4661
   48MOL   H53026944   1.066   4.799   0.003 -1.2330  0.1451  3.2884
   48MOL   H53126945   1.168   4.964   0.176  0.7022  1.0612  0.0378
   48MOL   H53226946   1.119   5.217   0.556  0.6646  0.5680 -0.1519
   48MOL   H53326947   0.937   5.113   0.671  1.0567  1.0416 -0.0988
   48MOL   C53426948   0.836   4.867   7.878 -0.1596  0.0615 -0.0540
   48MOL   C53526949   0.817   4.751   7.784  0.6139 -0.4101  1.0390
   48MOL   C53626950   0.711   4.759   7.685  0.4105  0.2736  0.8650
   48MOL   C53726951   0.684   4.651   7.600  0.1002  0.0847  0.0342
   48MOL   C53826952   0.762   4.529   7.611 -0.2269 -0.1756 -0.0546
   48MOL   C53926953   0.721   4.408   7.528  0.4079 -0.0302  0.3068
   48MOL   N54026954   0.816   4.336   7.470 -0.0051  0.0947  0.1321
   48MOL   C54126955   0.788   4.237   7.377  0.6426 -0.7770 -0.4999
   48MOL   C54226956   0.689   4.252   7.275 -0.4458 -0.5034 -0.5198
   48MOL   C54326957   0.647   4.143   7.199  0.2727  0.1569  0.6047
   48MOL   C54426958   0.720   4.024   7.204  0.1192 -0.3721  0.1827
   48MOL   N54526959   0.677   3.914   7.122 -0.2542 -0.2180 -0.0136
   48MOL   C54626960   0.827   4.006   7.301  0.4840  0.1136  0.0028
   48MOL   C54726961   0.853   4.113   7.389  0.0408  0.2117 -0.4923
   48MOL   O54826962   0.600   4.387   7.512  0.5315  0.4329  0.3557
   48MOL   C54926963   0.870   4.534   7.704  0.2475 -0.3490  0.7761
   48MOL   C55026964   0.900   4.640   7.787  0.1222 -0.0027  0.2361
   48MOL   O55126965   0.749   4.951   7.905 -0.2155  0.5022  0.7362
   48MOL   H55226966   0.645   4.844   7.694  0.0387  0.1246 -0.4095
   48MOL   H55326967   0.606   4.661   7.526  1.3483  0.7051 -1.1923
   48MOL   H55426968   0.911   4.361   7.493  0.2481 -1.2695  0.5934
   48MOL   H55526969   0.636   4.346   7.276  2.0977  0.9843 -0.6425
   48MOL   H55626970   0.568   4.151   7.126  2.0331  0.6920 -1.2665
   48MOL   H55726971   0.729   3.828   7.106 -0.2395  0.1942 -2.3606
   48MOL   H55826972   0.882   3.915   7.320  1.2556  1.0438  2.4596
   48MOL   H55926973   0.917   4.105   7.476  0.2927  0.1657 -0.6812
   48MOL   H56026974   0.929   4.443   7.703 -0.9465 -1.1339 -0.8531
   48MOL   H56126975   0.986   4.630   7.851  0.2822  2.1248  0.3876
   48MOL   H56226976   0.600   3.928   7.058  1.4112 -0.8862 -2.2655
   49MOL     C126977   1.448   5.134   5.305 -0.4689  0.5157  0.2950
   49MOL     C226978   1.313   5.187   5.256  0.5227 -0.1536 -0.5722
   49MOL     C326979   1.253   5.163   5.134 -0.6256 -0.1972 -0.0052
   49MOL     C426980   1.131   5.225   5.087 -0.4133 -0.2199  0.6011
   49MOL     C526981   1.073   5.322   5.169 -0.9194  0.5452  0.5863
   49MOL     C626982   0.942   5.385   5.129 -0.0800 -0.0188  0.0279
   49MOL     N726983   0.872   5.427   5.233  0.6217 -0.4339 -0.1514
   49MOL     C826984   0.749   5.497   5.240  0.1795  0.0623  0.2325
   49MOL     C926985   0.734   5.609   5.154  0.1034 -0.2226 -0.5904
   49MOL    C1026986   0.640   5.711   5.190 -0.5865 -0.3633  1.0304
   49MOL    C1126987   0.554   5.687   5.305 -0.2377  0.0487 -0.2036
   49MOL    N1226988   0.471   5.793   5.336 -0.6423 -0.1520  0.0575
   49MOL    C1326989   0.563   5.564   5.379  0.8062 -0.3271  0.3290
   49MOL    C1426990   0.666   5.474   5.351  0.3848  0.6467  0.3996
   49MOL    O1526991   0.914   5.408   5.014 -0.1799 -0.2053  0.6635
   49MOL    C1626992   1.137   5.353   5.294  0.5594  0.5125  0.0436
   49MOL    C1726993   1.259   5.291   5.335  0.1600  0.5304  0.1083
   49MOL    O1826994   1.523   5.058   5.251 -0.2370 -0.1859 -0.0689
   49MOL    H1926995   1.299   5.087   5.072  1.1942 -0.0512  1.1213
   49MOL    H2026996   1.081   5.204   4.993 -0.3504 -2.4417  1.0356
   49MOL    H2126997   0.905   5.380   5.316 -1.1818  0.1963  0.9533
   49MOL    H2226998   0.799   5.625   5.069  2.0254 -2.1671  0.4447
   49MOL    H2326999   0.644   5.800   5.131  1.1598 -1.6080 -0.8053
   49MOL    H2427000   0.487   5.868   5.271  1.0247 -1.1180 -0.6868
   49MOL    H2527001   0.510   5.545   5.471 -1.0814 -1.3379 -0.9288
   49MOL    H2627002   0.685   5.392   5.419  0.3383  0.7644  0.5534
   49MOL    H2727003   1.097   5.432   5.355 -0.0210  2.0690 -2.2933
   49MOL    H2827004   1.301   5.319   5.431  0.9336 -0.7041  0.1383
   49MOL    H2927005   1.479   5.175   5.401  0.3733 -0.2786  0.3652
   49MOL    C3027006   0.370   5.800   5.424  0.9034 -0.3343 -0.3746
   49MOL    C3127007   0.316   5.942   5.423  0.0903 -0.4222 -0.5536
   49MOL    C3227008   0.178   5.972   5.420 -0.0119 -0.1809 -0.2381
   49MOL    C3327009   0.126   6.102   5.421  0.4547 -0.6985  0.7437
   49MOL    C3427010   0.219   6.209   5.406  0.3869 -0.3974 -0.3296
   49MOL    C3527011   0.173   6.347   5.406  0.7086  0.1360  0.0317
   49MOL    N3627012   0.063   6.372   5.331 -0.5630  0.7889 -0.4154
   49MOL    C3727013   0.002   6.497   5.315 -0.0839 -0.1452 -0.6211
   49MOL    C3827014   0.038   6.579   5.209 -0.7092 -0.7974  0.9683
   49MOL    C3927015   8.121   6.704   5.194  0.3222  1.0733 -0.4240
   49MOL    C4027016   8.015   6.738   5.277  0.3533  0.2742  0.9938
   49MOL    N4127017   7.957   6.864   5.268  0.0479 -0.1045  0.2672
   49MOL    C4227018   7.980   6.656   5.387 -0.5848 -0.4280 -0.0544
   49MOL    C4327019   8.050   6.533   5.408  0.2513 -0.2441  1.0805
   49MOL    O4427020   0.231   6.436   5.471 -0.2738  0.1770 -0.1301
   49MOL    C4527021   0.354   6.185   5.421 -0.0386  0.7591 -0.2146
   49MOL    C4627022   0.406   6.053   5.433  0.0241  0.0858 -0.7248
   49MOL    O4727023   0.320   5.707   5.493 -0.1556  0.2045  0.0772
   49MOL    H4827024   0.108   5.889   5.428  0.2935 -0.2490  2.0367
   49MOL    H4927025   0.019   6.109   5.410  0.7613  1.8839 -0.9494
   49MOL    H5027026   0.045   6.299   5.263  1.1321 -1.1508  1.1251
   49MOL    H5127027   0.113   6.550   5.137 -1.6374 -1.6625  0.3386
   49MOL    H5227028   0.008   6.771   5.116  1.0064 -0.8282 -1.7878
   49MOL    H5327029   7.929   6.911   5.353  0.3875  2.4579 -1.0023
   49MOL    H5427030   7.900   6.688   5.452  0.4434  0.7117  0.6847
   49MOL    H5527031   8.014   6.470   5.488 -0.2239 -1.9827 -0.4603
   49MOL    H5627032   0.432   6.260   5.426 -0.1237  0.8713 -0.5750
   49MOL    H5727033   0.510   6.033   5.450 -0.3504 -0.3113  1.2127
   49MOL    C5827034   7.909   6.924   5.158 -0.8044 -0.2050 -0.1697
   49MOL    C5927035   7.841   7.056   5.183 -0.9732  0.0695 -0.8812
   49MOL    C6027036   7.838   7.149   5.079 -0.3294  0.3763  0.2442
   49MOL    C6127037   7.759   7.261   5.088  0.4182 -0.3144  0.0600
   49MOL    C6227038   7.675   7.283   5.198  0.4203 -0.2678 -0.2135
   49MOL    C6327039   7.587   7.403   5.214  0.0535 -0.6936 -0.0157
   49MOL    N6427040   7.592   7.497   5.116 -0.2614  0.4125  1.1350
   49MOL    C6527041   7.543   7.627   5.114  0.5707  0.2211  0.1835
   49MOL    C6627042   7.633   7.734   5.103 -0.0978  0.1956  0.7422
   49MOL    C6727043   7.584   7.870   5.121  0.3238 -0.4098  0.7366
   49MOL    C6827044   7.448   7.891   5.153  0.5728 -1.0679 -0.4117
   49MOL    N6927045   7.401   8.025   5.159 -0.1930  0.0855 -0.8439
   49MOL    C7027046   7.368   7.777   5.169  0.0889 -0.1393 -0.1545
   49MOL    C7127047   7.410   7.648   5.143 -0.1430 -0.1089 -0.0096
   49MOL    O7227048   7.514   7.417   5.313  0.5434 -0.2953 -0.0688
   49MOL    C7327049   7.678   7.193   5.307  0.3410  0.5117 -0.0696
   49MOL    C7427050   7.756   7.077   5.295  0.1138 -0.3620 -0.0631
   49MOL    O7527051   7.912   6.876   5.042 -0.0132  0.4095  0.0239
   49MOL    H7627052   7.897   7.128   4.991 -0.7946 -0.5710  0.1529
   49MOL    H7727053   7.766   7.331   5.006 -0.4673 -3.1314 -2.5342
   49MOL    H7827054   7.666   7.480   5.050 -1.5313  2.3648 -0.8651
   49MOL    H7927055   7.740   7.725   5.102 -0.2619 -2.2941  2.1516
   49MOL    H8027056   7.656   7.951   5.133  0.7921 -0.3272 -2.4180
   49MOL    H8127057   7.461   8.097   5.121 -2.2108  1.3144 -1.7673
   49MOL    H8227058   7.263   7.786   5.192  0.5328  0.2485  1.9003
   49MOL    H8327059   7.354   7.558   5.160  0.6746 -0.4171  1.1015
   49MOL    H8427060   7.623   7.212   5.398 -1.7853 -0.3324 -1.1430
   49MOL    H8527061   7.733   7.004   5.371  0.7797  0.0791  0.5661
   49MOL    C8627062   7.298   8.077   5.225  0.5796 -0.1927  0.8234
   49MOL    C8727063   7.253   0.064   5.171 -1.0817  0.2592 -0.3902
   49MOL    C8827064   7.123   0.108   5.203 -0.2169 -0.2911 -0.3100
   49MOL    C8927065   7.071   0.230   5.145 -0.1764 -0.6032 -0.1700
   49MOL    C9027066   7.148   0.302   5.054 -0.3606 -0.7553 -0.5043
   49MOL    C9127067   7.078   0.415   4.985  0.1078 -0.5026  0.7289
   49MOL    N9227068   7.165   0.513   4.939 -0.2959  0.4577 -0.6150
   49MOL    C9327069   7.132   0.619   4.850  0.4128  0.1689 -0.6410
   49MOL    C9427070   7.002   0.678   4.843 -0.3274 -0.5486 -0.1767
   49MOL    C9527071   6.978   0.774   4.743 -0.6309  0.7619 -0.6912
   49MOL    C9627072   7.068   0.799   4.640 -0.8050 -0.0121  0.3509
   49MOL    N9727073   7.044   0.882   4.526 -0.1906  0.2024  0.0757
   49MOL    C9827074   7.190   0.738   4.647 -0.0915 -0.2347 -0.1828
   49MOL    C9927075   7.221   0.648   4.748  0.1494  0.2843 -0.3045
   49MOL   O10027076   6.961   0.414   4.958  0.4019  0.0775  0.3261
   49MOL   C10127077   7.279   0.258   5.019  0.2465  0.2635 -0.3921
   49MOL   C10227078   7.331   0.141   5.073 -0.1636 -0.1250  0.0003
   49MOL   O10327079   7.249   8.028   5.323 -0.0115  0.0425 -0.8190
   49MOL   H10427080   7.056   0.056   5.271 -0.9107 -0.7676 -1.3531
   49MOL   H10527081   6.970   0.265   5.165 -0.3619 -0.5047 -1.2554
   49MOL   H10627082   7.263   0.495   4.954 -0.2135  1.4580  0.1305
   49MOL   H10727083   6.933   0.663   4.924 -0.6078  1.6998  0.0268
   49MOL   H10827084   6.883   0.824   4.750  0.4629  2.4738  3.2735
   49MOL   H10927085   7.105   0.878   4.446  0.5996 -1.7596  0.7388
   49MOL   H11027086   7.261   0.752   4.567  0.8019 -0.2532  0.6007
   49MOL   H11127087   7.315   0.595   4.743 -0.8676 -1.4469 -1.3347
   49MOL   H11227088   7.331   0.318   4.945 -0.8065  1.3352 -0.2850
   49MOL   H11327089   7.431   0.109   5.048  0.8277  2.1785  0.8799
   49MOL   C11427090   6.934   0.958   4.492 -0.9845 -0.0597  0.2989
   49MOL   C11527091   6.953   1.051   4.376 -0.1338  0.2800  0.3059
   49MOL   C11627092   7.083   1.086   4.337 -0.2784  0.5864 -0.3525
   49MOL   C11727093   7.100   1.190   4.251 -0.5404 -0.3247 -0.3357
   49MOL   C11827094   6.988   1.257   4.200  0.6382 -0.4990  1.0341
   49MOL   C11927095   7.009   1.376   4.106  0.1051  0.3326  0.1783
   49MOL   N12027096   6.965   1.497   4.152  0.1866 -0.1233 -0.0452
   49MOL   C12127097   6.885   1.536   4.261 -0.5388  0.4178 -0.6069
   49MOL   C12227098   6.889   1.474   4.393  0.1471  0.5792  0.4406
   49MOL   C12327099   6.793   1.514   4.484 -0.3120 -0.4621  0.0640
   49MOL   C12427100   6.704   1.616   4.463 -0.6759  0.2576  0.7108
   49MOL   N12527101   6.605   1.648   4.557 -0.8574 -0.3580 -0.7498
   49MOL   C12627102   6.712   1.681   4.342 -0.5444 -0.4459  0.1502
   49MOL   C12727103   6.796   1.641   4.239  0.8757  0.2022 -0.5580
   49MOL   O12827104   7.069   1.371   3.997 -0.4697  0.5561  0.5361
   49MOL   C12927105   6.859   1.208   4.227  0.6788  0.7918 -0.0748
   49MOL   C13027106   6.838   1.112   4.325  1.0293  0.2540 -0.5610
   49MOL   O13127107   6.828   0.950   4.555  0.0692  0.0470  0.1202
   49MOL   H13227108   7.174   1.044   4.379  0.9504  1.8258 -1.7209
   49MOL   H13327109   7.200   1.225   4.233 -0.6099 -0.4743 -1.0109
   49MOL   H13427110   6.983   1.567   4.082  1.4202  2.0730  2.3592
   49MOL   H13527111   6.962   1.399   4.423 -1.0726 -1.3181 -1.2295
   49MOL   H13627112   6.788   1.459   4.577  1.3244  2.2031  1.7882
   49MOL   H13727113   6.631   1.639   4.654  1.7591 -1.5382 -1.5260
   49MOL   H13827114   6.649   1.768   4.331 -0.3123 -0.0923  1.4883
   49MOL   H13927115   6.805   1.697   4.147 -0.1428  1.9804  0.3921
   49MOL   H14027116   6.780   1.260   4.176 -1.1262 -0.2325  1.5989
   49MOL   H14127117   6.735   1.091   4.349  1.0455  0.4291 -0.3362
   49MOL   C14227118   6.488   1.714   4.544  0.5746 -0.6349  0.5300
   49MOL   C14327119   6.434   1.783   4.672  0.0906  0.2767 -0.1327
   49MOL   C14427120   6.432   1.714   4.792 -0.4307  0.2002 -0.6770
   49MOL   C14527121   6.392   1.784   4.907 -0.6454 -0.1180 -0.3907
   49MOL   C14627122   6.351   1.918   4.906 -0.1287  0.9407  0.3666
   49MOL   C14727123   6.308   1.983   5.030  0.0647  0.0887 -0.3192
   49MOL   N14827124   6.192   2.056   5.010 -0.1958  0.1860  0.0427
   49MOL   C14927125   6.125   2.121   5.116 -0.5454  0.2422  0.8224
   49MOL   C15027126   6.029   2.215   5.065 -0.4087  0.3190 -0.1881
   49MOL   C15127127   5.958   2.288   5.161  0.0199 -0.2171  0.3992
   49MOL   C15227128   5.973   2.262   5.302 -0.1148  0.2306 -0.5799
   49MOL   N15327129   5.920   2.341   5.407  0.2639 -0.2591  0.4202
   49MOL   C15427130   6.062   2.165   5.353 -0.5154  0.1388  0.0004
   49MOL   C15527131   6.132   2.091   5.258  0.0201 -0.3332 -0.0592
   49MOL   O15627132   6.370   1.960   5.130  0.3186 -0.6373  0.3973
   49MOL   C15727133   6.351   1.987   4.779 -0.5301  0.3533 -0.7932
   49MOL   C15827134   6.389   1.912   4.663 -0.1440 -0.0891 -0.1028
   49MOL   O15927135   6.420   1.714   4.444 -0.0285  0.3668  0.2350
   49MOL   H16027136   6.470   1.614   4.805 -1.1025  0.1568  1.1066
   49MOL   H16127137   6.406   1.739   5.004  0.1435 -1.7025 -1.2067
   49MOL   H16227138   6.140   2.068   4.924  0.0924  2.5186  0.1459
   49MOL   H16327139   6.013   2.239   4.961 -0.5797  1.3449  0.0664
   49MOL   H16427140   5.882   2.359   5.131 -1.4660 -1.1673  1.7944
   49MOL   H16527141   5.935   2.312   5.503 -3.2972 -2.3168  0.4582
   49MOL   H16627142   6.053   2.124   5.452 -3.2822  0.4981 -0.0402
   49MOL   H16727143   6.184   2.000   5.283  1.6864  0.9837  1.3396
   49MOL   H16827144   6.326   2.092   4.783 -1.5356  0.0953 -0.1495
   49MOL   H16927145   6.398   1.969   4.572 -0.5536 -1.0400 -0.7368
   49MOL   C17027146   5.850   2.459   5.397  0.0990  0.3457  0.3537
   49MOL   C17127147   5.811   2.511   5.532 -0.0979 -0.0934  0.0520
   49MOL   C17227148   5.907   2.583   5.607  0.4073  0.3409  0.3705
   49MOL   C17327149   5.877   2.605   5.744 -0.5982  0.1539 -0.3837
   49MOL   C17427150   5.753   2.570   5.799  0.5374  0.3606  0.2698
   49MOL   C17527151   5.713   2.625   5.934  0.6940  0.4985  0.3808
   49MOL   N17627152   5.784   2.596   6.042  0.8364 -0.1003  0.1575
   49MOL   C17727153   5.750   2.625   6.177 -0.1130  0.0105 -0.5256
   49MOL   C17827154   5.821   2.541   6.267  0.0440 -0.1791 -0.2564
   49MOL   C17927155   5.787   2.548   6.404 -0.0090  0.2053  0.8373
   49MOL   C18027156   5.689   2.645   6.446 -0.5719  0.3709  0.4996
   49MOL   N18127157   5.671   2.655   6.589  0.1601 -0.5126 -0.2132
   49MOL   C18227158   5.618   2.723   6.351 -0.8149  0.1403  0.3735
   49MOL   C18327159   5.642   2.710   6.214  0.1570  0.2868 -0.1175
   49MOL   O18427160   5.622   2.703   5.933  0.1383  0.3033 -0.3231
   49MOL   C18527161   5.649   2.520   5.720 -0.6703 -1.1070  0.2483
   49MOL   C18627162   5.682   2.485   5.585  0.3004  1.1682 -0.4185
   49MOL   O18727163   5.831   2.527   5.297  0.0111 -0.0938 -0.0338
   49MOL   H18827164   6.002   2.613   5.565  0.6972 -1.6661 -0.4475
   49MOL   H18927165   5.950   2.653   5.808 -1.3658  0.7838  0.0272
   49MOL   H19027166   5.868   2.541   6.028 -0.1354 -1.6441  0.2481
   49MOL   H19127167   5.910   2.484   6.246 -0.7238 -0.8381 -1.7821
   49MOL   H19227168   5.844   2.496   6.480 -1.1537 -3.5615 -0.8056
   49MOL   H19327169   5.698   2.577   6.647  2.3835 -0.2649 -0.8503
   49MOL   H19427170   5.536   2.785   6.384 -0.7724  0.6541 -0.4691
   49MOL   H19527171   5.575   2.761   6.147 -0.1053 -0.9763 -0.8244
   49MOL   H19627172   5.548   2.509   5.758 -0.4533 -0.5827  0.9977
   49MOL   H19727173   5.608   2.433   5.525  3.1969 -2.3661 -1.1243
   49MOL   C19827174   5.610   2.754   6.663 -0.2441 -0.9687  0.5965
   49MOL   C19927175   5.586   2.716   6.805  0.9632 -0.3391 -0.1575
   49MOL   C20027176   5.569   2.820   6.900  0.0131  0.0642 -0.6347
   49MOL   C20127177   5.552   2.785   7.035 -0.0279  0.3610 -0.2482
   49MOL   C20227178   5.558   2.650   7.074  0.2883 -0.1432  0.2394
   49MOL   C20327179   5.530   2.615   7.220 -0.3251 -0.1565  0.2061
   49MOL   N20427180   5.457   2.505   7.230  0.5233  0.2328 -0.2495
   49MOL   C20527181   5.458   2.413   7.337 -0.0137  0.0590  0.4542
   49MOL   C20627182   5.503   2.440   7.467 -0.0454  0.3149  0.2854
   49MOL   C20727183   5.501   2.340   7.564  0.7539  0.7739 -0.5678
   49MOL   C20827184   5.471   2.206   7.531  0.1104  1.8562  0.4016
   49MOL   N20927185   5.479   2.099   7.624 -0.1801  0.1507  0.2756
   49MOL   C21027186   5.426   2.180   7.404  0.4328 -0.9445  0.2481
   49MOL   C21127187   5.416   2.283   7.305 -0.3057  0.0731  0.8239
   49MOL   O21227188   5.565   2.689   7.316  0.1754  0.2998  0.0400
   49MOL   C21327189   5.572   2.546   6.980  0.4734  0.2960 -0.2931
   49MOL   C21427190   5.596   2.583   6.851  0.2749  0.0413  0.2262
   49MOL   O21527191   5.582   2.868   6.625 -0.4448 -0.3803 -0.3659
   49MOL   H21627192   5.558   2.922   6.864 -0.4270 -0.4500 -1.9948
   49MOL   H21727193   5.516   2.858   7.106 -3.0744 -0.6826 -0.6460
   49MOL   H21827194   5.409   2.481   7.145 -1.8827  0.9684  0.8433
   49MOL   H21927195   5.549   2.534   7.495 -2.5697  0.4859  4.1683
   49MOL   H22027196   5.536   2.369   7.662  0.7084  1.6922 -0.8151
   49MOL   H22127197   5.431   2.014   7.599 -2.8415  1.8061 -0.3729
   49MOL   H22227198   5.413   2.076   7.380  1.4672 -1.3528  1.3650
   49MOL   H22327199   5.381   2.253   7.207  1.9288 -1.0416  0.3300
   49MOL   H22427200   5.577   2.441   7.005 -0.1835  0.2814 -0.2275
   49MOL   H22527201   5.599   2.498   6.785  0.7616 -0.8329  1.3387
   49MOL   C22627202   5.596   2.081   7.684  0.1691 -0.7168 -0.5133
   49MOL   C22727203   5.643   1.945   7.689 -0.1677  0.1991 -0.8056
   49MOL   C22827204   5.671   1.872   7.572  0.4659 -0.2221 -0.4805
   49MOL   C22927205   5.708   1.738   7.579  0.5871 -0.2292  0.0841
   49MOL   C23027206   5.737   1.680   7.707  0.2836 -0.1032  0.0082
   49MOL   C23127207   5.768   1.534   7.710 -0.1736 -0.1962  0.3656
   49MOL   N23227208   5.808   1.482   7.589 -0.5722  0.3387 -0.0398
   49MOL   C23327209   5.836   1.350   7.555  0.4346  1.2752  0.5715
   49MOL   C23427210   5.894   1.259   7.641 -0.1937 -0.3863 -0.8628
   49MOL   C23527211   5.921   1.125   7.604  0.4763 -0.0647  0.5759
   49MOL   C23627212   5.888   1.081   7.471  0.3263 -1.2545  0.2286
   49MOL   N23727213   5.925   0.957   7.420  0.8054  0.8298 -0.1207
   49MOL   C23827214   5.829   1.174   7.383  0.3406  0.2108  0.6741
   49MOL   C23927215   5.805   1.308   7.424  0.1292  0.1458 -0.0763
   49MOL   O24027216   5.770   1.479   7.819 -1.0880 -0.4550 -0.2293
   49MOL   C24127217   5.708   1.756   7.829  0.1901  0.5316  0.1864
   49MOL   C24227218   5.656   1.888   7.815  0.8271 -0.3890 -0.0913
   49MOL   O24327219   5.665   2.167   7.746 -0.3113 -0.0507 -0.0682
   49MOL   H24427220   5.659   1.925   7.479  2.3172 -0.7788 -1.0474
   49MOL   H24527221   5.702   1.674   7.492 -1.8369 -1.4782  1.1049
   49MOL   H24627222   5.810   1.555   7.519  0.5055  1.0335  0.6978
   49MOL   H24727223   5.912   1.298   7.740  2.6786 -0.7439 -1.2085
   49MOL   H24827224   5.980   1.067   7.672  1.8181  2.3640  1.5584
   49MOL   H24927225   5.912   0.944   7.320  1.5166 -0.0906 -0.1075
   49MOL   H25027226   5.813   1.137   7.283 -0.6390  1.4930  0.3266
   49MOL   H25127227   5.748   1.375   7.361 -1.6507 -0.9226  0.3634
   49MOL   H25227228   5.731   1.718   7.927  0.4378 -1.1950 -0.5294
   49MOL   H25327229   5.639   1.946   7.905  0.3187 -0.5647 -0.0710
   49MOL   C25427230   5.953   0.846   7.488 -0.6604 -0.2718 -0.1104
   49MOL   C25527231   5.968   0.732   7.396  0.1425  0.0196  1.0202
   49MOL   C25627232   6.035   0.751   7.273 -0.5780 -0.5413  1.1231
   49MOL   C25727233   6.030   0.646   7.175  0.5039  0.4928 -0.4419
   49MOL   C25827234   5.969   0.525   7.201  0.1334 -0.2667 -0.7083
   49MOL   C25927235   5.951   0.417   7.097  0.3339 -0.6403 -1.3103
   49MOL   N26027236   5.981   0.294   7.145  0.3024 -0.1965  0.2416
   49MOL   C26127237   5.957   0.170   7.091  0.0111 -0.0208 -0.1696
   49MOL   C26227238   5.844   0.151   7.011  0.9650  0.3956  0.3262
   49MOL   C26327239   5.807   0.018   6.974  0.5819 -0.1667  0.4471
   49MOL   C26427240   5.879   8.054   7.024 -0.9066 -0.4063 -0.1054
   49MOL   N26527241   5.848   7.922   6.993 -0.5141  0.4134  0.1318
   49MOL   C26627242   5.991   8.072   7.104 -0.3261 -0.2955  0.4985
   49MOL   C26727243   6.041   0.058   7.129  0.3198  0.5789  0.7386
   49MOL   O26827244   5.912   0.443   6.981  0.0888  0.0367 -0.0299
   49MOL   C26927245   5.919   0.499   7.332  0.7502 -0.4350 -0.6017
   49MOL   C27027246   5.915   0.604   7.428  0.1476 -0.7938  0.1747
   49MOL   O27127247   5.971   0.833   7.607  0.2470 -0.0151  0.2518
   49MOL   H27227248   6.084   0.844   7.250  0.8177 -1.7973 -1.0772
   49MOL   H27327249   6.066   0.668   7.076  1.2891 -1.1408 -0.5352
   49MOL   H27427250   6.014   0.301   7.241 -0.8376  0.2171  0.6046
   49MOL   H27527251   5.788   0.237   6.978  1.0048 -0.0534 -0.9280
   49MOL   H27627252   5.714   0.003   6.920  0.3402 -0.0342  0.8219
   49MOL   H27727253   5.923   7.869   6.949  0.8976  1.1772  1.5564
   49MOL   H27827254   6.048   7.982   7.116 -1.2171 -1.3821 -2.7451
   49MOL   H27927255   6.127   0.059   7.194  1.1095 -0.3919 -0.2618
   49MOL   H28027256   5.880   0.404   7.364 -0.3662 -0.5758 -2.3013
   49MOL   H28127257   5.875   0.583   7.526 -2.9345  1.0186 -0.6307
   49MOL   C28227258   5.734   7.860   7.000 -0.7771 -0.2681 -0.2757
   49MOL   C28327259   5.718   7.729   6.926  0.2597 -0.2202  0.1263
   49MOL   C28427260   5.597   7.687   6.870  0.7683 -1.0568  0.4129
   49MOL   C28527261   5.582   7.576   6.789  0.4603  1.0281  0.4072
   49MOL   C28627262   5.700   7.494   6.763 -0.4150 -0.2367 -0.9517
   49MOL   C28727263   5.688   7.375   6.673 -0.7004  0.2592  0.6587
   49MOL   N28827264   5.744   7.259   6.715  0.4474 -0.0870  0.0010
   49MOL   C28927265   5.801   7.231   6.844  0.4483  0.9648  0.5118
   49MOL   C29027266   5.938   7.195   6.838  0.4284  0.5719  0.1583
   49MOL   C29127267   6.017   7.173   6.951  0.8020  0.2298  0.1227
   49MOL   C29227268   5.954   7.191   7.077  0.8438 -0.3766  0.7551
   49MOL   N29327269   6.034   7.178   7.193  0.1824  0.1353 -0.2907
   49MOL   C29427270   5.814   7.235   7.086 -0.0035 -0.5560 -0.6480
   49MOL   C29527271   5.738   7.255   6.968  0.4787 -0.3647 -0.3142
   49MOL   O29627272   5.611   7.373   6.576 -0.1018  0.2057 -0.2159
   49MOL   C29727273   5.825   7.537   6.812  0.3235 -0.8961  0.4598
   49MOL   C29827274   5.835   7.648   6.895 -0.0388  0.1258 -0.2669
   49MOL   O29927275   5.631   7.911   7.050 -0.4548 -0.9945  0.1757
   49MOL   H30027276   5.516   7.758   6.879  2.1810  0.5266  1.0670
   49MOL   H30127277   5.488   7.538   6.753  0.1444 -0.5541  2.7967
   49MOL   H30227278   5.753   7.192   6.640 -0.3775 -0.1423 -0.0508
   49MOL   H30327279   5.984   7.185   6.741 -0.6022  0.3746 -0.3202
   49MOL   H30427280   6.119   7.138   6.953  0.9948  0.7937  0.4419
   49MOL   H30527281   6.094   7.097   7.202  0.2738  0.3834  1.4987
   49MOL   H30627282   5.763   7.264   7.176  1.8456  0.3938  0.1142
   49MOL   H30727283   5.632   7.276   6.975  0.0219 -1.4903 -3.1054
   49MOL   H30827284   5.911   7.474   6.795  1.2535  0.6456 -0.6553
   49MOL   H30927285   5.935   7.675   6.927  0.3246 -3.2610  1.6517
   49MOL   C31027286   6.010   7.238   7.310 -0.2331 -0.7036  0.6811
   49MOL   C31127287   5.962   7.383   7.311 -0.1964 -0.6363 -0.0792
   49MOL   C31227288   6.019   7.479   7.227 -1.0317  0.4847  0.2634
   49MOL   C31327289   5.990   7.616   7.241 -0.4830 -0.2190  0.4375
   49MOL   C31427290   5.903   7.655   7.349 -0.7864  0.5683 -0.1269
   49MOL   C31527291   5.882   7.798   7.372 -0.4928 -0.6975  0.4964
   49MOL   N31627292   5.785   7.837   7.452 -0.7749  0.3969  0.3445
   49MOL   C31727293   5.736   7.969   7.489  0.2241  0.4978  0.1433
   49MOL   C31827294   5.793   8.090   7.445 -1.0277  0.0062 -0.2159
   49MOL   C31927295   5.750   0.067   7.498  0.5780 -0.0975  0.0868
   49MOL   C32027296   5.645   0.077   7.590  0.3277  0.2689 -1.2383
   49MOL   N32127297   5.618   0.217   7.635  0.6284 -0.5053  0.0679
   49MOL   C32227298   5.582   8.103   7.635 -0.1250 -1.1914  0.1662
   49MOL   C32327299   5.623   7.977   7.581  0.1846 -0.4254  0.5923
   49MOL   O32427300   5.960   7.882   7.328  0.7755 -0.4848  0.0021
   49MOL   C32527301   5.850   7.560   7.433 -0.4463  0.3494  0.0153
   49MOL   C32627302   5.873   7.426   7.415 -0.2885 -0.1338 -0.2415
   49MOL   O32727303   6.020   7.182   7.421 -0.3232 -0.1134 -0.1875
   49MOL   H32827304   6.074   7.452   7.139  0.5846 -1.3223  1.7947
   49MOL   H32927305   6.030   7.693   7.177  0.3827  0.1864  1.4384
   49MOL   H33027306   5.731   7.759   7.486 -0.0518 -0.4692 -0.4446
   49MOL   H33127307   5.874   8.097   7.374 -1.9476 -0.3382 -1.3251
   49MOL   H33227308   5.797   0.157   7.462  0.1828  0.5611  1.1722
   49MOL   H33327309   5.681   0.289   7.603  0.4736 -0.2223  0.3938
   49MOL   H33427310   5.496   8.106   7.701 -0.1739 -0.6208  0.0795
   49MOL   H33527311   5.568   7.887   7.602 -0.7843  0.2450  0.9300
   49MOL   H33627312   5.789   7.574   7.521  1.1947  0.8879  1.0833
   49MOL   H33727313   5.846   7.357   7.493  2.4794 -0.5286  0.4081
   49MOL   C33827314   5.510   0.252   7.703  0.0123 -0.4259  0.1842
   49MOL   C33927315   5.521   0.399   7.735 -0.0297 -0.1696  0.5102
   49MOL   C34027316   5.618   0.484   7.670 -0.5921  0.1738 -0.0900
   49MOL   C34127317   5.632   0.619   7.717  0.4879  0.0082  0.1067
   49MOL   C34227318   5.555   0.664   7.828  0.2905 -0.6041 -0.0548
   49MOL   C34327319   5.578   0.801   7.874  0.4276 -0.5433 -0.3485
   49MOL   N34427320   5.707   0.833   7.891  0.1419  0.5428  0.0796
   49MOL   C34527321   5.759   0.957   7.936  0.0415  0.3994  0.0055
   49MOL   C34627322   5.682   1.052   8.015  0.3083  0.7118 -0.5099
   49MOL   C34727323   5.751   1.170   8.053 -0.1450 -0.3876  0.1889
   49MOL   C34827324   5.883   1.198   8.014 -0.2742  0.2035 -0.5238
   49MOL   N34927325   5.939   1.328   8.039  0.0382  0.1865  0.7814
   49MOL   C35027326   5.960   1.099   7.956 -0.6864  0.3749 -0.0473
   49MOL   C35127327   5.900   0.977   7.921  0.5386  0.4414  0.4493
   49MOL   O35227328   5.483   0.872   7.891 -0.1797 -0.3980  0.0633
   49MOL   C35327329   5.463   0.578   7.889 -0.7752 -0.5585 -0.0654
   49MOL   C35427330   5.442   0.450   7.838 -0.3677 -0.0523  0.0339
   49MOL   O35527331   5.417   0.179   7.735 -0.1093  0.3205 -0.2929
   49MOL   H35627332   5.685   0.447   7.594  0.3656 -1.3066  1.4447
   49MOL   H35727333   5.703   0.683   7.666 -0.9966  0.0138 -2.0020
   49MOL   H35827334   5.773   0.761   7.865 -1.1486 -1.6739  2.6620
   49MOL   H35927335   5.581   1.029   8.048  0.3732 -0.1887 -0.9362
   49MOL   H36027336   5.692   1.247   8.101  0.8263 -0.0960  0.9222
   49MOL   H36127337   6.020   1.342   7.981 -0.4483 -0.6685 -0.1325
   49MOL   H36227338   6.065   1.109   7.931 -0.2192 -1.8362  0.9504
   49MOL   H36327339   5.960   0.903   7.870  0.1661 -0.4604  1.2820
   49MOL   H36427340   5.414   0.615   7.978 -1.7065 -0.1368 -0.7537
   49MOL   H36527341   5.373   0.383   7.887  1.6960 -2.8867 -0.7975
   49MOL   C36627342   5.906   1.420   8.132  0.8501 -0.9809 -0.4804
   49MOL   C36727343   5.972   1.552   8.118  0.2214  0.0315 -0.9557
   49MOL   C36827344   5.984   1.617   7.995  0.2688  0.4112  0.2523
   49MOL   C36927345   6.014   1.753   7.985  0.3055  0.5033  0.0310
   49MOL   C37027346   6.039   1.830   8.101  0.1359 -0.8271  0.0422
   49MOL   C37127347   6.064   1.980   8.105  0.2932 -0.2552 -0.0391
   49MOL   N37227348   5.992   2.048   8.017  0.6071  0.3281  0.0268
   49MOL   C37327349   5.993   2.185   7.994 -0.0583  0.5802  0.2338
   49MOL   C37427350   6.118   2.255   7.992  0.3665  0.4144  0.4221
   49MOL   C37527351   6.121   2.392   7.973  1.1094  0.2416 -0.2528
   49MOL   C37627352   5.996   2.467   7.967 -0.1646 -0.3353  0.6676
   49MOL   N37727353   5.996   2.607   7.956  0.2294 -0.7971  0.1376
   49MOL   C37827354   5.877   2.394   7.958  0.1478 -0.6814  0.0964
   49MOL   C37927355   5.875   2.254   7.974  0.3034 -0.1673 -0.2930
   49MOL   O38027356   6.121   2.031   0.056 -0.6400  0.3119  0.7333
   49MOL   C38127357   6.042   1.762   0.079  0.9084 -0.3658 -0.6660
   49MOL   C38227358   6.005   1.626   0.085  0.0479 -0.0254  0.2661
   49MOL   O38327359   5.837   1.395   0.085 -0.1721 -0.8644  0.3245
   49MOL   H38427360   5.975   1.568   7.900 -0.4867 -0.0100  0.5347
   49MOL   H38527361   6.029   1.796   7.888  0.2130 -1.1247 -0.7226
   49MOL   H38627362   5.933   1.987   7.961  2.7631 -0.8862 -0.9724
   49MOL   H38727363   6.208   2.202   8.021 -0.5073 -2.0222 -1.2014
   49MOL   H38827364   6.212   2.449   7.987  1.5529  0.0677 -2.2718
   49MOL   H38927365   5.906   2.645   7.931  1.3674  2.1221  0.3654
   49MOL   H39027366   5.784   2.443   7.934  0.6191 -0.0575 -0.4862
   49MOL   H39127367   5.783   2.199   7.982 -0.2757  0.8927  0.5497
   49MOL   H39227368   6.064   1.824   0.164 -0.7906 -1.6512  0.7359
   49MOL   H39327369   6.006   1.578   0.182 -0.0671  0.5451  0.5503
   49MOL   C39427370   6.091   2.695   7.954 -0.3768  0.3859  0.1458
   49MOL   C39527371   6.038   2.836   7.944 -0.2493  0.9418 -0.2330
   49MOL   C39627372   5.948   2.867   8.052  0.0863 -0.2192 -0.0935
   49MOL   C39727373   5.894   2.999   8.054 -0.3661 -0.0996  0.0180
   49MOL   C39827374   5.910   3.087   7.943 -0.1644 -0.2753 -0.3079
   49MOL   C39927375   5.830   3.216   7.942 -0.6161  0.0394 -0.1451
   49MOL   N40027376   5.764   3.240   8.055  0.6645  0.1947  0.1601
   49MOL   C40127377   5.644   3.310   8.075  0.2718  0.1835 -0.1400
   49MOL   C40227378   5.574   3.380   7.974 -1.1541 -0.2619 -0.2313
   49MOL   C40327379   5.450   3.441   8.009 -0.5740  0.6176  0.0698
   49MOL   C40427380   5.395   3.428   8.135 -0.2041  0.5340  0.2288
   49MOL   N40527381   5.273   3.490   0.007 -0.3662 -0.2026  0.4943
   49MOL   C40627382   5.460   3.356   0.088 -0.6207  0.7587 -0.0348
   49MOL   C40727383   5.580   3.296   0.053  0.4643 -0.8275 -0.3788
   49MOL   O40827384   5.828   3.290   7.846  0.1612  0.7089 -0.2692
   49MOL   C40927385   6.002   3.052   7.841 -0.4194  0.4601 -0.1086
   49MOL   C41027386   6.067   2.931   7.843  0.6742  0.4819  0.6174
   49MOL   O41127387   6.205   2.676   7.981  0.0058 -0.2554 -0.3543
   49MOL   H41227388   5.938   2.789   8.126  1.2279  0.3964  0.7265
   49MOL   H41327389   5.838   3.027   8.141 -1.6311  2.0233 -1.4266
   49MOL   H41427390   5.794   3.174   8.126  0.0041  0.8497  1.0644
   49MOL   H41527391   5.611   3.387   7.873  2.3942  0.2013  1.0278
   49MOL   H41627392   5.399   3.498   7.933 -0.9656 -1.6471 -1.4138
   49MOL   H41727393   5.201   3.462   8.088 -1.3406  2.0512  0.5430
   49MOL   H41827394   5.415   3.346   0.186 -2.0714  2.3783 -0.5115
   49MOL   H41927395   5.616   3.230   0.131 -0.3112 -0.6176  0.1658
   49MOL   H42027396   6.015   3.132   7.769  2.8688 -0.0024 -0.1095
   49MOL   H42127397   6.136   2.909   7.762  1.2725 -0.9866  1.5137
   49MOL   C42227398   5.245   3.599   0.089  0.2922 -0.2660  0.7105
   49MOL   C42327399   5.344   3.652   0.188  0.2498  0.3902  0.1579
   49MOL   C42427400   5.486   3.658   0.161  0.5156  1.0175 -0.3543
   49MOL   C42527401   5.571   3.704   0.265  0.1926  0.1694 -1.0974
   49MOL   C42627402   5.522   3.754   0.391  0.8151 -0.2008 -0.9009
   49MOL   C42727403   5.621   3.807   0.488 -0.3623 -0.4624 -0.5217
   49MOL   N42827404   5.716   3.718   0.529 -0.6119  0.4068 -0.0427
   49MOL   C42927405   5.843   3.747   0.587 -0.3384 -0.6320 -0.3634
   49MOL   C43027406   5.897   3.883   0.601  0.0982  0.2110 -0.1889
   49MOL   C43127407   6.026   3.903   0.660 -0.6441 -0.5953 -0.6002
   49MOL   C43227408   6.097   3.791   0.705 -0.3903 -0.1609  0.4058
   49MOL   N43327409   6.233   3.806   0.749  0.3252  0.1526 -0.6558
   49MOL   C43427410   6.041   3.665   0.693  0.5059  0.1917  0.0442
   49MOL   C43527411   5.915   3.639   0.630  0.2936  0.5225  0.4589
   49MOL   O43627412   5.607   3.922   0.527  0.2704 -0.2387 -0.4512
   49MOL   C43727413   5.387   3.747   0.418 -0.8365 -0.2084  0.7181
   49MOL   C43827414   5.295   3.699   0.317  0.2113 -0.5644  0.0435
   49MOL   O43927415   5.131   3.647   0.082 -0.2521 -0.2629 -0.8113
   49MOL   H44027416   5.541   3.624   0.075 -1.5043  1.1876 -1.7329
   49MOL   H44127417   5.678   3.700   0.251  0.2580  1.7125 -1.0750
   49MOL   H44227418   5.703   3.622   0.501  0.7052  0.2173 -0.0238
   49MOL   H44327419   5.848   3.971   0.562  1.6804  0.4854 -1.5954
   49MOL   H44427420   6.066   4.003   0.668 -1.0847 -0.3584 -1.2880
   49MOL   H44527421   6.298   3.873   0.711 -1.0477  1.5899 -0.5291
   49MOL   H44627422   6.091   3.578   0.731 -0.0836 -0.4265 -0.5803
   49MOL   H44727423   5.872   3.540   0.630 -2.3248  1.5908  0.2291
   49MOL   H44827424   5.353   3.785   0.513  0.4534 -0.2267  1.1968
   49MOL   H44927425   5.188   3.702   0.333  0.1535  0.9936 -0.4899
   49MOL   C45027426   6.291   3.734   0.842  0.2630 -0.5269 -0.2421
   49MOL   C45127427   6.444   3.744   0.830 -0.2147  0.8975  0.6684
   49MOL   C45227428   6.517   3.781   0.949 -0.1480  0.2065  0.1895
   49MOL   C45327429   6.655   3.796   0.945  0.3700  0.2982 -0.7558
   49MOL   C45427430   6.717   3.774   0.823  0.3434  0.3360 -0.4105
   49MOL   C45527431   6.870   3.769   0.825 -0.0229  0.1657  0.6939
   49MOL   N45627432   6.930   3.830   0.720  0.2796  0.0434 -0.0728
   49MOL   C45727433   7.056   3.790   0.673  1.5876 -0.0546  0.0245
   49MOL   C45827434   7.167   3.869   0.707 -0.0948 -0.3530  0.8606
   49MOL   C45927435   7.298   3.835   0.664 -0.2657 -0.4088  0.5105
   49MOL   C46027436   7.323   3.715   0.588  0.4859 -0.5059  0.0142
   49MOL   N46127437   7.443   3.675   0.534  0.5308  0.3804 -0.0009
   49MOL   C46227438   7.209   3.648   0.547 -0.4624 -0.2592  0.2769
   49MOL   C46327439   7.074   3.677   0.590 -0.1557 -0.0453 -0.2875
   49MOL   O46427440   6.935   3.726   0.921 -0.3839  0.1582  0.5885
   49MOL   C46527441   6.650   3.736   0.708 -0.4637  0.0628 -0.5278
   49MOL   C46627442   6.507   3.725   0.708  0.4085 -0.1502 -0.5073
   49MOL   O46727443   6.244   3.665   0.932  0.5824  0.1261  0.1253
   49MOL   H46827444   6.454   3.793   1.037  0.0487 -2.7248  0.8030
   49MOL   H46927445   6.706   3.837   1.031 -1.0560 -1.7272  1.1029
   49MOL   H47027446   6.872   3.894   0.667  0.0791  0.5775  0.7858
   49MOL   H47127447   7.169   3.944   0.785 -1.2831 -2.2644  2.7784
   49MOL   H47227448   7.383   3.899   0.681  0.0665 -0.9514  0.8914
   49MOL   H47327449   7.440   3.601   0.465 -2.0182  0.4902 -0.0362
   49MOL   H47427450   7.219   3.566   0.477 -0.2660  0.7769 -0.9251
   49MOL   H47527451   6.994   3.624   0.540  0.0087 -0.6103  0.0496
   49MOL   H47627452   6.708   3.717   0.618 -0.0081  1.6805 -0.5959
   49MOL   H47727453   6.443   3.698   0.626 -1.0703 -1.7233  1.1506
   49MOL   C47827454   7.570   3.681   0.569  0.7523 -0.3889  0.2691
   49MOL   C47927455   7.643   3.560   0.522  0.7622 -0.1261  0.2162
   49MOL   C48027456   7.721   3.483   0.611  0.0902  0.1763  0.2575
   49MOL   C48127457   7.786   3.365   0.564 -0.0971 -0.1262  0.5846
   49MOL   C48227458   7.788   3.333   0.428  0.0681 -0.2245 -0.3971
   49MOL   C48327459   7.853   3.205   0.378 -0.0833 -0.5338 -0.1788
   49MOL   N48427460   7.843   3.180   0.247  0.0202 -0.3920 -0.7796
   49MOL   C48527461   7.901   3.072   0.178 -0.0090  0.1371  0.1338
   49MOL   C48627462   7.958   2.951   0.228 -0.1462 -0.5945 -0.2853
   49MOL   C48727463   7.991   2.847   0.138 -0.3034  0.7460 -0.6226
   49MOL   C48827464   7.994   2.873   8.144  0.8429 -0.1633 -0.3465
   49MOL   N48927465   8.037   2.781   8.043  0.2709 -0.2466  0.7582
   49MOL   C49027466   7.942   2.996   8.094 -0.7357 -0.5003  0.2736
   49MOL   C49127467   7.897   3.086   0.040 -0.5706  0.5193  0.1451
   49MOL   O49227468   7.908   3.121   0.458 -0.7597 -0.2497 -0.1038
   49MOL   C49327469   7.711   3.417   0.339  0.4307  0.2892 -0.5506
   49MOL   C49427470   7.641   3.532   0.383  0.3643  0.1775 -0.5520
   49MOL   O49527471   7.619   3.780   0.626 -0.1357  0.2241 -0.4968
   49MOL   H49627472   7.733   3.511   0.715 -0.7013  0.8822  0.1665
   49MOL   H49727473   7.845   3.306   0.632 -0.3215  1.1082  1.8860
   49MOL   H49827474   7.808   3.254   0.187  1.4764  2.4079  1.6494
   49MOL   H49927475   7.971   2.928   0.333  0.7759  0.7969 -0.0820
   49MOL   H50027476   8.035   2.758   0.182 -1.2795  0.3264 -0.4698
   49MOL   H50127477   7.985   2.787   7.957  1.1023  1.8069  0.3758
   49MOL   H50227478   7.937   3.017   7.988  1.8273 -0.0779  0.1878
   49MOL   H50327479   7.843   3.165   8.135 -0.7469  0.6687  0.5610
   49MOL   H50427480   7.685   3.375   0.243  2.0228 -1.1726 -0.3776
   49MOL   H50527481   7.609   3.614   0.320  0.7228  1.3895  0.8103
   49MOL   C50627482   8.107   2.668   8.070  0.0462 -0.4844 -0.7677
   49MOL   C50727483   8.073   2.548   7.979  0.0540  0.0380 -0.5463
   49MOL   C50827484   7.990   2.571   7.871  0.2320 -0.1123 -0.1178
   49MOL   C50927485   7.946   2.464   7.796 -0.8258 -0.2378  0.3259
   49MOL   C51027486   7.973   2.334   7.832 -0.0477 -0.2766 -0.4826
   49MOL   C51127487   7.918   2.223   7.745 -0.3521  0.7201  0.3149
   49MOL   N51227488   7.929   2.100   7.798  0.3161  0.4237 -0.0022
   49MOL   C51327489   7.891   1.973   7.746  0.0421  0.3017 -0.3562
   49MOL   C51427490   7.765   1.957   7.682 -0.4869 -0.4481  0.0238
   49MOL   C51527491   7.730   1.830   7.640  0.2423 -0.0885  0.1846
   49MOL   C51627492   7.813   1.715   7.652  0.7284 -0.1169 -0.2960
   49MOL   N51727493   7.776   1.585   7.602  0.1794 -0.0447  0.3642
   49MOL   C51827494   7.933   1.735   7.723 -0.9671  0.3794 -0.0453
   49MOL   C51927495   7.969   1.859   7.771  0.0057  0.2070 -0.4429
   49MOL   O52027496   7.871   2.249   7.633 -0.1404 -0.2603 -0.1103
   49MOL   C52127497   8.069   2.311   7.930  0.0518 -0.0767 -0.7278
   49MOL   C52227498   8.121   2.417   8.007 -0.2884  0.3614 -0.0554
   49MOL   O52327499   0.044   2.658   0.020  0.3178  0.0230  0.3754
   49MOL   H52427500   7.966   2.670   7.834  0.8599 -0.5082 -1.6098
   49MOL   H52527501   7.885   2.491   7.711  0.1352  1.0242  0.0263
   49MOL   H52627502   7.983   2.100   7.883 -0.6723 -3.0747  0.6944
   49MOL   H52727503   7.695   2.039   7.679 -2.4976 -1.8725  4.6036
   49MOL   H52827504   7.631   1.827   7.598  0.1053 -1.2103  0.5739
   49MOL   H52927505   7.835   1.507   7.627  0.1740  0.2339  1.2816
   49MOL   H53027506   8.009   1.658   7.729 -1.1037  0.1054 -1.5075
   49MOL   H53127507   8.057   1.852   7.833 -0.2109  2.3315  0.1506
   49MOL   H53227508   8.118   2.217   7.947  2.0572  1.1603  0.5496
   49MOL   H53327509   0.048   2.394   8.083 -0.0497 -1.4338 -0.8057
   49MOL   C53427510   7.678   1.555   7.520  0.0286  0.4959 -0.1698
   49MOL   C53527511   7.651   1.408   7.502  0.5402 -0.0167  0.1266
   49MOL   C53627512   7.641   1.316   7.607  0.2661  0.1199 -0.7950
   49MOL   C53727513   7.605   1.177   7.593  0.4684  0.7758 -0.3313
   49MOL   C53827514   7.571   1.133   7.464 -0.3191 -0.6420  0.1516
   49MOL   C53927515   7.511   0.999   7.445  0.1314 -0.2650 -0.3007
   49MOL   N54027516   7.537   0.937   7.332 -0.1778  0.0198  0.1988
   49MOL   C54127517   7.481   0.814   7.280  0.1794 -0.2782 -0.7441
   49MOL   C54227518   7.504   0.792   7.141 -0.2746 -0.1552 -0.1017
   49MOL   C54327519   7.440   0.679   7.079 -0.0943 -0.1666 -0.2019
   49MOL   C54427520   7.353   0.589   7.148 -0.1804  0.4978 -0.1865
   49MOL   N54527521   7.288   0.487   7.082 -0.2488  0.3846 -0.4304
   49MOL   C54627522   7.349   0.601   7.288  0.4032  0.2495  0.4273
   49MOL   C54727523   7.401   0.716   7.351  0.5438  0.3589 -0.1241
   49MOL   O54827524   7.429   0.955   7.531 -0.4782  0.0921 -0.1849
   49MOL   C54927525   7.569   1.230   7.359  0.0803 -0.2821  0.1000
   49MOL   C55027526   7.623   1.359   7.372 -0.5058 -0.0321 -0.0624
   49MOL   O55127527   7.628   1.636   7.443  0.3546  0.0804 -0.3156
   49MOL   H55227528   7.644   1.349   7.710  1.6604 -1.6937 -0.2322
   49MOL   H55327529   7.607   1.111   7.679 -0.5075 -1.2098 -1.8004
   49MOL   H55427530   7.602   0.975   7.265  0.9308 -2.3387 -0.1088
   49MOL   H55527531   7.569   0.856   7.083 -2.2189  1.9680 -0.0030
   49MOL   H55627532   7.451   0.676   6.972  0.2797  2.7775 -0.3102
   49MOL   H55727533   7.271   0.505   6.984 -0.0150 -0.0144 -0.5466
   49MOL   H55827534   7.295   0.531   7.349 -0.3030 -0.8855 -1.4328
   49MOL   H55927535   7.382   0.718   7.457 -1.0854 -2.7487 -0.2998
   49MOL   H56027536   7.554   1.201   7.256 -1.5011  1.3434 -0.1512
   49MOL   H56127537   7.639   1.427   7.289  0.0629 -0.6126 -0.4244
   49MOL   H56227538   7.202   0.465   7.129  0.0025  0.6875  0.1860
   50MOL     C127539   0.890   8.119   0.562  0.2845  0.5959 -0.8658
   50MOL     C227540   0.907   8.113   0.414 -0.0989 -0.0244  0.2799
   50MOL     C327541   0.920   7.985   0.358 -0.1629 -0.0360  0.0672
   50MOL     C427542   0.945   7.960   0.224  1.2490 -0.3045 -0.5240
   50MOL     C527543   0.939   8.076   0.146 -0.1521  0.4458  0.2177
   50MOL     C627544   0.954   8.072   0.000  0.7374  0.7195 -1.5698
   50MOL     N727545   0.882   7.985   8.077 -0.1711 -0.4159 -0.3818
   50MOL     C827546   0.895   7.947   7.939  0.4772 -0.4443 -0.6110
   50MOL     C927547   0.866   7.814   7.908 -0.4132 -0.7864  0.0434
   50MOL    C1027548   0.865   7.767   7.773 -0.7780 -0.1088  0.4711
   50MOL    C1127549   0.914   7.843   7.666  0.0533  0.8158  0.3456
   50MOL    N1227550   0.918   7.789   7.544 -0.9327 -0.2905  0.2756
   50MOL    C1327551   0.948   7.976   7.698 -0.2318 -0.3083 -0.0753
   50MOL    C1427552   0.941   8.025   7.829 -0.1257 -1.3806  0.0397
   50MOL    O1527553   1.021   0.015   8.091  0.3894  0.6226  0.2128
   50MOL    C1627554   0.933   0.059   0.201  0.1566  0.1091  0.5141
   50MOL    C1727555   0.912   0.083   0.336 -0.8867  0.9233 -0.0805
   50MOL    O1827556   0.878   0.076   0.628 -0.0169  0.2359 -0.4820
   50MOL    H1927557   0.921   7.900   0.425  0.2247  1.0790  1.4972
   50MOL    H2027558   0.953   7.856   0.198  1.1668  0.0301 -1.9439
   50MOL    H2127559   0.830   7.927   8.141 -0.9319  0.0229 -0.5988
   50MOL    H2227560   0.839   7.753   7.993 -1.5176  1.3125  1.2521
   50MOL    H2327561   0.845   7.662   7.764  0.4078 -0.3985  1.0871
   50MOL    H2427562   0.841   7.731   7.515 -0.2447 -0.6940 -0.7543
   50MOL    H2527563   0.979   8.045   7.621 -0.2245 -0.5482 -0.2872
   50MOL    H2627564   0.965   8.129   7.843  0.6318 -1.5564  0.0954
   50MOL    H2727565   0.954   0.148   0.142  0.5989 -0.9105 -0.8898
   50MOL    H2827566   0.902   0.181   0.378 -0.4187  0.8333  0.2461
   50MOL    H2927567   0.874   8.027   0.618  0.4063  0.0879 -1.6477
   50MOL    C3027568   1.025   7.786   7.461  0.7838  0.2270 -0.2193
   50MOL    C3127569   0.995   7.699   7.343 -0.4490  0.2133  0.5726
   50MOL    C3227570   1.036   7.738   7.215 -0.2396 -0.7052  0.1839
   50MOL    C3327571   1.003   7.658   7.102 -0.1836 -0.1675 -0.2527
   50MOL    C3427572   0.930   7.537   7.114  0.4273 -0.4207 -0.4180
   50MOL    C3527573   0.874   7.471   6.992  0.0664  0.3173  0.4363
   50MOL    N3627574   0.744   7.493   6.954 -0.2155 -0.5169  0.2247
   50MOL    C3727575   0.657   7.598   6.991 -0.0409  0.0086  0.3265
   50MOL    C3827576   0.560   7.626   6.889  0.2501 -0.6946 -1.1405
   50MOL    C3927577   0.467   7.727   6.913 -0.1925 -0.0965 -1.0375
   50MOL    C4027578   0.469   7.805   7.032 -0.6488  0.6590  0.4800
   50MOL    N4127579   0.389   7.921   7.045 -0.1988  0.1935 -0.3678
   50MOL    C4227580   0.564   7.777   7.130  0.7440 -0.3465 -0.5318
   50MOL    C4327581   0.654   7.674   7.109  0.3513  0.2893  0.0497
   50MOL    O4427582   0.947   7.405   6.918  0.0740  0.1991  0.4198
   50MOL    C4527583   0.890   7.494   7.243 -0.0176  0.6657  0.2254
   50MOL    C4627584   0.920   7.579   7.357 -0.3245 -0.1389  0.4266
   50MOL    O4727585   1.127   7.858   7.464  0.1159 -0.1361  0.1303
   50MOL    H4827586   1.076   7.838   7.203 -1.8550  0.1553  1.7369
   50MOL    H4927587   1.011   7.697   7.002 -0.1980 -1.3332 -0.7099
   50MOL    H5027588   0.723   7.443   6.869  1.1823 -0.5753 -0.0957
   50MOL    H5127589   0.555   7.574   6.795 -0.0242  0.7087 -1.9204
   50MOL    H5227590   0.393   7.741   6.836  0.7354 -0.8648 -2.0856
   50MOL    H5327591   0.440   7.998   7.085 -1.1326  0.3125  0.6102
   50MOL    H5427592   0.575   7.852   7.207 -0.4590  0.1692 -0.8490
   50MOL    H5527593   0.734   7.656   7.180 -0.9988  2.7619  2.2938
   50MOL    H5627594   0.828   7.405   7.250  0.8933 -0.1633 -1.6864
   50MOL    H5727595   0.890   7.556   7.458 -2.7585 -0.0186 -0.2275
   50MOL    C5827596   0.259   7.932   7.005  0.2469 -0.0362  0.0550
   50MOL    C5927597   0.191   8.071   7.016  0.0852 -0.6643  0.3577
   50MOL    C6027598   0.247   0.043   7.075  0.1067 -0.5838 -0.3423
   50MOL    C6127599   0.167   0.156   7.096  0.3294  0.2718 -0.5842
   50MOL    C6227600   0.026   0.163   7.058 -0.3027  0.2421 -0.1665
   50MOL    C6327601   8.090   0.286   7.080 -0.2742 -1.0299 -0.1033
   50MOL    N6427602   0.008   0.403   7.059  0.3807  0.5191  0.0783
   50MOL    C6527603   8.112   0.537   7.079  0.2322 -0.2506  0.1310
   50MOL    C6627604   7.974   0.577   7.090  0.0575 -0.3279 -0.2876
   50MOL    C6727605   7.939   0.715   7.109  0.2255  0.7075 -0.4764
   50MOL    C6827606   8.039   0.808   7.129  0.2939  0.1455 -0.4594
   50MOL    N6927607   8.012   0.945   7.162  0.3541  0.1927 -0.0349
   50MOL    C7027608   0.035   0.767   7.125  0.3679 -0.9375  0.2507
   50MOL    C7127609   0.066   0.632   7.097  0.2267 -0.4480 -0.2532
   50MOL    O7227610   7.983   0.281   7.137 -0.5261  0.0939  0.1997
   50MOL    C7327611   8.124   0.047   6.991 -0.0140  0.1452 -0.1145
   50MOL    C7427612   0.055   8.077   6.966 -0.1662 -0.2181 -0.6367
   50MOL    O7527613   0.197   7.836   6.966  0.4224  0.8578  0.1974
   50MOL    H7627614   0.351   0.052   7.102  0.0672 -1.0803 -0.0094
   50MOL    H7727615   0.199   0.238   7.158 -0.8338 -1.3040  2.2169
   50MOL    H7827616   0.103   0.385   7.029 -0.8281 -2.0628 -2.5594
   50MOL    H7927617   7.892   0.508   7.077 -0.3787 -0.2471  1.8877
   50MOL    H8027618   7.837   0.750   7.122  0.4842  0.7061  1.6568
   50MOL    H8127619   8.093   1.005   7.165  0.7289 -0.3362  1.4891
   50MOL    H8227620   0.107   0.840   7.157  0.8322 -1.4417  0.3624
   50MOL    H8327621   0.169   0.602   7.110 -0.2726 -2.5220 -0.8994
   50MOL    H8427622   8.025   0.038   6.949 -1.0155  0.2742  2.1270
   50MOL    H8527623   0.008   7.994   6.915 -2.2897  0.4210  0.2363
   50MOL    C8627624   7.904   1.002   7.214 -0.1068 -0.4412  0.8059
   50MOL    C8727625   7.929   1.144   7.258  1.0691  0.2758  0.8938
   50MOL    C8827626   7.954   1.245   7.164 -0.2734 -0.1288 -0.0613
   50MOL    C8927627   7.977   1.378   7.209 -0.8387 -0.0029  0.3169
   50MOL    C9027628   7.981   1.418   7.342 -0.4972 -0.4421  0.2089
   50MOL    C9127629   8.008   1.558   7.385 -0.2575 -0.2268  0.0588
   50MOL    N9227630   7.935   1.648   7.319  0.3124  0.1900  0.0843
   50MOL    C9327631   7.955   1.778   7.316  0.7885 -0.1753  0.0512
   50MOL    C9427632   8.081   1.833   7.289 -0.4264  0.2387 -0.2408
   50MOL    C9527633   8.109   1.968   7.307  0.3888 -0.0960 -1.0350
   50MOL    C9627634   8.008   2.057   7.323  0.0416  0.1322 -0.6892
   50MOL    N9727635   8.045   2.189   7.354 -0.1664  0.4569  0.0376
   50MOL    C9827636   7.869   2.009   7.335 -0.2287  0.8485  0.4002
   50MOL    C9927637   7.853   1.869   7.333  0.2489  0.0784 -0.5001
   50MOL   O10027638   8.088   1.580   7.481  0.3390 -0.2536  0.6189
   50MOL   C10127639   7.971   1.310   7.433 -0.2504 -0.4707 -0.3325
   50MOL   C10227640   7.954   1.175   7.395  0.3759 -0.1351  0.0970
   50MOL   O10327641   7.795   0.952   7.230  0.4688 -0.0447  0.2902
   50MOL   H10427642   7.952   1.230   7.057  0.6420  1.7067 -0.3568
   50MOL   H10527643   7.969   1.457   7.135 -1.0956 -0.8741 -0.6025
   50MOL   H10627644   7.863   1.607   7.261  0.7840  0.9901 -1.1116
   50MOL   H10727645   0.018   1.764   7.277 -1.1349 -0.6610 -0.0342
   50MOL   H10827646   0.066   2.001   7.305  0.4020 -0.1325 -0.9161
   50MOL   H10927647   7.987   2.232   7.424  1.6093  0.4229  1.5596
   50MOL   H11027648   7.791   2.078   7.364  0.7733  2.2772 -0.2508
   50MOL   H11127649   7.753   1.838   7.359  0.6210 -0.2708  0.5403
   50MOL   H11227650   7.970   1.325   7.540  1.9506 -1.7303 -0.1025
   50MOL   H11327651   7.942   1.099   7.471 -1.0886 -0.0194 -0.0020
   50MOL   C11427652   8.107   2.278   7.273 -0.3131  0.3567  0.1880
   50MOL   C11527653   8.097   2.414   7.323 -0.0967  0.4918  0.1231
   50MOL   C11627654   8.110   2.440   7.462  0.2623  0.1942  0.2215
   50MOL   C11727655   8.079   2.566   7.513  0.2932 -0.3461  0.7782
   50MOL   C11827656   8.043   2.670   7.425 -0.2289  0.0255  0.0421
   50MOL   C11927657   8.014   2.798   7.488  0.4235  0.2958  0.0580
   50MOL   N12027658   7.900   2.856   7.436  0.0109  0.5732  0.3887
   50MOL   C12127659   7.840   2.977   7.479  0.1795  0.2356 -0.6374
   50MOL   C12227660   7.868   3.047   7.596  0.6190 -0.8749  0.1962
   50MOL   C12327661   7.818   3.174   7.621  0.7921 -0.0334  0.2252
   50MOL   C12427662   7.726   3.237   7.529  0.2898  0.3313  0.4515
   50MOL   N12527663   7.683   3.369   7.561  0.0075  0.1460 -0.1642
   50MOL   C12627664   7.686   3.165   7.415 -0.2634  1.1728 -0.3661
   50MOL   C12727665   7.748   3.040   7.394 -1.0023  0.5863  0.2318
   50MOL   O12827666   8.070   2.844   7.588  0.1545  0.5124 -0.2075
   50MOL   C12927667   8.052   2.650   7.285 -0.3816 -0.4985  0.2177
   50MOL   C13027668   8.081   2.523   7.235  0.3734 -0.0537 -0.7627
   50MOL   O13127669   0.007   2.259   7.162  1.0051 -0.2341 -0.2936
   50MOL   H13227670   8.141   2.360   7.528  0.0837 -1.2350 -1.4032
   50MOL   H13327671   8.105   2.594   7.614  2.1961 -1.0242  0.4977
   50MOL   H13427672   7.866   2.814   7.351 -0.3332  2.4974 -0.4423
   50MOL   H13527673   7.938   3.011   7.671 -0.6034  0.6258  2.0872
   50MOL   H13627674   7.850   3.229   7.708 -0.5843 -0.2486  0.8798
   50MOL   H13727675   7.740   3.419   7.628  2.8444 -1.7296 -1.0453
   50MOL   H13827676   7.625   3.202   7.334  1.6512 -0.5190 -2.6615
   50MOL   H13927677   7.732   2.995   7.297  0.7297  0.4315  0.0047
   50MOL   H14027678   8.030   2.732   7.219 -0.1606 -0.9421 -0.4132
   50MOL   H14127679   8.076   2.500   7.129  2.5017 -2.6782 -0.3824
   50MOL   C14227680   7.602   3.453   7.501 -0.4733  0.2298 -0.0828
   50MOL   C14327681   7.618   3.599   7.523 -0.5919 -0.6147 -0.2266
   50MOL   C14427682   7.549   3.691   7.437  0.0019 -0.3988 -0.0607
   50MOL   C14527683   7.567   3.830   7.455 -0.2040 -1.0473  0.0107
   50MOL   C14627684   7.657   3.877   7.555  0.9806 -0.7357  0.4579
   50MOL   C14727685   7.671   4.025   7.574  0.2469  0.3994 -0.5712
   50MOL   N14827686   7.790   4.080   7.569 -0.6425 -0.1102 -0.4235
   50MOL   C14927687   7.914   4.021   7.546  0.0219 -0.6596  0.4550
   50MOL   C15027688   7.987   3.978   7.650 -0.8291 -0.7053  0.0042
   50MOL   C15127689   8.109   3.908   7.631 -0.4276  0.1054  0.7262
   50MOL   C15227690   8.145   3.877   7.493 -0.0674  0.0113 -0.2110
   50MOL   N15327691   0.121   3.807   7.475  0.2489  0.0812  0.5281
   50MOL   C15427692   8.070   3.934   7.387  0.1461  0.4737  0.0069
   50MOL   C15527693   7.960   4.007   7.416 -0.2518 -0.2870  0.0111
   50MOL   O15627694   7.565   4.088   7.582 -0.6495  0.2837 -0.4905
   50MOL   C15727695   7.716   3.780   7.642  0.2117 -1.2400  0.0277
   50MOL   C15827696   7.692   3.644   7.624 -0.0408  0.0340  0.0072
   50MOL   O15927697   7.511   3.413   7.430  0.0759  0.0907  0.2943
   50MOL   H16027698   7.482   3.654   7.362  2.4486 -1.9919 -1.5390
   50MOL   H16127699   7.510   3.899   7.395  1.5916  1.3630  0.9711
   50MOL   H16227700   7.783   4.178   7.542 -1.4869 -0.3261 -1.0188
   50MOL   H16327701   7.961   3.999   7.753  3.2279 -0.5618  1.0615
   50MOL   H16427702   0.026   3.881   7.715  0.8458  1.3675  0.2058
   50MOL   H16527703   0.173   3.808   7.562 -2.4898 -2.7320  2.2714
   50MOL   H16627704   8.109   3.918   7.287 -1.5244  0.5729 -0.6793
   50MOL   H16727705   7.892   4.036   7.337 -0.2122 -0.5659 -0.1266
   50MOL   H16827706   7.783   3.812   7.720 -0.9207 -0.6299  0.7652
   50MOL   H16927707   7.739   3.574   7.692  2.3091 -2.3118 -3.7786
   50MOL   C17027708   0.139   3.695   7.401  0.6742 -0.5612  0.1749
   50MOL   C17127709   0.255   3.607   7.440 -0.5214  0.5572  0.6258
   50MOL   C17227710   0.302   3.508   7.350 -0.6631 -0.1490 -0.4248
   50MOL   C17327711   0.419   3.431   7.368  0.0391 -0.6165  0.0594
   50MOL   C17427712   0.494   3.448   7.488  0.5679 -0.2280 -0.1597
   50MOL   C17527713   0.633   3.386   7.509  0.2121 -0.2628  0.2744
   50MOL   N17627714   0.648   3.269   7.453  0.2623  0.5292  0.8112
   50MOL   C17727715   0.763   3.194   7.415 -0.5764 -0.3330 -0.3776
   50MOL   C17827716   0.895   3.229   7.463  0.3426 -0.2022  0.0863
   50MOL   C17927717   1.007   3.159   7.401 -0.1040 -0.3111 -0.7742
   50MOL   C18027718   0.988   3.064   7.295  0.0471  0.1065 -0.3922
   50MOL   N18127719   1.091   3.006   7.217 -0.0218  0.4170  0.7754
   50MOL   C18227720   0.857   3.030   7.264 -0.5225  0.5476 -0.2205
   50MOL   C18327721   0.749   3.093   7.321 -0.3777 -0.3510 -0.0079
   50MOL   O18427722   0.720   3.448   7.577 -0.5265  0.4629 -0.1361
   50MOL   C18527723   0.450   3.543   7.585 -0.0309  0.5286 -0.5268
   50MOL   C18627724   0.334   3.618   7.558  0.6550 -0.7395 -0.0147
   50MOL   O18727725   0.082   3.675   7.289  0.0373 -0.5361 -0.6497
   50MOL   H18827726   0.247   3.489   7.259 -0.7796  0.4491 -0.4816
   50MOL   H18927727   0.445   3.360   7.291  1.3606 -0.6485  0.5072
   50MOL   H19027728   0.560   3.227   7.428 -0.0953  0.3334  2.3507
   50MOL   H19127729   0.907   3.298   7.545 -1.8514 -0.5475  0.7477
   50MOL   H19227730   1.106   3.181   7.437 -0.3372  1.1887 -1.0130
   50MOL   H19327731   1.103   2.906   7.221  1.2169  0.5843  1.4861
   50MOL   H19427732   0.837   2.963   7.182 -0.5570 -1.4242  1.3471
   50MOL   H19527733   0.650   3.063   7.289  0.5012 -0.1880 -3.0030
   50MOL   H19627734   0.511   3.566   7.671  0.0342 -0.4854 -0.3034
   50MOL   H19727735   0.297   3.684   7.636  3.7096 -0.9611  1.6937
   50MOL   C19827736   1.174   3.078   7.137 -0.7018  0.6617  0.0048
   50MOL   C19927737   1.266   2.983   7.061 -0.1883 -0.1811 -0.3910
   50MOL   C20027738   1.309   2.859   7.112 -0.4564 -0.6079 -0.2785
   50MOL   C20127739   1.399   2.778   7.046  0.3069  0.2615 -0.0457
   50MOL   C20227740   1.457   2.821   6.927  0.2099 -0.6278 -0.1742
   50MOL   C20327741   1.548   2.725   6.854 -0.0989 -0.1501 -0.1898
   50MOL   N20427742   1.660   2.765   6.793  0.2412 -0.0931  0.2682
   50MOL   C20527743   1.724   2.896   6.789 -0.2512 -0.3896 -0.2947
   50MOL   C20627744   1.766   2.960   6.907 -0.3552 -0.1964 -0.4219
   50MOL   C20727745   1.825   3.089   6.900  0.1063 -0.2394 -0.8348
   50MOL   C20827746   1.834   3.161   6.773 -0.1104  0.5018 -0.0676
   50MOL   N20927747   1.899   3.289   6.763  0.4249  0.2862 -0.0606
   50MOL   C21027748   1.795   3.090   6.656  0.3045  0.1680  0.6120
   50MOL   C21127749   1.746   2.959   6.661  0.0052 -0.1115  0.0051
   50MOL   O21227750   1.513   2.609   6.851  0.1148  0.1165 -1.0304
   50MOL   C21327751   1.429   2.952   6.886 -0.2835  0.0535  0.2284
   50MOL   C21427752   1.331   3.031   6.947  0.4145 -0.1009  0.4633
   50MOL   O21527753   1.177   3.203   7.131  0.0871 -0.3218 -0.0299
   50MOL   H21627754   1.270   2.808   7.199 -0.5202  0.1260  0.1241
   50MOL   H21727755   1.430   2.680   7.077  0.9550  0.0053 -1.4615
   50MOL   H21827756   1.706   2.692   6.741  2.5769 -0.1243  2.2885
   50MOL   H21927757   1.761   2.909   7.003 -1.6362  0.2107 -0.2628
   50MOL   H22027758   1.863   3.139   6.987 -1.7965  0.5543 -0.4269
   50MOL   H22127759   1.964   3.321   6.833 -0.5747  1.2528  0.4315
   50MOL   H22227760   1.824   3.132   6.561 -0.9369 -0.9654 -0.3052
   50MOL   H22327761   1.701   2.914   6.574  0.2419  0.9129 -0.6558
   50MOL   H22427762   1.472   2.988   6.794 -0.1088  0.7641  0.5817
   50MOL   H22527763   1.315   3.131   6.909  0.1172 -0.7308 -1.0719
   50MOL   C22627764   1.876   3.385   6.671 -0.6324 -0.4482 -0.0043
   50MOL   C22727765   1.950   3.519   6.694  0.0050  0.1397 -1.0546
   50MOL   C22827766   2.048   3.530   6.796  0.5388  0.1109  0.0661
   50MOL   C22927767   2.117   3.655   6.811  0.2887 -0.0339 -0.2391
   50MOL   C23027768   2.088   3.765   6.724  0.3373 -0.6252  0.1223
   50MOL   C23127769   2.164   3.896   6.738  0.4238  0.0637  0.1702
   50MOL   N23227770   2.174   3.970   6.624 -0.3636 -0.0297 -0.1838
   50MOL   C23327771   2.254   4.086   6.596  0.6828 -0.8360 -0.1597
   50MOL   C23427772   2.335   4.152   6.685  0.4570  0.1506  0.6050
   50MOL   C23527773   2.397   4.274   6.655  0.1241 -0.1488  0.3842
   50MOL   C23627774   2.382   4.328   6.526  0.3137 -0.7694  0.1249
   50MOL   N23727775   2.458   4.446   6.498 -0.1103 -0.3653  0.6401
   50MOL   C23827776   2.299   4.257   6.431  0.5830 -0.0913  0.1802
   50MOL   C23927777   2.234   4.140   6.467  0.1939 -0.4899 -0.7954
   50MOL   O24027778   2.213   3.924   6.846  0.2683 -0.2230  0.0544
   50MOL   C24127779   1.989   3.752   6.624  0.0648 -0.2883  0.4452
   50MOL   C24227780   1.921   3.630   6.611 -0.3082  0.3302 -0.1499
   50MOL   O24327781   1.808   3.372   6.568 -0.2424  0.2430 -0.0793
   50MOL   H24427782   2.087   3.455   6.862 -1.0828 -1.5359 -0.7800
   50MOL   H24527783   2.195   3.674   6.883 -0.7290  3.6982  0.0233
   50MOL   H24627784   2.122   3.936   6.544  2.4961 -2.9699 -0.9186
   50MOL   H24727785   2.335   4.124   6.789  1.2655 -0.0020  0.5645
   50MOL   H24827786   2.453   4.329   6.728 -0.3710  2.1606 -0.9286
   50MOL   H24927787   2.492   4.516   6.563 -1.1245  1.6487 -0.9404
   50MOL   H25027788   2.274   4.305   6.337 -1.7464  0.1267  0.8780
   50MOL   H25127789   2.169   4.087   6.399  0.0324 -0.3752 -0.7300
   50MOL   H25227790   1.964   3.833   6.557  2.1052 -0.4162 -0.4988
   50MOL   H25327791   1.841   3.621   6.539 -0.0660  1.4412 -0.5647
   50MOL   C25427792   2.488   4.492   6.373  0.2822 -0.1512  0.1193
   50MOL   C25527793   2.562   4.620   6.362  0.7721 -0.1965 -0.3182
   50MOL   C25627794   2.547   4.733   6.454  0.6213 -1.0916  0.1337
   50MOL   C25727795   2.621   4.852   6.449 -0.0639  0.3032  0.0607
   50MOL   C25827796   2.722   4.863   6.351 -0.6292 -0.0553  0.6749
   50MOL   C25927797   2.821   4.975   6.351  0.2500  0.0028 -0.1059
   50MOL   N26027798   2.941   4.947   6.409 -0.3416 -0.1175 -0.1806
   50MOL   C26127799   3.025   5.036   6.486  0.3540  0.2185 -0.3933
   50MOL   C26227800   2.981   5.163   6.533  0.5599  0.6363 -0.4393
   50MOL   C26327801   3.068   5.229   6.615 -0.6135  0.1561 -0.0628
   50MOL   C26427802   3.190   5.174   6.664  0.8993  0.1362  0.2429
   50MOL   N26527803   3.261   5.237   6.768  0.2140 -0.3317  0.3385
   50MOL   C26627804   3.226   5.047   6.624 -0.0063  0.1788 -0.6208
   50MOL   C26727805   3.155   4.983   6.522  0.1821 -0.0060 -0.2613
   50MOL   O26827806   2.799   5.086   6.308 -0.5951  0.8652 -0.2218
   50MOL   C26927807   2.741   4.755   6.267 -0.0558  0.1805 -0.3101
   50MOL   C27027808   2.661   4.643   6.260 -1.0757 -0.4219  1.1472
   50MOL   O27127809   2.450   4.438   6.266  0.1331  0.1245  0.2536
   50MOL   H27227810   2.484   4.712   6.539 -0.0974 -1.0109 -0.3734
   50MOL   H27327811   2.606   4.935   6.517  2.3896  0.5741  0.3512
   50MOL   H27427812   2.944   4.850   6.434 -0.9454  0.2073  1.2178
   50MOL   H27527813   2.880   5.196   6.513  0.4413  1.4406  1.4100
   50MOL   H27627814   3.030   5.326   6.644 -0.0577 -0.3476  2.4679
   50MOL   H27727815   3.219   5.318   6.810 -0.1222 -1.3470  1.9899
   50MOL   H27827816   3.311   4.989   6.658  0.6899  1.2744 -0.4689
   50MOL   H27927817   3.193   4.886   6.492 -0.0246 -0.4341  0.8221
   50MOL   H28027818   2.820   4.757   6.194  0.7059 -0.0999  0.5086
   50MOL   H28127819   2.668   4.570   6.180 -1.0016 -0.9779  1.6515
   50MOL   C28227820   3.380   5.204   6.824  0.2354 -0.5005 -1.3240
   50MOL   C28327821   3.394   5.254   6.963 -0.9540  0.4926 -0.2211
   50MOL   C28427822   3.435   5.167   7.062 -0.0900  0.3754  0.5963
   50MOL   C28527823   3.452   5.210   7.193 -0.0221 -0.4740 -0.1864
   50MOL   C28627824   3.428   5.340   7.227  0.7234  1.3523  0.2158
   50MOL   C28727825   3.436   5.389   7.367  0.1777 -0.0404  0.2297
   50MOL   N28827826   3.518   5.327   7.450 -0.8156 -0.2588  0.4939
   50MOL   C28927827   3.529   5.339   7.589  0.2182 -0.1756 -0.5616
   50MOL   C29027828   3.504   5.458   7.665  0.5448  0.9594  0.2676
   50MOL   C29127829   3.520   5.460   7.808 -0.5269  0.6055 -0.8725
   50MOL   C29227830   3.567   5.342   7.867 -0.2849  0.1644 -0.5126
   50MOL   N29327831   3.577   5.339   8.011  0.2863 -0.0315  0.2141
   50MOL   C29427832   3.582   5.226   7.789  0.7385  1.1053  0.6242
   50MOL   C29527833   3.572   5.219   7.651 -0.8233  0.0022  0.1398
   50MOL   O29627834   3.363   5.486   7.406 -0.1963  0.5456 -0.1924
   50MOL   C29727835   3.388   5.435   7.132 -0.4501  0.3721  0.2378
   50MOL   C29827836   3.370   5.390   6.999 -0.1913 -0.0841 -0.1393
   50MOL   O29927837   3.459   5.119   6.778 -0.2565 -0.8904  0.0176
   50MOL   H30027838   3.449   5.065   7.026  0.9254  0.3979  0.9026
   50MOL   H30127839   3.469   5.141   7.275  0.5704 -0.2662 -0.1328
   50MOL   H30227840   3.553   5.240   7.415 -0.8374  1.2760 -3.5952
   50MOL   H30327841   3.477   5.550   7.615  0.4489  2.1399  2.4397
   50MOL   H30427842   3.509   5.546   7.872 -0.1805 -0.2184  0.3108
   50MOL   H30527843   3.529   5.414   8.060  0.8844 -0.3182  1.2592
   50MOL   H30627844   3.604   5.132   7.838 -2.0509 -0.8655 -1.7059
   50MOL   H30727845   3.590   5.129   7.595  0.9417  1.1523 -1.2005
   50MOL   H30827846   3.369   5.538   7.157  0.4174  0.2791  1.3302
   50MOL   H30927847   3.349   5.463   6.922  0.9175 -1.1451 -1.4783
   50MOL   C31027848   3.644   5.254   8.089  0.9002  0.0260 -1.0842
   50MOL   C31127849   3.629   5.292   0.086 -0.0953 -0.8931 -0.6678
   50MOL   C31227850   3.741   5.333   0.166  0.0644 -0.3265  0.2216
   50MOL   C31327851   3.721   5.353   0.306  0.5810  0.0270  0.2891
   50MOL   C31427852   3.601   5.317   0.367  0.6827  0.5375 -0.0044
   50MOL   C31527853   3.581   5.331   0.508 -0.0604  0.8138 -0.9179
   50MOL   N31627854   3.653   5.260   0.598  0.2553  0.7068  0.9043
   50MOL   C31727855   3.718   5.128   0.590 -0.1386 -0.7773 -1.3673
   50MOL   C31827856   3.708   5.044   0.482  0.0039 -0.3125  0.4513
   50MOL   C31927857   3.760   4.914   0.480 -0.2860 -1.3868 -0.4602
   50MOL   C32027858   3.836   4.868   0.589  0.1719 -0.5035 -0.2776
   50MOL   N32127859   3.895   4.736   0.604 -0.2473  0.1904  0.3088
   50MOL   C32227860   3.860   4.952   0.690 -0.1238  0.3117 -0.1296
   50MOL   C32327861   3.791   5.077   0.698 -0.1291  0.3275  0.0612
   50MOL   O32427862   3.503   5.414   0.549  0.1782 -0.0432  0.0776
   50MOL   C32527863   3.491   5.280   0.286  0.0339 -0.3056 -0.0302
   50MOL   C32627864   3.505   5.270   0.148  0.4369  0.6591  0.3466
   50MOL   O32727865   3.723   5.170   8.050 -0.1159  0.1672 -0.3407
   50MOL   H32827866   3.839   5.349   0.122  0.6773 -0.9078  1.3530
   50MOL   H32927867   3.807   5.389   0.361  1.7612 -2.5110  0.1472
   50MOL   H33027868   3.646   5.294   0.693 -1.8967 -0.2495  1.1372
   50MOL   H33127869   3.642   5.064   0.399  0.8396 -2.3947 -0.7456
   50MOL   H33227870   3.737   4.852   0.394 -0.1494 -0.7550 -0.9563
   50MOL   H33327871   3.942   4.711   0.689 -0.5488  0.8175  0.6680
   50MOL   H33427872   3.917   4.909   0.771  0.4814 -1.4310 -1.4487
   50MOL   H33527873   3.809   5.138   0.785  3.3917  0.2517 -0.5390
   50MOL   H33627874   3.393   5.265   0.330 -0.0978  1.6761  0.3831
   50MOL   H33727875   3.426   5.238   0.082 -0.5474  0.5596  1.5541
   50MOL   C33827876   3.864   4.622   0.542  0.1985  0.3009 -0.0658
   50MOL   C33927877   3.904   4.499   0.623  0.0018 -0.3918  1.0074
   50MOL   C34027878   3.815   4.392   0.635 -0.4395 -0.0159  0.7609
   50MOL   C34127879   3.856   4.275   0.704 -0.9641 -0.3471  0.0960
   50MOL   C34227880   3.986   4.252   0.746 -0.4287 -0.2489 -0.1733
   50MOL   C34327881   4.023   4.129   0.827  0.2620  0.2973 -0.0128
   50MOL   N34427882   4.149   4.107   0.863 -0.0710  0.2997 -0.5651
   50MOL   C34527883   4.205   3.979   0.912  0.3557  0.4001  0.1402
   50MOL   C34627884   4.297   3.973   1.020 -0.1185  0.3388  0.6121
   50MOL   C34727885   4.368   3.854   1.062 -0.2758 -0.3103  0.4378
   50MOL   C34827886   4.349   3.738   0.990  0.6274  0.2756 -0.2519
   50MOL   N34927887   4.417   3.615   1.020  0.0826  0.4888  0.0847
   50MOL   C35027888   4.243   3.735   0.895  0.1807  0.6475 -0.7597
   50MOL   C35127889   4.167   3.852   0.858 -0.8726  0.3545  0.4074
   50MOL   O35227890   3.926   4.055   0.856 -0.0945  0.5187 -0.0130
   50MOL   C35327891   4.083   4.358   0.721 -0.3067  0.6445  0.4304
   50MOL   C35427892   4.038   4.482   0.664  0.4710 -0.1126  0.1317
   50MOL   O35527893   3.794   4.615   0.439 -0.5983 -0.2959  0.5858
   50MOL   H35627894   3.715   4.394   0.594 -0.4010 -1.1695  0.6044
   50MOL   H35727895   3.780   4.200   0.718 -0.2569 -1.3305 -1.1764
   50MOL   H35827896   4.216   4.181   0.846 -0.6806  0.9994  0.0430
   50MOL   H35927897   4.327   4.061   1.076 -0.8371 -0.4655  2.2837
   50MOL   H36027898   4.447   3.868   1.134 -0.1325  0.9648  0.0408
   50MOL   H36127899   4.356   3.537   1.037 -0.8219  0.4802 -3.0207
   50MOL   H36227900   4.219   3.641   0.849  2.2466 -1.2089  1.8093
   50MOL   H36327901   4.089   3.846   0.783 -0.1256 -1.2691 -0.2712
   50MOL   H36427902   4.185   4.356   0.756  0.5805  1.6019 -1.9966
   50MOL   H36527903   4.109   4.563   0.654  3.0326 -2.1449  1.1235
   50MOL   C36627904   4.548   3.591   1.044  0.2729 -0.1945 -0.0996
   50MOL   C36727905   4.656   3.694   1.006 -0.9027  0.2941 -0.9638
   50MOL   C36827906   4.773   3.709   1.088 -0.6527  0.3284  0.6209
   50MOL   C36927907   4.875   3.800   1.048  0.2482  0.4737 -0.2182
   50MOL   C37027908   4.855   3.888   0.940  0.2508 -0.7693 -0.1873
   50MOL   C37127909   4.950   4.006   0.915  0.1919 -0.5158  0.1117
   50MOL   N37227910   5.012   4.050   1.023  0.1239 -0.1503 -0.8597
   50MOL   C37327911   5.063   4.177   1.045  0.0094 -0.6792  0.3978
   50MOL   C37427912   5.003   4.271   1.130  0.2397  0.5283  0.3205
   50MOL   C37527913   5.062   4.392   1.160 -0.5969  0.2327  0.1125
   50MOL   C37627914   5.189   4.426   1.099  0.3807  0.2852 -0.0866
   50MOL   N37727915   5.260   4.545   1.131  0.2388 -0.1119 -0.1251
   50MOL   C37827916   5.250   4.330   1.018  0.4111 -0.7180 -0.7557
   50MOL   C37927917   5.185   4.208   0.982  0.6022  0.6846  0.3972
   50MOL   O38027918   4.963   4.066   0.805  0.4211  0.2905  0.5679
   50MOL   C38127919   4.737   3.873   0.865  0.1579  0.5569  0.1353
   50MOL   C38227920   4.641   3.772   0.888  0.9221  0.0896  0.8203
   50MOL   O38327921   4.587   3.493   1.114 -0.1285 -0.0606 -0.1551
   50MOL   H38427922   4.783   3.651   1.179  0.8236  1.0154  0.8936
   50MOL   H38527923   4.961   3.803   1.113 -0.3100  1.8311  0.5015
   50MOL   H38627924   5.021   3.992   1.105 -0.7412  0.8235 -0.0711
   50MOL   H38727925   4.915   4.252   1.190 -1.2508 -0.1869 -2.0262
   50MOL   H38827926   5.007   4.453   1.230  0.0164 -0.8646  1.5644
   50MOL   H38927927   5.352   4.528   1.170 -1.1177 -1.9368  2.4714
   50MOL   H39027928   5.344   4.348   0.969 -0.8499 -0.2146 -3.0554
   50MOL   H39127929   5.227   4.130   0.921  0.0074  1.2683 -0.7631
   50MOL   H39227930   4.733   3.942   0.782  0.4397  1.3477  0.7760
   50MOL   H39327931   4.554   3.777   0.825  0.1178  4.3193  2.1138
   50MOL   C39427932   5.202   4.667   1.123 -0.0289 -1.2108 -0.1232
   50MOL   C39527933   5.278   4.779   1.186  0.9773  0.3497  0.7519
   50MOL   C39627934   5.363   4.756   1.290  0.3068 -0.5215 -0.0281
   50MOL   C39727935   5.423   4.864   1.353 -0.4277 -0.4739 -0.6171
   50MOL   C39827936   5.396   4.993   1.312 -0.1247 -0.6019  0.6998
   50MOL   C39927937   5.457   5.109   1.383 -0.0366  0.4134 -0.0932
   50MOL   N40027938   5.593   5.115   1.379  0.0223  0.6409  0.2276
   50MOL   C40127939   5.684   5.217   1.423  0.0134  0.2020 -0.4039
   50MOL   C40227940   5.644   5.346   1.442  0.1881 -0.1154 -0.2123
   50MOL   C40327941   5.733   5.443   1.481  0.2312  0.0887 -0.1317
   50MOL   C40427942   5.866   5.418   1.510  1.0749  0.8286  0.5537
   50MOL   N40527943   5.951   5.529   1.542  0.4771 -0.0150  0.1275
   50MOL   C40627944   5.913   5.288   1.502  0.6859  0.0585 -0.4376
   50MOL   C40727945   5.820   5.190   1.452  0.4479 -0.3716 -0.0184
   50MOL   O40827946   5.380   5.179   1.454 -0.1500 -0.0490 -0.0734
   50MOL   C40927947   5.319   5.019   1.197  0.4977  0.0945  0.2131
   50MOL   C41027948   5.255   4.913   1.138  1.1040 -0.1841 -0.3460
   50MOL   O41127949   5.100   4.688   1.057 -0.2581 -0.1154 -0.2961
   50MOL   H41227950   5.379   4.657   1.331  2.1635 -0.6142 -0.8882
   50MOL   H41327951   5.499   4.851   1.429 -0.1538  1.3229 -0.5522
   50MOL   H41427952   5.630   5.042   1.320  2.6934  0.7891  1.6409
   50MOL   H41527953   5.540   5.371   1.427 -0.5537 -1.6993  2.0843
   50MOL   H41627954   5.695   5.543   1.498 -1.5361 -0.7166  0.8519
   50MOL   H41727955   5.904   5.615   1.567  1.2278  0.4144  0.0594
   50MOL   H41827956   6.016   5.264   1.523  0.8897 -0.6182 -2.1332
   50MOL   H41927957   5.865   5.093   1.438 -0.8266 -0.9799  0.1120
   50MOL   H42027958   5.307   5.118   1.156  0.2196 -0.7367 -1.7581
   50MOL   H42127959   5.190   4.931   1.053  0.1309 -0.6858  0.2802
   50MOL   C42227960   6.079   5.541   1.507  0.5926  0.5685 -0.3950
   50MOL   C42327961   6.139   5.675   1.512  0.2582 -0.0834 -0.5197
   50MOL   C42427962   6.096   5.760   1.616  0.6867  0.0748  0.4827
   50MOL   C42527963   6.159   5.883   1.637  0.4348  0.7080  0.4161
   50MOL   C42627964   6.269   5.912   1.552 -0.5407 -0.0956 -0.2063
   50MOL   C42727965   6.338   6.040   1.570 -0.0371 -0.1653 -0.1658
   50MOL   N42827966   6.354   6.082   1.699 -0.2553 -0.6558  0.1257
   50MOL   C42927967   6.380   6.217   1.742 -0.1721  0.3799  0.5966
   50MOL   C43027968   6.441   6.226   1.865 -0.8857 -1.2321 -0.1176
   50MOL   C43127969   6.453   6.345   1.933 -0.1860  0.2935 -0.4275
   50MOL   C43227970   6.410   6.463   1.869  0.6822 -0.1661  0.5115
   50MOL   N43327971   6.387   6.586   1.941 -0.2998  0.3267 -0.4198
   50MOL   C43427972   6.361   6.458   1.736 -0.3746 -0.2556 -0.1313
   50MOL   C43527973   6.349   6.335   1.668 -0.0967  0.4851 -0.5996
   50MOL   O43627974   6.391   6.103   1.478 -0.0830  0.1352 -0.6947
   50MOL   C43727975   6.316   5.832   1.449  0.3668 -0.3846 -1.1250
   50MOL   C43827976   6.244   5.711   1.427 -0.6117 -0.4253 -0.4495
   50MOL   O43927977   6.147   5.449   1.460  0.3049  0.7347 -0.3726
   50MOL   H44027978   6.015   5.746   1.687  2.0092 -0.9902  1.8147
   50MOL   H44127979   6.147   5.947   1.723 -1.3830 -0.3582  0.9825
   50MOL   H44227980   6.344   6.010   1.769  0.1499  0.5983  1.5019
   50MOL   H44327981   6.478   6.134   1.909 -0.4480 -0.0629  1.9956
   50MOL   H44427982   6.495   6.345   2.033  2.1325 -3.1802 -1.3134
   50MOL   H44527983   6.354   6.661   1.881  1.6555  0.2169 -1.6910
   50MOL   H44627984   6.314   6.541   1.685 -1.6818 -0.4379  0.7381
   50MOL   H44727985   6.306   6.329   1.569 -0.4669  1.3230 -0.4945
   50MOL   H44827986   6.402   5.861   1.390 -1.0589  0.6330 -2.7722
   50MOL   H44927987   6.286   5.648   1.350  1.7645  1.9670 -1.1925
   50MOL   C45027988   6.373   6.609   2.064  0.1898 -0.5501  0.2895
   50MOL   C45127989   6.330   6.747   2.107  0.5570  0.1018  0.8654
   50MOL   C45227990   6.392   6.810   2.217 -0.5420  0.5003  0.1895
   50MOL   C45327991   6.370   6.947   2.245  0.1211 -0.5634  0.0883
   50MOL   C45427992   6.267   7.010   2.177 -0.0878  0.0452  0.2001
   50MOL   C45527993   6.224   7.151   2.207 -0.0198  0.6374  0.2629
   50MOL   N45627994   6.214   7.179   2.336  0.6165 -0.0991 -0.4138
   50MOL   C45727995   6.150   7.288   2.389 -0.1279 -0.4734 -0.6626
   50MOL   C45827996   6.188   7.422   2.352  0.0640 -0.9266 -0.1540
   50MOL   C45927997   6.123   7.537   2.407 -0.1924 -0.0279  0.0066
   50MOL   C46027998   6.013   7.525   2.494  1.0260 -0.3512  0.2966
   50MOL   N46127999   5.922   7.624   2.532  0.0958  0.8462 -0.4802
   50MOL   C46228000   5.985   7.397   2.539 -0.2162 -0.4735  0.5373
   50MOL   C46328001   6.051   7.280   2.486  0.1253 -0.5614 -0.3502
   50MOL   O46428002   6.200   7.235   2.116 -0.2003  0.4952 -0.1221
   50MOL   C46528003   6.200   6.945   2.069  0.2888  0.7903 -0.8840
   50MOL   C46628004   6.223   6.812   2.037  0.5127 -0.4289 -0.9285
   50MOL   O46728005   6.392   6.524   2.148 -0.1375  0.2497 -0.4879
   50MOL   H46828006   6.468   6.751   2.265 -1.2143  0.1197  0.7966
   50MOL   H46928007   6.426   6.998   2.322 -2.1199  0.9361  0.7632
   50MOL   H47028008   6.223   7.096   2.393  1.5259  0.7930  0.7824
   50MOL   H47128009   6.257   7.436   2.270 -2.4106  0.1675 -2.1126
   50MOL   H47228010   6.159   7.634   2.377  0.9636 -0.6403 -0.5725
   50MOL   H47328011   5.840   7.586   2.577  1.2480 -0.8193  0.2339
   50MOL   H47428012   5.900   7.369   2.600  0.9740 -1.3645  1.8275
   50MOL   H47528013   6.015   7.182   2.515  0.6544 -0.6253  0.1046
   50MOL   H47628014   6.121   6.995   2.016 -1.3926  0.2641  1.0950
   50MOL   H47728015   6.168   6.778   1.950 -0.4920  1.0992 -0.9120
   50MOL   C47828016   5.925   7.752   2.513  0.2362 -0.0930  0.0286
   50MOL   C47928017   5.789   7.814   2.538 -0.5309 -0.3484  0.4350
   50MOL   C48028018   5.771   7.892   2.655 -0.6639 -0.3047 -0.8742
   50MOL   C48128019   5.639   7.941   2.685 -0.0394  1.1793 -0.0585
   50MOL   C48228020   5.532   7.912   2.598  0.2272 -0.0015 -0.1784
   50MOL   C48328021   5.396   7.965   2.626 -0.2592  0.1503  0.2627
   50MOL   N48428022   5.298   7.879   2.645  0.1220  1.1093 -0.7123
   50MOL   C48528023   5.308   7.733   2.637 -0.5622  0.7332 -0.7397
   50MOL   C48628024   5.280   7.666   2.520 -0.8119  0.3045  0.1834
   50MOL   C48728025   5.293   7.526   2.502 -0.5041 -0.2514 -0.0739
   50MOL   C48828026   5.327   7.446   2.613  0.2744  0.3852  0.3798
   50MOL   N48928027   5.336   7.309   2.610  1.0008 -0.0179  0.2340
   50MOL   C49028028   5.353   7.515   2.733  0.5180  0.5416 -0.7917
   50MOL   C49128029   5.342   7.655   2.747  0.9690  1.0030  0.0356
   50MOL   O49228030   5.375   8.086   2.623  0.1279  0.2580  0.0910
   50MOL   C49328031   5.559   7.849   2.477 -0.1023  1.0439  0.1400
   50MOL   C49428032   5.685   7.796   2.443 -0.1971  0.9249 -0.5903
   50MOL   O49528033   6.026   7.812   2.476 -0.3661 -0.0296 -0.4634
   50MOL   H49628034   5.857   7.905   2.719  0.4652 -1.6537 -2.0750
   50MOL   H49728035   5.626   7.975   2.787  2.0540 -2.2820  1.4547
   50MOL   H49828036   5.203   7.914   2.642  0.8293  3.1464  0.1035
   50MOL   H49928037   5.251   7.713   2.427  0.1233 -2.0831 -1.3731
   50MOL   H50028038   5.272   7.476   2.408  0.7728 -1.0396  0.0436
   50MOL   H50128039   5.374   7.257   2.688  3.3698 -0.2484 -1.0350
   50MOL   H50228040   5.383   7.475   2.828 -1.0754 -0.3502 -0.6621
   50MOL   H50328041   5.371   7.699   2.841  0.2606  0.0460  0.7049
   50MOL   H50428042   5.478   7.852   2.405 -0.8780  1.3589  1.0071
   50MOL   H50528043   5.709   7.753   2.347  0.1983  1.0291 -0.5376
   50MOL   C50628044   5.302   7.225   2.515 -1.4624  0.3074 -0.3821
   50MOL   C50728045   5.325   7.084   2.566  0.5426  0.3712  0.3505
   50MOL   C50828046   5.262   7.031   2.681  0.2310 -0.2162 -0.7169
   50MOL   C50928047   5.295   6.898   2.725 -0.2568  0.0202  0.8732
   50MOL   C51028048   5.387   6.815   2.648 -0.5494  0.6730  0.2992
   50MOL   C51128049   5.424   6.675   2.688  0.5972  0.5407  0.4894
   50MOL   N51228050   5.347   6.622   2.787  0.5965  0.4171  0.1849
   50MOL   C51328051   5.358   6.492   2.839 -0.5685 -0.3484 -0.0223
   50MOL   C51428052   5.486   6.431   2.851  0.1501  0.3637  0.1242
   50MOL   C51528053   5.493   6.301   2.902 -0.5859 -0.3208 -0.4265
   50MOL   C51628054   5.377   6.232   2.940 -0.2254 -0.5890 -0.2932
   50MOL   N51728055   5.385   6.109   3.002 -0.5246 -0.0358 -0.5666
   50MOL   C51828056   5.253   6.298   2.931  0.3448  0.3597  0.0392
   50MOL   C51928057   5.243   6.424   2.880 -0.3231  0.5663  0.3720
   50MOL   O52028058   5.522   6.624   2.642 -0.3341 -0.2941  0.1450
   50MOL   C52128059   5.450   6.878   2.536 -0.2428  0.7536  0.4433
   50MOL   C52228060   5.423   7.006   2.493 -0.0306 -0.8711 -0.3893
   50MOL   O52328061   5.282   7.243   2.396 -0.0784 -0.3753 -0.0546
   50MOL   H52428062   5.188   7.092   2.731  1.9627  0.3706  1.1763
   50MOL   H52528063   5.265   6.861   2.821  2.3793 -1.9170  1.0292
   50MOL   H52628064   5.255   6.664   2.785 -0.7604 -2.4820 -2.5223
   50MOL   H52728065   5.581   6.471   2.819  1.1697 -1.1784  1.2039
   50MOL   H52828066   5.596   6.266   2.900  0.1984  2.0004 -2.4472
   50MOL   H52928067   5.303   6.083   3.055 -1.1231  1.1926 -0.8864
   50MOL   H53028068   5.166   6.243   2.965  0.0506  0.5633 -0.3697
   50MOL   H53128069   5.152   6.482   2.880 -1.4466 -1.0719 -3.3626
   50MOL   H53228070   5.523   6.819   2.482  0.2635  3.0515 -1.4474
   50MOL   H53328071   5.473   7.054   2.410 -2.7500  2.9915  0.0654
   50MOL   C53428072   5.474   6.014   2.979 -0.0878 -0.7775 -0.0566
   50MOL   C53528073   5.452   5.879   3.043 -0.2566  0.4738  0.5678
   50MOL   C53628074   5.557   5.812   3.107 -0.3513 -0.2324 -0.0163
   50MOL   C53728075   5.541   5.682   3.166  0.0241 -0.0322  0.2251
   50MOL   C53828076   5.417   5.624   3.162  0.4744  0.2000 -0.4118
   50MOL   C53928077   5.399   5.488   3.222 -0.7625  0.4176  0.4406
   50MOL   N54028078   5.351   5.399   3.138  0.4686 -0.3326  0.1654
   50MOL   C54128079   5.356   5.254   3.140 -0.0775  0.1041 -0.0563
   50MOL   C54228080   5.459   5.187   3.209 -0.6577  0.3827  0.1584
   50MOL   C54328081   5.479   5.050   3.207  0.0346 -0.5368  0.2787
   50MOL   C54428082   5.387   4.971   3.137  0.7169 -0.1853 -0.2227
   50MOL   N54528083   5.408   4.834   3.135 -0.4629  0.2231 -0.6350
   50MOL   C54628084   5.287   5.036   3.068  0.5837  0.1907 -0.3186
   50MOL   C54728085   5.273   5.173   3.063  0.3073  0.0955  0.0166
   50MOL   O54828086   5.432   5.461   3.339  0.3665  0.0211 -0.0209
   50MOL   C54928087   5.311   5.687   3.103  0.0564  0.3515 -0.0886
   50MOL   C55028088   5.329   5.809   3.036 -0.4769  0.9252 -0.1495
   50MOL   O55128089   5.582   6.032   2.924  0.0034 -0.6525 -0.2796
   50MOL   H55228090   5.653   5.862   3.111  0.4108 -1.6610 -0.0591
   50MOL   H55328091   5.612   5.636   3.233 -0.6694 -2.8225 -0.8926
   50MOL   H55428092   5.322   5.440   3.050 -0.7731 -1.9662 -0.2131
   50MOL   H55528093   5.532   5.247   3.262  1.2363 -0.1880 -1.7408
   50MOL   H55628094   5.562   4.998   3.252  0.4861  0.6771  0.8837
   50MOL   H55728095   5.323   4.789   3.106 -0.0579 -1.4750  0.7804
   50MOL   H55828096   5.212   4.979   3.015  2.4328  0.1372 -3.0031
   50MOL   H55928097   5.189   5.207   3.004  0.5430  1.3789  0.3999
   50MOL   H56028098   5.213   5.642   3.112 -0.4309  1.3114 -0.4577
   50MOL   H56128099   5.255   5.852   2.970 -2.0802 -1.3873  0.0696
   50MOL   H56228100   5.459   4.798   3.214  0.0002  0.3662 -0.8632
   51MOL     C128101   6.202   3.664   7.483 -0.8782  0.5590  0.1572
   51MOL     C228102   6.224   3.768   7.593  0.9695  0.1102  0.1954
   51MOL     C328103   6.166   3.749   7.718 -0.0027 -0.1670 -0.2010
   51MOL     C428104   6.190   3.844   7.817 -0.1644 -0.5547 -0.1479
   51MOL     C528105   6.269   3.959   7.798  0.2356 -0.6956 -0.1937
   51MOL     C628106   6.308   4.049   7.911 -0.5618 -0.3903  0.1106
   51MOL     N728107   6.340   4.175   7.894  0.3786 -0.0142 -0.5437
   51MOL     C828108   6.361   4.268   8.002  0.3824 -0.9498 -0.0422
   51MOL     C928109   6.261   4.363   8.030  0.2839 -0.4211 -0.0068
   51MOL    C1028110   6.269   4.444   0.002 -0.0144  0.1500  1.2143
   51MOL    C1128111   6.375   4.428   0.093 -0.3917 -0.2224  0.5032
   51MOL    N1228112   6.374   4.510   0.207 -1.0267 -0.2422 -0.3612
   51MOL    C1328113   6.476   4.329   0.063 -0.7251 -0.8428 -0.2953
   51MOL    C1428114   6.469   4.254   8.093 -0.8210 -0.1220 -0.0736
   51MOL    O1528115   6.292   3.998   8.021  0.2638 -0.0230  0.6400
   51MOL    C1628116   6.326   3.978   7.670 -0.9475 -0.9107  0.8021
   51MOL    C1728117   6.297   3.886   7.566  0.5116  0.0104  0.3101
   51MOL    O1828118   6.190   3.542   7.505  0.0590  0.4514  0.3025
   51MOL    H1928119   6.115   3.658   7.747 -0.9123  0.8997  1.6800
   51MOL    H2028120   6.137   3.815   7.906 -2.2655 -2.1818 -1.8627
   51MOL    H2128121   6.333   4.219   7.803 -0.3080 -1.0872 -1.0262
   51MOL    H2228122   6.183   4.388   7.960  0.3494  3.6770  1.2817
   51MOL    H2328123   6.197   4.523   0.013 -0.3685  0.0984 -0.5525
   51MOL    H2428124   6.308   4.586   0.198  0.3793  0.7938 -2.3898
   51MOL    H2528125   6.560   4.314   0.130 -1.4360  0.5810  0.9315
   51MOL    H2628126   6.531   4.167   8.077 -0.1822 -0.4991  3.9235
   51MOL    H2728127   6.392   4.061   7.651 -0.6478 -0.8232  2.1308
   51MOL    H2828128   6.327   3.903   7.463  0.4422 -1.8334 -0.0464
   51MOL    H2928129   6.220   3.699   7.382 -1.1322  0.7651  0.1841
   51MOL    C3028130   6.458   4.510   0.314  0.1820 -0.1433 -0.7800
   51MOL    C3128131   6.426   4.607   0.427  0.2531 -0.4379 -0.0872
   51MOL    C3228132   6.524   4.672   0.507 -0.0123  0.0772 -0.0899
   51MOL    C3328133   6.495   4.743   0.625 -0.8157  0.0313 -0.0797
   51MOL    C3428134   6.364   4.773   0.650  0.8556 -0.4446 -0.3379
   51MOL    C3528135   6.329   4.866   0.762  0.8581  0.6708  0.2525
   51MOL    N3628136   6.236   4.841   0.855 -0.3922 -0.3489 -0.3986
   51MOL    C3728137   6.160   4.724   0.873 -0.0555 -0.3164  0.8568
   51MOL    C3828138   6.032   4.734   0.923  0.5887 -0.1600  0.2429
   51MOL    C3928139   5.949   4.617   0.934  0.4991 -0.5110  0.3205
   51MOL    C4028140   6.001   4.494   0.894 -0.3203  0.9060 -0.5192
   51MOL    N4128141   5.915   4.383   0.890 -0.2860 -0.8621  0.5657
   51MOL    C4228142   6.131   4.479   0.846 -0.0019  0.2910 -0.6612
   51MOL    C4328143   6.220   4.591   0.847  0.1386  0.7661  0.0008
   51MOL    O4428144   6.398   4.966   0.775 -0.2475 -0.2158 -0.2655
   51MOL    C4528145   6.263   4.714   0.573  0.1707 -0.4163  0.0276
   51MOL    C4628146   6.288   4.629   0.465  0.5044  0.7022 -0.1771
   51MOL    O4728147   6.569   4.451   0.332 -0.9876  0.1114 -0.3264
   51MOL    H4828148   6.627   4.663   0.478 -0.3840 -3.0106 -0.6865
   51MOL    H4928149   6.576   4.778   0.688 -1.7742  0.1144  1.1114
   51MOL    H5028150   6.227   4.918   0.920 -1.0933  0.4536 -1.4246
   51MOL    H5128151   5.993   4.831   0.951  0.3701 -0.1945  0.0642
   51MOL    H5228152   5.849   4.636   0.969  0.0853 -0.8012 -0.6892
   51MOL    H5328153   5.828   4.402   0.842 -0.4631 -3.1322 -0.0790
   51MOL    H5428154   6.167   4.384   0.809 -1.1113 -0.1024 -0.7496
   51MOL    H5528155   6.322   4.580   0.816  0.1449 -0.7252  0.5157
   51MOL    H5628156   6.158   4.735   0.588  0.2092 -0.8395  0.9387
   51MOL    H5728157   6.201   4.587   0.416 -0.9375 -0.1661  3.0081
   51MOL    C5828158   5.944   4.262   0.934  0.0825 -0.7992  0.7985
   51MOL    C5928159   5.851   4.149   0.907 -0.0206 -1.0388  0.4736
   51MOL    C6028160   5.735   4.165   0.823 -0.6006 -0.6539 -0.1781
   51MOL    C6128161   5.638   4.061   0.809 -0.1588 -0.9909  0.3745
   51MOL    C6228162   5.655   3.935   0.878  0.0917 -0.6007 -0.2391
   51MOL    C6328163   5.545   3.827   0.880 -0.0436  0.9458 -0.0434
   51MOL    N6428164   5.466   3.825   0.767  0.8263 -0.4856 -0.2935
   51MOL    C6528165   5.334   3.769   0.765 -0.1965  0.6404  0.5214
   51MOL    C6628166   5.229   3.840   0.708  0.6071  0.2106  0.2904
   51MOL    C6728167   5.099   3.787   0.700 -0.7035  0.1445  0.0206
   51MOL    C6828168   5.074   3.659   0.754 -0.2992 -0.2095  0.0680
   51MOL    N6928169   4.944   3.608   0.724 -0.0764 -0.0969 -0.0232
   51MOL    C7028170   5.178   3.586   0.815 -0.8101 -0.0612 -0.0702
   51MOL    C7128171   5.315   3.641   0.813 -0.1835 -0.8436 -0.5089
   51MOL    O7228172   5.541   3.748   0.967 -0.5028 -0.0551  0.3373
   51MOL    C7328173   5.775   3.924   0.956 -0.4478  0.7566 -0.3248
   51MOL    C7428174   5.871   4.026   0.967 -0.2250 -0.2671 -0.4016
   51MOL    O7528175   6.049   4.236   1.003  0.9086  0.0588  0.1520
   51MOL    H7628176   5.724   4.260   0.773  0.3688  0.1543  1.0944
   51MOL    H7728177   5.551   4.070   0.747 -0.4186 -1.4318  0.6784
   51MOL    H7828178   5.503   3.877   0.689  0.0683 -0.2876 -0.5274
   51MOL    H7928179   5.247   3.937   0.663  0.7251  0.8517  1.6894
   51MOL    H8028180   5.013   3.842   0.667 -0.3588  0.3511 -0.5253
   51MOL    H8128181   4.877   3.675   0.691  1.1893  1.0778 -0.2772
   51MOL    H8228182   5.156   3.487   0.852  1.2431 -0.2344  0.7579
   51MOL    H8328183   5.400   3.582   0.844  1.9835  0.8643 -3.0271
   51MOL    H8428184   5.796   3.825   0.994  4.6280  0.3595 -3.5657
   51MOL    H8528185   5.963   4.006   1.020 -0.4505 -1.3697 -0.4156
   51MOL    C8628186   4.886   3.487   0.756  0.1723 -0.1161  0.6061
   51MOL    C8728187   4.742   3.469   0.706  0.4917 -0.8675  0.4421
   51MOL    C8828188   4.678   3.548   0.604 -0.5037 -0.2447 -0.0866
   51MOL    C8928189   4.548   3.518   0.559 -0.0862  0.2260  0.5224
   51MOL    C9028190   4.479   3.410   0.610 -0.2633  0.2035 -0.4305
   51MOL    C9128191   4.337   3.388   0.568  0.3394  0.7009  0.0088
   51MOL    N9228192   4.261   3.336   0.664 -0.0325 -0.5999 -0.3141
   51MOL    C9328193   4.128   3.291   0.653 -0.2720 -0.1966  0.3621
   51MOL    C9428194   4.034   3.338   0.555  0.5377  0.2551 -1.0256
   51MOL    C9528195   3.900   3.303   0.550 -0.2648  0.3695 -0.6663
   51MOL    C9628196   3.854   3.197   0.631  0.4444  0.1554  0.3048
   51MOL    N9728197   3.717   3.155   0.625  0.1609  0.4644 -0.5124
   51MOL    C9828198   3.942   3.140   0.729  0.1124 -0.5702  0.2428
   51MOL    C9928199   4.077   3.192   0.738 -0.0080 -0.1622 -0.0083
   51MOL   O10028200   4.294   3.434   0.462  0.1113  0.4987 -0.3479
   51MOL   C10128201   4.550   3.329   0.706 -0.4758  0.1029  0.4007
   51MOL   C10228202   4.675   3.358   0.756  0.3830  0.1871 -0.1242
   51MOL   O10328203   4.942   3.387   0.811 -0.3137  0.3263  0.6292
   51MOL   H10428204   4.732   3.632   0.563 -3.0038  1.5614  0.2611
   51MOL   H10528205   4.501   3.587   0.490  0.5738  1.1126  0.9427
   51MOL   H10628206   4.312   3.323   0.751  0.2224 -3.0131 -0.7697
   51MOL   H10728207   4.060   3.412   0.481  0.1558  1.6052  0.1637
   51MOL   H10828208   3.830   3.341   0.477 -2.3898  0.3413  1.3100
   51MOL   H10928209   3.650   3.220   0.587  2.1486  2.0563 -1.4222
   51MOL   H11028210   3.908   3.067   0.800 -3.3653  2.3037  1.7166
   51MOL   H11128211   4.138   3.161   0.821  1.5060 -3.2565 -2.1921
   51MOL   H11228212   4.486   3.249   0.741 -1.8854  0.2707 -1.6399
   51MOL   H11328213   4.708   3.297   0.838  0.8087  1.0128  0.3213
   51MOL   C11428214   3.670   3.032   0.629  0.0503 -0.9706  0.9308
   51MOL   C11528215   3.536   3.022   0.570 -0.2968  0.1835 -0.1565
   51MOL   C11628216   3.418   2.981   0.639  0.4733  0.3347 -0.2539
   51MOL   C11728217   3.294   2.979   0.576 -0.3981  0.5644  0.4674
   51MOL   C11828218   3.273   3.021   0.436  1.2758  0.2376 -0.2939
   51MOL   C11928219   3.137   3.023   0.373 -0.4652  0.0196  0.5399
   51MOL   N12028220   3.136   3.041   0.241 -0.3335 -0.8279 -0.7345
   51MOL   C12128221   3.028   3.088   0.161  0.4163 -0.0321 -0.3279
   51MOL   C12228222   3.055   3.132   0.028 -0.1137  0.3723  0.8655
   51MOL   C12328223   2.958   3.190   8.097  0.0173 -0.1410 -0.4749
   51MOL   C12428224   2.822   3.191   8.141 -0.6555 -0.1106 -0.7927
   51MOL   N12528225   2.721   3.232   8.046  0.2907 -0.1270  0.2881
   51MOL   C12628226   2.788   3.150   0.125 -0.5721 -0.4596  0.1303
   51MOL   C12728227   2.898   3.110   0.211  0.5649  0.1796 -0.0079
   51MOL   O12828228   3.036   2.998   0.441  0.0129  0.4864 -0.1278
   51MOL   C12928229   3.390   3.066   0.366  0.3777 -0.2477 -0.2479
   51MOL   C13028230   3.515   3.072   0.435 -0.3755  0.4256 -0.6448
   51MOL   O13128231   3.723   2.939   0.684  0.0040  0.1278  0.0252
   51MOL   H13228232   3.435   2.972   0.745  0.8590  0.2253 -0.3233
   51MOL   H13328233   3.215   2.945   0.641 -1.2059  0.1190 -0.7237
   51MOL   H13428234   3.231   3.033   0.206 -0.7450  0.0707 -2.0850
   51MOL   H13528235   3.159   3.131   8.145  0.0779  0.7265  1.5325
   51MOL   H13628236   2.986   3.231   8.001  0.2817  0.3320 -0.2030
   51MOL   H13728237   2.645   3.166   8.037 -2.6301  2.7339  2.7950
   51MOL   H13828238   2.687   3.157   0.163 -0.6342 -0.8346  0.0378
   51MOL   H13928239   2.874   3.087   0.314  0.5276  1.1806  0.2134
   51MOL   H14028240   3.382   3.109   0.268 -0.8648  1.2574  0.4911
   51MOL   H14128241   3.604   3.099   0.380 -0.8251  2.1210 -0.5805
   51MOL   C14228242   2.705   3.349   7.990 -0.4134 -0.1540  0.7469
   51MOL   C14328243   2.796   3.464   8.025  0.1049  0.3650 -0.6251
   51MOL   C14428244   2.810   3.489   0.016  0.5491 -0.1050 -0.1773
   51MOL   C14528245   2.892   3.597   0.052 -0.4943 -0.3878 -0.7634
   51MOL   C14628246   2.961   3.675   8.106 -0.6133  0.4182 -0.0948
   51MOL   C14728247   3.061   3.780   0.005  0.0932  0.1118 -0.1139
   51MOL   N14828248   3.020   3.853   0.111 -0.4671  0.4210  0.1086
   51MOL   C14928249   3.077   3.976   0.160 -0.4722 -0.3014 -0.4200
   51MOL   C15028250   3.036   4.015   0.283 -0.6816 -0.2703 -0.1263
   51MOL   C15128251   3.081   4.129   0.348  0.1473 -0.1813  1.0191
   51MOL   C15228252   3.177   4.213   0.280  0.6268  0.3613  0.2380
   51MOL   N15328253   3.230   4.328   0.341 -0.1171 -0.6378  0.2441
   51MOL   C15428254   3.228   4.170   0.160 -0.7114  0.6110 -0.1737
   51MOL   C15528255   3.174   4.054   0.097 -0.1307 -0.4281  0.3323
   51MOL   O15628256   3.160   3.804   8.078 -0.0037 -0.2319  0.4117
   51MOL   C15728257   2.946   3.646   7.967  0.4226 -0.0208  0.0852
   51MOL   C15828258   2.862   3.536   7.930  0.2483  0.0397  0.2052
   51MOL   O15928259   2.648   3.346   7.879 -0.0789 -0.0522  0.0782
   51MOL   H16028260   2.777   3.432   0.101 -2.4910 -2.0192 -2.5657
   51MOL   H16128261   2.899   3.618   0.158 -1.1713  0.9667 -0.9695
   51MOL   H16228262   2.927   3.829   0.142 -0.1178 -1.2698 -0.1106
   51MOL   H16328263   2.965   3.952   0.333  0.2170 -0.3194  1.1113
   51MOL   H16428264   3.043   4.151   0.446 -1.7134  1.0818  0.0436
   51MOL   H16528265   3.331   4.328   0.345 -0.0727 -0.1575 -0.7063
   51MOL   H16628266   3.297   4.243   0.121 -0.9724 -0.1299 -2.0702
   51MOL   H16728267   3.204   4.033   8.142 -0.7027  2.1141 -0.3937
   51MOL   H16828268   2.985   3.711   7.891 -1.6413  0.2602 -0.7777
   51MOL   H16928269   2.861   3.505   7.827  0.4778 -0.0133  0.2191
   51MOL   C17028270   3.173   4.413   0.425 -0.1421 -0.3528  0.1207
   51MOL   C17128271   3.261   4.500   0.509 -0.1773  0.2231  0.1125
   51MOL   C17228272   3.402   4.514   0.489  0.1300  0.0031  0.1991
   51MOL   C17328273   3.471   4.598   0.582 -0.5723  0.8714  0.6727
   51MOL   C17428274   3.407   4.660   0.688 -0.4467  0.6550 -0.4164
   51MOL   C17528275   3.485   4.745   0.777 -0.0316 -0.6093  0.3378
   51MOL   N17628276   3.605   4.697   0.814 -0.2947 -0.4671  0.3140
   51MOL   C17728277   3.701   4.746   0.907 -0.2940 -0.0987 -0.6472
   51MOL   C17828278   3.820   4.671   0.919  0.9885 -0.4541  0.1780
   51MOL   C17928279   3.923   4.714   1.011  0.7534 -0.2088  0.1577
   51MOL   C18028280   3.911   4.836   1.076 -0.8515 -0.2944  0.1675
   51MOL   N18128281   4.002   4.894   1.157 -0.5556  0.0992  0.1208
   51MOL   C18228282   3.793   4.911   1.063  0.0461 -0.4553 -0.3595
   51MOL   C18328283   3.686   4.859   0.987  0.0288 -0.5270  0.2774
   51MOL   O18428284   3.435   4.852   0.815 -0.4524  0.3774  0.4267
   51MOL   C18528285   3.268   4.650   0.700  0.3392 -0.6155 -0.5313
   51MOL   C18628286   3.196   4.578   0.606 -0.0481 -0.0091 -0.1429
   51MOL   O18728287   3.055   4.428   0.426  0.3915 -0.0650 -0.2476
   51MOL   H18828288   3.454   4.469   0.406 -0.0515  2.2584 -1.1667
   51MOL   H18928289   3.573   4.630   0.565 -0.5573  1.3009  1.5249
   51MOL   H19028290   3.622   4.609   0.767  0.0283 -0.3896  0.2894
   51MOL   H19128291   3.825   4.576   0.868 -1.0172 -0.1205 -0.6803
   51MOL   H19228292   4.007   4.647   1.023  1.2271  0.5579  1.1716
   51MOL   H19328293   3.968   4.942   1.239  0.6680  0.9960  0.1239
   51MOL   H19428294   3.778   5.001   1.120 -0.0679 -1.3932  1.1223
   51MOL   H19528295   3.593   4.913   0.995 -0.5531 -1.3827 -0.5920
   51MOL   H19628296   3.223   4.705   0.782  0.3547  1.3062 -1.7974
   51MOL   H19728297   3.089   4.590   0.611 -0.1178  1.2555 -3.2915
   51MOL   C19828298   4.136   4.885   1.157 -0.3961  0.3534 -0.6745
   51MOL   C19928299   4.201   4.961   1.264  0.1243 -0.1194  0.0123
   51MOL   C20028300   4.155   5.090   1.299 -0.1523  0.2105 -0.2618
   51MOL   C20128301   4.217   5.158   1.406  0.2056  0.6044  0.1964
   51MOL   C20228302   4.332   5.102   1.469  0.3995 -0.2689 -0.0107
   51MOL   C20328303   4.382   5.172   1.592  0.0605 -0.5417 -0.0519
   51MOL   N20428304   4.497   5.137   1.643 -0.4457 -0.8142  0.5672
   51MOL   C20528305   4.550   5.153   1.774 -0.1131 -0.5690 -0.0518
   51MOL   C20628306   4.482   5.204   1.885  0.5352  0.3151 -0.3025
   51MOL   C20728307   4.539   5.212   2.014  0.0435 -0.1338  0.2854
   51MOL   C20828308   4.677   5.189   2.029  0.2223  0.7298 -1.1318
   51MOL   N20928309   4.740   5.207   2.159  0.0821  0.1844 -0.1413
   51MOL   C21028310   4.748   5.133   1.921 -0.4131 -0.0118 -0.0892
   51MOL   C21128311   4.687   5.117   1.794  0.2114 -0.0392  0.2914
   51MOL   O21228312   4.304   5.253   1.646 -0.2140  0.3162 -0.1927
   51MOL   C21328313   4.378   4.976   1.429 -0.2891  0.3959 -0.3086
   51MOL   C21428314   4.309   4.907   1.335  0.2872 -0.1393  0.7984
   51MOL   O21528315   4.205   4.831   1.076 -0.3218 -0.4596 -0.0265
   51MOL   H21628316   4.071   5.134   1.248 -0.2114  0.6373  0.2025
   51MOL   H21728317   4.174   5.253   1.436 -0.9896  0.6032 -1.4510
   51MOL   H21828318   4.557   5.083   1.583 -0.4965  1.4711 -1.6047
   51MOL   H21928319   4.376   5.226   1.878  0.7054  1.8857  1.6891
   51MOL   H22028320   4.477   5.236   2.099  0.3896 -1.3366  0.8876
   51MOL   H22128321   4.679   5.213   2.239  0.2437 -0.6849  0.0496
   51MOL   H22228322   4.848   5.095   1.931 -0.6390 -0.4544  0.5644
   51MOL   H22328323   4.748   5.077   1.714  1.8620 -0.4445  1.7122
   51MOL   H22428324   4.463   4.929   1.476 -2.0511 -0.4754  2.1181
   51MOL   H22528325   4.342   4.809   1.304 -1.1970 -0.7015  0.9573
   51MOL   C22628326   4.865   5.195   2.190 -0.0024  0.1414 -0.0680
   51MOL   C22728327   4.891   5.220   2.334 -0.0250 -0.6288 -0.3090
   51MOL   C22828328   4.826   5.320   2.405  0.8031  0.7152 -0.2672
   51MOL   C22928329   4.860   5.347   2.539  0.4925  0.0786  0.2163
   51MOL   C23028330   4.943   5.260   2.609  0.0403  0.3102 -0.5850
   51MOL   C23128331   4.979   5.285   2.750  0.7830  0.1868 -0.0453
   51MOL   N23228332   4.892   5.258   2.852  0.1960 -0.4101 -0.3357
   51MOL   C23328333   4.880   5.305   2.983  0.0402  0.9321 -0.5497
   51MOL   C23428334   4.971   5.393   3.052 -0.6497  0.8668 -0.4196
   51MOL   C23528335   4.934   5.429   3.185 -1.2703 -0.1156 -0.2581
   51MOL   C23628336   4.814   5.388   3.241 -0.3149 -0.1917  0.5932
   51MOL   N23728337   4.782   5.429   3.372  0.5173  0.4167 -0.3253
   51MOL   C23828338   4.725   5.308   3.171  0.1942 -0.5278  0.5664
   51MOL   C23928339   4.756   5.273   3.040  0.4380 -0.3458 -1.0444
   51MOL   O24028340   5.095   5.326   2.770  0.5941 -0.0345  0.4028
   51MOL   C24128341   4.993   5.148   2.539  0.0006 -0.2473 -0.0292
   51MOL   C24228342   4.981   5.137   2.399 -0.5001 -0.0083 -0.3381
   51MOL   O24328343   4.960   5.183   2.111 -0.2865 -0.6651 -0.2802
   51MOL   H24428344   4.772   5.401   2.358  0.8879 -0.0447 -1.7266
   51MOL   H24528345   4.828   5.432   2.598  0.6811 -0.6083  1.3253
   51MOL   H24628346   4.811   5.219   2.807 -0.1520 -1.0551  0.8337
   51MOL   H24728347   5.068   5.411   3.008  0.8420 -2.7937  1.1883
   51MOL   H24828348   5.004   5.490   3.241 -1.2545  1.1885 -1.6682
   51MOL   H24928349   4.863   5.429   3.432 -0.5396 -0.2014  1.1221
   51MOL   H25028350   4.632   5.274   3.215 -0.3585  0.8622  0.4940
   51MOL   H25128351   4.683   5.216   2.984 -0.1759 -0.3160 -0.2824
   51MOL   H25228352   5.050   5.078   2.600 -1.1852 -1.4880 -0.3302
   51MOL   H25328353   5.027   5.054   2.348  1.5143 -0.8300  2.6667
   51MOL   C25428354   4.668   5.492   3.414 -0.3320  0.3225  0.3413
   51MOL   C25528355   4.564   5.526   3.306 -0.5735  0.7854 -0.7595
   51MOL   C25628356   4.608   5.598   3.194 -0.4515  0.5910 -0.5622
   51MOL   C25728357   4.524   5.624   3.092  0.2954 -0.7152 -0.4207
   51MOL   C25828358   4.386   5.584   3.102  0.6520  0.2003  0.5729
   51MOL   C25928359   4.298   5.607   2.979 -0.7186 -0.1083 -0.4251
   51MOL   N26028360   4.323   5.724   2.910  0.4939  0.1577 -0.0147
   51MOL   C26128361   4.266   5.769   2.788 -0.0703  0.1959  0.1996
   51MOL   C26228362   4.340   5.859   2.708 -0.4902  0.0880 -0.7842
   51MOL   C26328363   4.293   5.920   2.589  0.0882  0.2635  0.1554
   51MOL   C26428364   4.163   5.885   2.544 -0.0528  0.3230  0.0408
   51MOL   N26528365   4.113   5.935   2.423 -0.3695  0.1412 -0.1067
   51MOL   C26628366   4.083   5.800   2.623 -0.4094  0.0108 -0.3079
   51MOL   C26728367   4.131   5.747   2.745  0.0308  0.4624  0.3335
   51MOL   O26828368   4.202   5.528   2.966  0.1875  0.2186 -0.3950
   51MOL   C26928369   4.344   5.513   3.214  0.3715 -0.4635 -0.3171
   51MOL   C27028370   4.431   5.486   3.322 -0.4266 -0.6067  0.1171
   51MOL   O27128371   4.647   5.539   3.527  0.0580  0.3129  0.8904
   51MOL   H27228372   4.710   5.635   3.191  0.4970 -2.0060 -1.1301
   51MOL   H27328373   4.560   5.691   3.014 -1.4983 -1.4922 -1.9451
   51MOL   H27428374   4.395   5.779   2.954 -0.7643  1.0414  0.9678
   51MOL   H27528375   4.438   5.882   2.745 -0.1163 -0.9281 -1.1227
   51MOL   H27628376   4.362   5.978   2.530 -1.2773  2.1901  0.4151
   51MOL   H27728377   4.015   5.957   2.414  0.2706  4.1351  1.8064
   51MOL   H27828378   3.991   5.756   2.589 -0.8617  0.8080 -0.1322
   51MOL   H27928379   4.061   5.677   2.789  0.5504  0.3011  0.9129
   51MOL   H28028380   4.240   5.482   3.213  0.9038 -2.4297  1.7458
   51MOL   H28128381   4.415   5.414   3.401  1.0057  1.7665  2.6581
   51MOL   C28228382   4.173   5.935   2.296 -0.2849 -0.3438  0.7105
   51MOL   C28328383   4.085   5.951   2.172 -0.6479 -0.0078 -0.4720
   51MOL   C28428384   3.944   5.953   2.180 -0.0608  0.4458 -0.5924
   51MOL   C28528385   3.860   5.953   2.058  0.3960  0.2051  0.0773
   51MOL   C28628386   3.920   5.948   1.932 -0.7613 -0.1599 -0.2713
   51MOL   C28728387   3.842   5.950   1.804 -0.4630  0.1829  0.5453
   51MOL   N28828388   3.736   5.873   1.794  0.5450  0.7308  0.5092
   51MOL   C28928389   3.639   5.858   1.692  0.2782 -0.0971  0.9034
   51MOL   C29028390   3.511   5.819   1.732  0.0532 -0.0634  0.1232
   51MOL   C29128391   3.417   5.784   1.631  0.0592  0.0068 -0.5705
   51MOL   C29228392   3.454   5.798   1.499  0.0162  0.0573  0.3192
   51MOL   N29328393   3.351   5.768   1.411  0.0788 -0.7706 -0.4232
   51MOL   C29428394   3.586   5.836   1.464  0.0119 -0.1282  0.2238
   51MOL   C29528395   3.679   5.878   1.559  0.4843 -0.2410 -0.0577
   51MOL   O29628396   3.872   6.031   1.715  0.2332 -0.2407 -0.1792
   51MOL   C29728397   4.062   5.944   1.927 -0.2248  0.3871 -0.4644
   51MOL   C29828398   4.142   5.942   2.044 -0.6864 -0.2099  0.3126
   51MOL   O29928399   4.295   5.925   2.280  0.2519  0.5525  0.1418
   51MOL   H30028400   3.902   5.943   2.279 -0.6279  0.5508 -0.8191
   51MOL   H30128401   3.755   5.980   2.062  0.5603  1.3265 -2.2265
   51MOL   H30228402   3.724   5.815   1.876 -1.2640  1.0760  0.5043
   51MOL   H30328403   3.494   5.819   1.838 -0.5950  0.5131  0.0210
   51MOL   H30428404   3.321   5.743   1.659  1.1424 -1.7046  0.6837
   51MOL   H30528405   3.259   5.798   1.440  0.5814  2.4424 -1.8998
   51MOL   H30628406   3.611   5.844   1.359 -2.8971  1.3183 -0.4165
   51MOL   H30728407   3.780   5.903   1.529  1.9845 -2.9127  2.4879
   51MOL   H30828408   4.113   5.942   1.832  0.3533 -0.9292 -0.1490
   51MOL   H30928409   4.249   5.943   2.034 -0.6858 -1.7753  0.0516
   51MOL   C31028410   3.362   5.694   1.299  0.3980  0.4080  0.7725
   51MOL   C31128411   3.251   5.708   1.201 -0.7846 -0.1378  0.5764
   51MOL   C31228412   3.167   5.820   1.205 -0.8064  0.4302 -0.7082
   51MOL   C31328413   3.057   5.824   1.115  0.4191  1.0305 -0.9959
   51MOL   C31428414   3.022   5.721   1.030 -0.9716 -0.0836 -0.3921
   51MOL   C31528415   2.900   5.733   0.947  0.0760  0.0041  0.2704
   51MOL   N31628416   2.915   5.669   0.831 -0.5624 -0.1006  0.0712
   51MOL   C31728417   2.810   5.640   0.736  0.2949  0.4782 -0.0440
   51MOL   C31828418   2.800   5.513   0.678  0.2392 -0.2018 -0.3421
   51MOL   C31928419   2.742   5.487   0.554 -0.5859  0.2183 -0.3106
   51MOL   C32028420   2.669   5.588   0.491  0.4957 -0.3089  0.2003
   51MOL   N32128421   2.597   5.563   0.368 -0.3814 -0.0165  0.2524
   51MOL   C32228422   2.677   5.715   0.547  0.5369 -0.4416  0.2494
   51MOL   C32328423   2.744   5.748   0.668 -0.3518 -0.0072 -0.6845
   51MOL   O32428424   2.804   5.800   0.973 -0.0737 -0.4902  0.4781
   51MOL   C32528425   3.106   5.606   1.026 -0.8530  0.2801 -0.3988
   51MOL   C32628426   3.221   5.599   1.112 -0.0234  0.2638 -0.4028
   51MOL   O32728427   3.454   5.613   1.279  0.5892  0.1662  0.3552
   51MOL   H32828428   3.181   5.909   1.266  2.8098 -0.4105 -0.2226
   51MOL   H32928429   2.993   5.911   1.117 -1.7199 -0.4245 -2.6660
   51MOL   H33028430   3.001   5.617   0.825 -1.5326 -2.1925  2.9023
   51MOL   H33128431   2.859   5.432   0.719  0.9775 -0.4143 -1.7715
   51MOL   H33228432   2.746   5.384   0.520  2.7061 -0.5857  2.2211
   51MOL   H33328433   2.603   5.635   0.297 -0.2085 -1.2555 -1.0097
   51MOL   H33428434   2.629   5.797   0.496  0.2617 -0.9112 -0.2537
   51MOL   H33528435   2.755   5.848   0.706 -1.3858  0.6689 -2.1099
   51MOL   H33628436   3.088   5.522   0.960 -1.3370 -1.1691  1.5039
   51MOL   H33728437   3.278   5.507   1.121  0.6712  0.8827  1.9369
   51MOL   C33828438   2.498   5.475   0.341 -0.5528 -0.5431  0.2566
   51MOL   C33928439   2.432   5.406   0.458 -0.3998 -0.2374 -0.2187
   51MOL   C34028440   2.417   5.467   0.586  0.0645 -0.0029 -0.2447
   51MOL   C34128441   2.350   5.393   0.690 -0.7236 -0.5598 -0.7099
   51MOL   C34228442   2.280   5.273   0.665 -0.3067  0.1322 -0.3528
   51MOL   C34328443   2.224   5.196   0.783 -0.5470 -0.6511  0.3237
   51MOL   N34428444   2.174   5.263   0.887 -0.2283  0.0377 -0.0353
   51MOL   C34528445   2.155   5.219   1.021 -0.0245 -0.0729 -0.7172
   51MOL   C34628446   2.245   5.134   1.089  0.8196  0.0222 -0.0861
   51MOL   C34728447   2.215   5.094   1.220  0.1864  0.4511  0.6840
   51MOL   C34828448   2.108   5.153   1.290  0.2471  0.0005 -0.1123
   51MOL   N34928449   2.082   5.135   1.427  0.1648 -0.8064 -0.3929
   51MOL   C35028450   2.019   5.240   1.227 -0.3032  0.4342  0.3047
   51MOL   C35128451   2.043   5.269   1.089  0.0887 -0.2082 -1.0038
   51MOL   O35228452   2.206   5.076   0.768 -0.0596  0.3016  0.1556
   51MOL   C35328453   2.294   5.217   0.533  0.0602 -0.2088 -0.2108
   51MOL   C35428454   2.366   5.282   0.431 -0.0872 -0.3024 -0.2079
   51MOL   O35528455   2.457   5.457   0.224  0.5059 -0.3634  0.2562
   51MOL   H35628456   2.448   5.566   0.617  0.5645 -0.3379  0.3568
   51MOL   H35728457   2.351   5.428   0.792  0.1145 -2.0954 -0.1615
   51MOL   H35828458   2.176   5.363   0.878  0.3389  0.1038  0.7093
   51MOL   H35928459   2.313   5.068   1.039  1.3601  0.1096  0.5237
   51MOL   H36028460   2.290   5.029   1.262 -1.9646  0.3822  4.6834
   51MOL   H36128461   1.994   5.167   1.464 -0.1068  1.1240 -2.5912
   51MOL   H36228462   1.942   5.289   1.284 -0.6462 -0.3975  0.5586
   51MOL   H36328463   1.971   5.336   1.042 -0.5961 -2.1785 -2.8708
   51MOL   H36428464   2.250   5.122   0.507  0.3693  0.1925 -2.2809
   51MOL   H36528465   2.374   5.234   0.334 -1.4787  0.9050 -0.9474
   51MOL   C36628466   2.171   5.101   1.519 -0.3157  0.0785  0.1337
   51MOL   C36728467   2.141   5.149   1.657  0.1183 -0.1048 -0.1095
   51MOL   C36828468   2.085   5.278   1.683  0.0705 -0.3328  0.3766
   51MOL   C36928469   2.067   5.313   1.812 -0.1220  0.8887 -0.4124
   51MOL   C37028470   2.108   5.235   1.919 -0.4267  1.3870 -0.1834
   51MOL   C37128471   2.089   5.277   2.063  0.0349 -0.0619  0.3525
   51MOL   N37228472   2.074   5.177   2.147  0.2982 -0.2941 -0.3725
   51MOL   C37328473   2.079   5.171   2.285 -0.0459  0.0708 -0.2746
   51MOL   C37428474   2.183   5.234   2.350  0.1397 -0.4578  0.3972
   51MOL   C37528475   2.205   5.229   2.491  0.1948  0.5393  0.2868
   51MOL   C37628476   2.110   5.152   2.560  0.3806 -0.0980  0.1923
   51MOL   N37728477   2.130   5.152   2.699  0.3289 -0.0805 -0.7417
   51MOL   C37828478   1.997   5.098   2.499 -0.2186  0.1977  0.3663
   51MOL   C37928479   1.981   5.107   2.360 -0.4504  0.5072 -0.6152
   51MOL   O38028480   2.073   5.396   2.086 -0.2605  0.2646 -0.5572
   51MOL   C38128481   2.170   5.113   1.898  0.4929  0.1288  0.4039
   51MOL   C38228482   2.185   5.066   1.767 -0.4841 -0.1751  0.8113
   51MOL   O38328483   2.272   5.034   1.502  0.4224  0.5571 -0.1866
   51MOL   H38428484   2.060   5.349   1.605 -1.3337 -0.0935  1.0290
   51MOL   H38528485   2.025   5.412   1.825 -1.3871  0.5568 -1.8258
   51MOL   H38628486   2.069   5.086   2.103  2.0488  0.0781 -1.4070
   51MOL   H38728487   2.266   5.278   2.297  0.1637 -2.2549 -1.1112
   51MOL   H38828488   2.290   5.268   2.544  0.2658 -0.4586  0.9088
   51MOL   H38928489   2.178   5.232   2.738  0.3188  1.4570 -3.7807
   51MOL   H39028490   1.921   5.048   2.558 -0.0124  0.7791  1.1401
   51MOL   H39128491   1.907   5.050   2.306  1.3611 -1.5169 -1.0309
   51MOL   H39228492   2.214   5.057   1.979  0.7817 -3.1127 -1.8719
   51MOL   H39328493   2.232   4.970   1.753 -0.5903 -0.1783  0.4801
   51MOL   C39428494   2.105   5.051   2.782 -0.4456 -0.2170 -0.7646
   51MOL   C39528495   2.174   5.074   2.911 -0.5134  0.1273  0.2098
   51MOL   C39628496   2.122   5.170   2.998 -0.3530  0.3981 -0.4300
   51MOL   C39728497   2.186   5.187   3.119  0.8036 -0.7699  0.0427
   51MOL   C39828498   2.310   5.115   3.156  0.5595 -0.3377  0.4967
   51MOL   C39928499   2.378   5.143   3.286 -0.5019  0.1779 -0.4220
   51MOL   N40028500   2.459   5.041   3.322  0.6860 -0.4637  0.0721
   51MOL   C40128501   2.549   5.034   3.436 -0.2649 -0.5798 -0.5025
   51MOL   C40228502   2.573   5.139   3.527 -0.0624  0.2572 -0.2994
   51MOL   C40328503   2.669   5.126   3.629 -0.5807  0.0773  0.1049
   51MOL   C40428504   2.750   5.009   3.636 -0.0034 -0.1671  0.0590
   51MOL   N40528505   2.854   4.999   3.739  0.4745 -0.4436 -0.0853
   51MOL   C40628506   2.730   4.904   3.537 -0.1544  0.2500 -0.0562
   51MOL   C40728507   2.625   4.915   3.447 -0.2786  0.4561  0.4710
   51MOL   O40828508   2.359   5.243   3.356  0.1967  0.6213  0.0213
   51MOL   C40928509   2.356   5.016   3.061 -0.0350  0.0577 -0.1786
   51MOL   C41028510   2.291   5.000   2.939 -0.3313 -0.4900  0.3489
   51MOL   O41128511   2.042   4.946   2.755  0.0295  0.2028 -0.1963
   51MOL   H41228512   2.032   5.222   2.969 -1.2365 -1.7583 -1.6921
   51MOL   H41328513   2.145   5.259   3.189  0.1965 -0.3645 -0.7289
   51MOL   H41428514   2.451   4.961   3.261 -1.8793 -1.0093  1.0558
   51MOL   H41528515   2.505   5.222   3.535  0.7042  0.6614  2.5587
   51MOL   H41628516   2.688   5.203   3.702 -1.9291 -1.6946  2.4001
   51MOL   H41728517   2.836   5.044   3.828  2.2260 -0.5913  0.3617
   51MOL   H41828518   2.794   4.817   3.539  0.0552  0.4247  1.6049
   51MOL   H41928519   2.604   4.829   3.385  0.3060  0.8822 -0.3233
   51MOL   H42028520   2.434   4.945   3.083 -1.1199 -0.9089  0.6001
   51MOL   H42128521   2.325   4.927   2.867  1.1172 -0.7931  1.3217
   51MOL   C42228522   2.979   4.957   3.728 -0.7283  0.3017 -0.2700
   51MOL   C42328523   3.067   5.017   3.832 -0.0317 -0.6661 -0.4375
   51MOL   C42428524   3.193   4.964   3.854 -0.0778  0.5677  0.9358
   51MOL   C42528525   3.277   5.018   3.949  0.1983  0.2689  0.3035
   51MOL   C42628526   3.247   5.136   4.022  0.0783  0.1736  0.6354
   51MOL   C42728527   3.336   5.185   4.136  0.3274 -0.1217  0.2310
   51MOL   N42828528   3.447   5.115   4.164  0.0288  0.1178  0.1501
   51MOL   C42928529   3.526   5.121   4.277 -0.3284  0.1403  0.1870
   51MOL   C43028530   3.655   5.057   4.272 -0.5359  0.0293 -0.2299
   51MOL   C43128531   3.741   5.052   4.385  0.4242 -0.7115  0.4500
   51MOL   C43228532   3.702   5.119   4.500  0.5243 -0.0707 -0.3479
   51MOL   N43328533   3.767   5.111   4.623 -0.4948  0.7729  0.4631
   51MOL   C43428534   3.583   5.187   4.507 -0.1052 -0.2388 -0.3371
   51MOL   C43528535   3.492   5.189   4.398  0.2980  0.9903 -0.7493
   51MOL   O43628536   3.288   5.278   4.204 -0.1000  0.3397  0.6254
   51MOL   C43728537   3.117   5.194   3.996  0.5415  0.0340  0.4593
   51MOL   C43828538   3.028   5.134   3.905 -0.0556 -0.6226  0.2417
   51MOL   O43928539   3.006   4.862   3.658  0.0315  0.3077  0.0565
   51MOL   H44028540   3.227   4.877   3.799  1.9586  1.8779  0.0511
   51MOL   H44128541   3.370   4.965   3.962  0.4526  0.3941 -0.9199
   51MOL   H44228542   3.487   5.073   4.081 -2.5243  2.6630 -2.4899
   51MOL   H44328543   3.690   5.014   4.179  1.7357 -1.3823  1.2484
   51MOL   H44428544   3.833   4.996   4.380 -0.1845 -1.8514  1.8731
   51MOL   H44528545   3.706   5.109   4.703 -1.3794  1.5172 -0.1883
   51MOL   H44628546   3.551   5.235   4.598  0.1937 -0.3303 -0.1823
   51MOL   H44728547   3.397   5.236   4.415  0.1287 -0.1805  1.7363
   51MOL   H44828548   3.086   5.277   4.057 -1.5546 -0.0849 -0.4264
   51MOL   H44928549   2.927   5.169   3.894 -0.1655 -1.7818 -2.7106
   51MOL   C45028550   3.898   5.090   4.648  0.3647 -1.1101 -0.1945
   51MOL   C45128551   3.905   5.037   4.786 -0.0868 -0.3696 -0.5401
   51MOL   C45228552   3.969   5.108   4.887  0.3583  0.6542 -0.3296
   51MOL   C45328553   3.955   5.069   5.021  0.1029 -0.3098 -0.4077
   51MOL   C45428554   3.883   4.956   5.057  0.4775 -0.4456  0.4366
   51MOL   C45528555   3.863   4.926   5.200  0.2120  0.2962 -0.0068
   51MOL   N45628556   3.733   4.907   5.225  0.4146  1.0319 -0.5099
   51MOL   C45728557   3.664   4.864   5.345  0.2587  0.3835  0.3933
   51MOL   C45828558   3.521   4.869   5.342 -0.1333 -0.0701 -0.0602
   51MOL   C45928559   3.445   4.823   5.453  0.1042 -0.4745 -0.1655
   51MOL   C46028560   3.512   4.783   5.569 -0.4421  0.1188  0.6013
   51MOL   N46128561   3.437   4.739   5.677  0.1315  0.1368 -0.0338
   51MOL   C46228562   3.657   4.783   5.572 -0.3756  0.2453  0.8352
   51MOL   C46328563   3.731   4.821   5.461  0.0614 -0.3840  1.1116
   51MOL   O46428564   3.956   4.921   5.281  0.2141 -0.3824  0.4917
   51MOL   C46528565   3.831   4.871   4.955  0.6033 -0.2152 -0.1349
   51MOL   C46628566   3.839   4.916   4.820  0.0748 -0.7030 -0.3039
   51MOL   O46728567   3.991   5.114   4.570 -0.3107  0.0905 -0.2357
   51MOL   H46828568   4.021   5.197   4.854 -2.0955  0.7968 -4.0834
   51MOL   H46928569   4.015   5.116   5.098  0.4494 -0.3947 -0.6255
   51MOL   H47028570   3.674   4.936   5.148  0.6260  3.3277  0.1466
   51MOL   H47128571   3.474   4.906   5.252  3.2853 -0.8298 -2.2318
   51MOL   H47228572   3.337   4.821   5.455  0.1347 -1.2939  1.4623
   51MOL   H47328573   3.487   4.680   5.742  1.1712  0.6804 -0.3329
   51MOL   H47428574   3.715   4.757   5.660  0.3247  0.3527  0.4066
   51MOL   H47528575   3.839   4.822   5.468  0.0864  0.5432  0.6012
   51MOL   H47628576   3.758   4.794   4.977 -1.1470  1.4753  0.0996
   51MOL   H47728577   3.787   4.874   4.735  0.8003 -2.6006  0.1576
   51MOL   C47828578   3.311   4.765   5.707  0.1391 -0.3330  0.0934
   51MOL   C47928579   3.233   4.677   5.811 -0.4784  0.3386 -0.3967
   51MOL   C48028580   3.120   4.730   5.879  0.2894 -0.2947 -0.1701
   51MOL   C48128581   3.039   4.650   5.960 -0.6213  1.0574 -0.4220
   51MOL   C48228582   3.057   4.509   5.972 -0.3917 -0.1960  0.0672
   51MOL   C48328583   2.955   4.427   6.040  0.0238  0.9174  0.3789
   51MOL   N48428584   2.992   4.307   6.093 -0.5129  0.2673  0.1076
   51MOL   C48528585   2.934   4.221   6.189 -0.8094  0.6538 -0.0025
   51MOL   C48628586   3.002   4.104   6.227 -0.0805 -0.1972  0.1715
   51MOL   C48728587   2.948   4.015   6.322 -0.0355  0.5781  0.3821
   51MOL   C48828588   2.828   4.047   6.392 -0.4272  0.0584  0.4537
   51MOL   N48928589   2.765   3.967   6.494 -0.2533  0.2046  0.2200
   51MOL   C49028590   2.759   4.169   6.360 -0.6898  0.3160 -0.0757
   51MOL   C49128591   2.815   4.251   6.258 -0.7459 -0.0302 -0.5458
   51MOL   O49228592   2.831   4.442   6.028 -0.2020 -0.3022 -0.0996
   51MOL   C49328593   3.175   4.459   5.909 -0.4757  0.1395  0.2854
   51MOL   C49428594   3.252   4.536   5.823 -0.0905  1.3705 -0.2810
   51MOL   O49528595   3.253   4.860   5.658  0.4178 -0.0108  0.1035
   51MOL   H49628596   3.099   4.834   5.861  1.7989  0.7347  3.5213
   51MOL   H49728597   2.953   4.684   6.015 -0.9238  2.4196 -1.7119
   51MOL   H49828598   3.062   4.260   6.038 -0.2428 -0.6521  1.2125
   51MOL   H49928599   3.094   4.079   6.177  1.0964  1.8136  1.2635
   51MOL   H50028600   3.001   3.922   6.334 -0.4076  0.3504  0.2497
   51MOL   H50128601   2.675   4.002   6.522 -0.7578 -0.0676 -1.0229
   51MOL   H50228602   2.669   4.189   6.416 -1.0940  0.1824 -0.6721
   51MOL   H50328603   2.750   4.335   6.235  0.5376  0.8474 -1.0107
   51MOL   H50428604   3.192   4.353   5.925  1.2486  0.6976  2.4973
   51MOL   H50528605   3.339   4.496   5.774 -0.0795  0.7986  0.1983
   51MOL   C50628606   2.800   3.852   6.557  0.0969 -1.1229  0.0506
   51MOL   C50728607   2.718   3.800   6.670  0.4804 -0.3589 -0.1486
   51MOL   C50828608   2.755   3.684   6.744  0.4951 -0.0538  0.0663
   51MOL   C50928609   2.679   3.630   6.856  0.0594 -0.3002 -0.2179
   51MOL   C51028610   2.565   3.702   6.900 -0.9334 -0.2105  0.1258
   51MOL   C51128611   2.492   3.673   7.029 -0.0472  0.3675 -0.2090
   51MOL   N51228612   2.444   3.548   7.032 -0.0047  0.2210 -0.0730
   51MOL   C51328613   2.359   3.492   7.126  0.4146  0.4550  0.6386
   51MOL   C51428614   2.267   3.401   7.061 -0.7533  0.4949 -0.1237
   51MOL   C51528615   2.164   3.348   7.137  0.6092  0.0625 -0.7479
   51MOL   C51628616   2.146   3.378   7.275  0.2999  0.1326 -0.2476
   51MOL   N51728617   2.055   3.305   7.361 -0.1595 -0.2774  0.2656
   51MOL   C51828618   2.234   3.473   7.334 -0.1217 -0.2554  0.0710
   51MOL   C51928619   2.347   3.518   7.266  0.0335  0.2316 -0.6289
   51MOL   O52028620   2.468   3.760   7.112 -0.3096 -0.5357  0.6392
   51MOL   C52128621   2.535   3.823   6.835  0.5322 -0.3783 -0.6679
   51MOL   C52228622   2.601   3.864   6.716 -1.5650 -0.4257  0.8033
   51MOL   O52328623   2.899   3.787   6.513  0.0863  0.2251  0.4323
   51MOL   H52428624   2.839   3.625   6.714  0.2856 -0.0986 -0.4324
   51MOL   H52528625   2.717   3.546   6.911  0.2188  0.2661  0.5389
   51MOL   H52628626   2.443   3.517   6.936 -0.5083 -1.4740  0.4557
   51MOL   H52728627   2.279   3.381   6.956  2.9827  2.2868 -0.1266
   51MOL   H52828628   2.100   3.272   7.095 -0.4025  0.0476  0.8074
   51MOL   H52928629   1.961   3.281   7.333 -1.0403  0.2333  2.6127
   51MOL   H53028630   2.235   3.491   7.440  2.0180 -0.1819  0.0550
   51MOL   H53128631   2.409   3.599   7.301  0.2305  0.1670 -0.8259
   51MOL   H53228632   2.450   3.880   6.870  2.3828  0.7578  2.1295
   51MOL   H53328633   2.560   3.945   6.657 -0.7089 -0.6788 -0.1486
   51MOL   C53428634   2.078   3.258   7.486 -0.9775 -0.5719 -0.3457
   51MOL   C53528635   1.957   3.205   7.555  0.5231 -0.1419  0.0376
   51MOL   C53628636   1.831   3.272   7.540 -0.6756 -0.3893 -0.1396
   51MOL   C53728637   1.716   3.221   7.599  0.2314 -0.1533  0.5924
   51MOL   C53828638   1.728   3.093   7.661  0.0717 -0.3221  0.3356
   51MOL   C53928639   1.606   3.026   7.720 -0.3580  0.0834 -0.0418
   51MOL   N54028640   1.510   3.109   7.763 -0.4847 -0.9169  0.3216
   51MOL   C54128641   1.379   3.072   7.810 -0.5124 -0.1025  1.1603
   51MOL   C54228642   1.350   2.992   7.918  0.3636 -0.4860  0.2070
   51MOL   C54328643   1.226   2.976   7.967  0.2272  0.2131  0.6105
   51MOL   C54428644   1.116   3.038   7.910 -0.1174  0.0134 -0.2674
   51MOL   N54528645   0.982   3.014   7.949  0.0639 -0.2382 -0.3818
   51MOL   C54628646   1.141   3.124   7.802  0.4996 -0.7534  0.0472
   51MOL   C54728647   1.272   3.146   7.753  0.4322  0.3217 -0.3280
   51MOL   O54828648   1.606   2.904   7.737 -0.6034  0.2245  0.2933
   51MOL   C54928649   1.852   3.022   7.674 -0.6059 -0.0264  0.5576
   51MOL   C55028650   1.961   3.078   7.617  0.3874  0.3382 -0.1781
   51MOL   O55128651   2.195   3.226   7.525  0.3247 -0.2779  0.3909
   51MOL   H55228652   1.814   3.366   7.489  0.8439  0.9564  1.7354
   51MOL   H55328653   1.623   3.273   7.582 -0.9176 -0.9247  4.0698
   51MOL   H55428654   1.508   3.203   7.727 -2.3302 -1.3394 -0.7860
   51MOL   H55528655   1.428   2.942   7.975 -0.9958 -1.9522  0.8284
   51MOL   H55628656   1.200   2.901   8.041  1.4701 -0.4459  0.3966
   51MOL   H55728657   0.973   2.920   7.986 -0.6460  1.2005  3.2303
   51MOL   H55828658   1.062   3.177   7.751 -0.0414 -0.1437  1.5034
   51MOL   H55928659   1.299   3.213   7.672  3.3365  0.1588  0.4726
   51MOL   H56028660   1.858   2.924   7.719  0.7627  0.4427  1.4080
   51MOL   H56128661   2.055   3.024   7.622  0.1235 -0.1799 -0.8389
   51MOL   H56228662   0.904   3.028   7.885 -1.8747 -2.6107  1.3703
   52MOL     C128663   3.647   6.365   7.745 -0.4278  0.1734  0.0730
   52MOL     C228664   3.636   6.473   7.843  0.6107  0.0252  0.0904
   52MOL     C328665   3.559   6.583   7.817 -0.2514  0.1508  0.2151
   52MOL     C428666   3.538   6.684   7.911  0.1819  0.2476 -0.2486
   52MOL     C528667   3.602   6.676   8.036  0.2477  0.1867 -0.4911
   52MOL     C628668   3.586   6.791   8.130  1.0561 -0.3151 -0.2941
   52MOL     N728669   3.564   6.745   0.109 -0.3802 -0.4334 -0.1634
   52MOL     C828670   3.570   6.832   0.221  0.3042  0.5118  0.3703
   52MOL     C928671   3.467   6.929   0.249 -0.3215  0.5100 -0.4159
   52MOL    C1028672   3.479   7.008   0.365  0.0808  0.2221  0.2211
   52MOL    C1128673   3.592   6.989   0.450 -0.0185  0.2502 -0.0664
   52MOL    N1228674   3.605   7.074   0.568 -0.5027 -0.0607 -0.1980
   52MOL    C1328675   3.689   6.892   0.430 -0.0798  0.4915  0.2037
   52MOL    C1428676   3.675   6.814   0.313 -0.2631  0.2174  0.7079
   52MOL    O1528677   3.588   6.911   8.091  0.4132  0.1961  0.2475
   52MOL    C1628678   3.679   6.563   8.064 -0.5410  0.5398 -0.2629
   52MOL    C1728679   3.699   6.469   7.966  0.7320  0.0123 -0.3204
   52MOL    O1828680   3.715   6.264   7.763  0.1022  0.4128 -0.1598
   52MOL    H1928681   3.508   6.584   7.722  0.7545 -2.3899 -0.3940
   52MOL    H2028682   3.481   6.774   7.897 -1.7428 -0.9167 -0.1463
   52MOL    H2128683   3.551   6.646   0.127 -1.9075 -0.1616  0.3111
   52MOL    H2228684   3.375   6.934   0.192 -1.2734 -4.8383  0.3633
   52MOL    H2328685   3.399   7.079   0.381 -2.3030 -2.2476 -0.4773
   52MOL    H2428686   3.660   7.036   0.644 -2.1229 -0.7031  0.6837
   52MOL    H2528687   3.778   6.884   0.489 -1.2349 -0.7804  1.8008
   52MOL    H2628688   3.757   6.749   0.287 -1.1111 -0.1437 -1.1316
   52MOL    H2728689   3.730   6.545   0.011 -0.8624  0.9328 -0.0057
   52MOL    H2828690   3.754   6.380   7.992 -2.3068 -2.1991 -1.2032
   52MOL    H2928691   3.591   6.380   7.653 -1.0509 -2.5577 -0.0265
   52MOL    C3028692   3.573   7.201   0.577  0.7076 -0.0234  0.3223
   52MOL    C3128693   3.610   7.264   0.710 -0.6309 -0.4093 -0.3876
   52MOL    C3228694   3.657   7.398   0.706 -0.0541  0.9119  0.6849
   52MOL    C3328695   3.681   7.474   0.823  0.1081 -0.1726 -0.0180
   52MOL    C3428696   3.648   7.411   0.946 -0.1723  0.1419  0.4684
   52MOL    C3528697   3.681   7.477   1.075  0.5191  0.8037  0.5395
   52MOL    N3628698   3.629   7.601   1.089 -0.5571  0.4938 -0.0913
   52MOL    C3728699   3.655   7.705   1.185  0.5982  0.3608  0.5876
   52MOL    C3828700   3.552   7.787   1.218  0.1937 -0.0197 -0.6111
   52MOL    C3928701   3.569   7.885   1.317  0.0234 -0.0526  0.3549
   52MOL    C4028702   3.690   7.899   1.388 -0.2653 -0.4017  0.0534
   52MOL    N4128703   3.714   7.978   1.502 -0.2139 -0.0838 -0.1779
   52MOL    C4228704   3.796   7.802   1.358  0.3625 -0.1961  0.0860
   52MOL    C4328705   3.779   7.708   1.252  0.4110  0.3807  0.2328
   52MOL    O4428706   3.749   7.407   1.152  0.0590  0.1903 -0.2061
   52MOL    C4528707   3.605   7.277   0.952 -0.0875  0.2328 -0.4405
   52MOL    C4628708   3.590   7.202   0.837  0.2042 -0.1875  0.0055
   52MOL    O4728709   3.517   7.271   0.490 -0.0466  0.2924 -0.5463
   52MOL    H4828710   3.669   7.455   0.615 -0.2006  1.6257  1.1069
   52MOL    H4928711   3.707   7.579   0.820  1.3035 -0.4317  0.9745
   52MOL    H5028712   3.583   7.640   1.008 -0.5300  1.8285  0.5301
   52MOL    H5128713   3.459   7.780   1.163  0.4051 -0.4354 -0.9198
   52MOL    H5228714   3.484   7.944   1.348  0.1993 -0.3360  1.4014
   52MOL    H5328715   3.785   7.941   1.563  0.4065  1.7619  0.2462
   52MOL    H5428716   3.882   7.795   1.424  1.0545 -2.0612 -0.9962
   52MOL    H5528717   3.853   7.633   1.229  0.6428  0.7379 -0.1901
   52MOL    H5628718   3.590   7.231   1.048  1.3620  2.0321  0.6923
   52MOL    H5728719   3.559   7.102   0.862  0.7615 -0.4679 -0.4044
   52MOL    C5828720   3.696   8.110   1.499  0.1815 -0.1082 -0.2723
   52MOL    C5928721   3.762   0.025   1.618 -0.1292 -0.4366  0.0772
   52MOL    C6028722   3.893   0.002   1.656  0.1048 -0.7952  0.3849
   52MOL    C6128723   3.953   0.066   1.768 -0.0109 -0.3233  0.8493
   52MOL    C6228724   3.879   0.160   1.834  0.1139 -0.5736 -0.5903
   52MOL    C6328725   3.940   0.218   1.956  0.3335  0.1905  0.4757
   52MOL    N6428726   3.884   0.327   2.002  0.0417 -0.7914  0.2477
   52MOL    C6528727   3.918   0.408   2.115  0.3340 -0.2097  0.0783
   52MOL    C6628728   3.951   0.362   2.243 -0.0179 -0.0843 -0.1541
   52MOL    C6728729   3.995   0.454   2.340  0.5685 -0.1367 -0.3004
   52MOL    C6828730   4.002   0.590   2.314  0.3895 -0.4491 -0.2052
   52MOL    N6928731   4.059   0.684   2.412 -0.1106 -0.0733  0.3048
   52MOL    C7028732   3.967   0.640   2.193  0.0123  0.3582  0.4771
   52MOL    C7128733   3.927   0.546   2.092  0.1916 -0.5393  0.2427
   52MOL    O7228734   4.038   0.170   2.009 -0.0532 -0.1067 -0.2064
   52MOL    C7328735   3.750   0.201   1.784 -0.1824 -0.2995  0.0042
   52MOL    C7428736   3.697   0.130   1.682 -0.1445  0.3548  0.0483
   52MOL    O7528737   3.631   0.036   1.418  0.0775 -0.7045  0.6766
   52MOL    H7628738   3.949   8.063   1.619  1.2166  0.3494 -0.5769
   52MOL    H7728739   4.055   0.040   1.794  0.9186  0.8791 -1.4959
   52MOL    H7828740   3.813   0.369   1.944  0.2573  0.1145  0.6211
   52MOL    H7928741   3.948   0.255   2.260  1.3615 -0.2683 -0.9562
   52MOL    H8028742   4.032   0.420   2.435  1.8896 -2.1972 -1.5150
   52MOL    H8128743   4.112   0.762   2.374  1.0435 -1.8627 -1.8627
   52MOL    H8228744   3.972   0.747   2.174 -1.1973 -0.0844 -2.7415
   52MOL    H8328745   3.916   0.581   1.990 -0.1916 -2.0640 -0.2477
   52MOL    H8428746   3.689   0.279   1.827  2.2103  0.4004  2.1976
   52MOL    H8528747   3.601   0.169   1.651 -0.0806  0.4645 -0.0118
   52MOL    C8628748   4.029   0.687   2.544 -0.3641 -0.0992 -0.8500
   52MOL    C8728749   4.116   0.783   2.619  0.0942  0.5384 -1.0157
   52MOL    C8828750   4.097   0.808   2.755  0.1370 -0.0480  0.3711
   52MOL    C8928751   4.170   0.904   2.825 -0.1167  0.1061 -0.4278
   52MOL    C9028752   4.278   0.973   2.762  0.4745 -0.2682 -0.6623
   52MOL    C9128753   4.356   1.077   2.842 -0.5346  0.8009 -0.2740
   52MOL    N9228754   4.428   1.158   2.763  0.5543 -0.0522 -0.4624
   52MOL    C9328755   4.531   1.246   2.781 -0.3073  0.0111 -0.4857
   52MOL    C9428756   4.595   1.292   2.661 -0.0050  0.1584  0.2934
   52MOL    C9528757   4.718   1.363   2.661 -0.2786  0.0970 -0.4696
   52MOL    C9628758   4.781   1.394   2.787  1.1639 -0.0532  0.3771
   52MOL    N9728759   4.901   1.452   2.781  0.2495  0.1417  0.2191
   52MOL    C9828760   4.715   1.359   2.906  0.1908 -0.5417 -0.5240
   52MOL    C9928761   4.586   1.288   2.901  0.1710  0.2047 -0.7008
   52MOL   O10028762   4.347   1.085   2.966 -0.2125  0.2383  0.6223
   52MOL   C10128763   4.314   0.937   2.633  0.3177 -0.7692  0.0195
   52MOL   C10228764   4.239   0.834   2.566 -0.2077 -0.2639  0.5518
   52MOL   O10328765   3.935   0.632   2.597 -0.0051 -0.2897  0.4340
   52MOL   H10428766   4.018   0.752   2.804  0.5422 -2.0212 -1.1425
   52MOL   H10528767   4.142   0.920   2.928 -3.9149  1.6711 -1.6272
   52MOL   H10628768   4.418   1.120   2.670 -0.3575 -1.0805  0.0437
   52MOL   H10728769   4.572   1.262   2.559 -0.4747 -1.3929  0.8547
   52MOL   H10828770   4.766   1.377   2.566 -1.6707  0.1775 -1.1798
   52MOL   H10928771   4.908   1.545   2.820  0.6414  0.2935 -0.2031
   52MOL   H11028772   4.769   1.376   2.998  1.2481 -3.3575 -0.5745
   52MOL   H11128773   4.544   1.262   2.997  0.5719 -1.5839 -0.9937
   52MOL   H11228774   4.400   0.981   2.585 -0.3958  3.7150  2.5860
   52MOL   H11328775   4.248   0.820   2.460  2.2355  1.1561  0.5358
   52MOL   C11428776   5.002   1.405   2.701 -0.9033 -0.0582  0.0995
   52MOL   C11528777   5.101   1.508   2.650  0.2513  0.3413  0.7141
   52MOL   C11628778   5.223   1.472   2.594 -0.4830  0.0379  0.4532
   52MOL   C11728779   5.314   1.568   2.544 -0.0337 -0.2855  0.0432
   52MOL   C11828780   5.280   1.701   2.551 -0.9207 -0.2562  0.0889
   52MOL   C11928781   5.389   1.807   2.526 -0.4634 -0.3898 -0.0046
   52MOL   N12028782   5.430   1.875   2.635 -0.5009 -0.7736 -0.0586
   52MOL   C12128783   5.411   1.839   2.770  0.0662 -0.2308 -0.2353
   52MOL   C12228784   5.432   1.702   2.809 -0.0117 -0.2581 -0.7496
   52MOL   C12328785   5.384   1.661   2.933 -0.1797 -0.0616  0.1248
   52MOL   C12428786   5.309   1.755   3.014  1.4571  0.2748 -0.0671
   52MOL   N12528787   5.242   1.702   3.126  0.2150  0.0856  1.0213
   52MOL   C12628788   5.303   1.892   2.980  0.0650  0.4908 -0.0408
   52MOL   C12728789   5.362   1.935   2.856 -0.0484 -0.5748 -0.4779
   52MOL   O12828790   5.438   1.824   2.416 -0.8376 -0.2408 -0.0510
   52MOL   C12928791   5.157   1.740   2.598  0.1765 -0.4327  0.5320
   52MOL   C13028792   5.068   1.643   2.649  0.3487  0.2308 -0.5543
   52MOL   O13128793   5.008   1.284   2.665  0.0877 -0.0542 -0.9045
   52MOL   H13228794   5.242   1.366   2.594 -2.8865 -0.4483 -1.7689
   52MOL   H13328795   5.409   1.545   2.499 -0.8202 -1.2855 -1.1371
   52MOL   H13428796   5.491   1.952   2.609 -3.2099  0.4175 -3.2160
   52MOL   H13528797   5.471   1.626   2.742  0.1382  0.2487 -1.2388
   52MOL   H13628798   5.389   1.561   2.972 -2.6339 -0.1373  0.3145
   52MOL   H13728799   5.286   1.714   3.216  3.5301 -0.9077 -0.4044
   52MOL   H13828800   5.259   1.958   3.054  1.7876  2.2315 -0.5145
   52MOL   H13928801   5.371   2.040   2.831 -1.5212 -0.2037  0.4420
   52MOL   H14028802   5.132   1.844   2.615 -0.8964 -0.9518  2.3513
   52MOL   H14128803   4.974   1.677   2.690 -0.5947  0.5512 -2.9117
   52MOL   C14228804   5.108   1.669   3.121  0.2295  0.5748  0.1605
   52MOL   C14328805   5.057   1.639   3.254 -0.1533 -0.3970 -0.5427
   52MOL   C14428806   5.079   1.726   3.363  0.3143  0.2337 -0.1097
   52MOL   C14528807   5.018   1.697   3.490 -0.0790 -0.5727 -0.3711
   52MOL   C14628808   4.941   1.575   3.508  0.6178  0.6268  0.3919
   52MOL   C14728809   4.890   1.532   3.643  0.1215  0.1034 -0.0075
   52MOL   N14828810   4.841   1.622   3.723  0.1581  0.0338 -0.1274
   52MOL   C14928811   4.788   1.603   3.857 -0.3334  0.5385 -0.0090
   52MOL   C15028812   4.715   1.720   3.905  0.5063 -0.4410 -0.3698
   52MOL   C15128813   4.667   1.722   4.036  0.5232 -0.7008 -0.7052
   52MOL   C15228814   4.696   1.617   4.125 -0.1456  0.1348 -0.5245
   52MOL   N15328815   4.655   1.618   4.258 -0.1230 -0.4686  0.4702
   52MOL   C15428816   4.761   1.503   4.077 -0.1229  0.3278  0.4422
   52MOL   C15528817   4.806   1.491   3.944  0.7679  0.6700 -0.4068
   52MOL   O15628818   4.891   1.413   3.668  0.3688  0.1275  0.3340
   52MOL   C15728819   4.915   1.491   3.395  1.0136 -0.0112 -1.0373
   52MOL   C15828820   4.974   1.528   3.270 -0.5242 -0.3707 -0.1757
   52MOL   O15928821   5.042   1.646   3.023  0.8244  0.3570  0.5146
   52MOL   H16028822   5.140   1.813   3.348  0.8623 -0.2458 -0.6689
   52MOL   H16128823   5.051   1.754   3.575  0.6432  0.2640 -1.2057
   52MOL   H16228824   4.831   1.715   3.685 -0.3696 -0.1656 -0.4863
   52MOL   H16328825   4.696   1.794   3.829 -1.4567 -0.1117  0.4153
   52MOL   H16428826   4.600   1.804   4.055  0.9753 -0.5976  0.4743
   52MOL   H16528827   4.726   1.621   4.330 -0.0745 -0.9266  0.4419
   52MOL   H16628828   4.792   1.416   4.132 -0.9520  0.2412  0.7898
   52MOL   H16728829   4.858   1.400   3.918  0.6401  0.0218  1.5415
   52MOL   H16828830   4.844   1.409   3.400 -0.0225  0.7663 -2.4925
   52MOL   H16928831   4.956   1.466   3.183  1.3716 -1.3061  0.0700
   52MOL   C17028832   4.528   1.621   4.292 -0.7608  0.6098 -0.1643
   52MOL   C17128833   4.509   1.609   4.440 -0.6451  0.3329 -0.2211
   52MOL   C17228834   4.413   1.688   4.505 -0.0961 -0.1038 -0.1944
   52MOL   C17328835   4.408   1.677   4.644 -0.0812 -0.5525  0.1975
   52MOL   C17428836   4.490   1.591   4.727  0.2415  0.1887  0.2935
   52MOL   C17528837   4.466   1.590   4.877 -0.1688  0.2598  0.5820
   52MOL   N17628838   4.532   1.500   4.951  0.3270 -0.0484  0.6492
   52MOL   C17728839   4.558   1.524   5.092  0.4620 -0.5421 -0.1688
   52MOL   C17828840   4.581   1.657   5.149  0.3523 -0.0864 -0.4819
   52MOL   C17928841   4.636   1.674   5.278  0.3198  0.7458 -0.6257
   52MOL   C18028842   4.680   1.558   5.350 -0.3997 -0.7603 -0.5640
   52MOL   N18128843   4.748   1.575   5.467  0.1843  0.8286 -0.3449
   52MOL   C18228844   4.648   1.428   5.303 -0.3369 -0.4956 -1.0253
   52MOL   C18328845   4.594   1.412   5.175  0.1434 -0.0232  0.6093
   52MOL   O18428846   4.385   1.666   4.924 -0.1949  0.0776 -0.5238
   52MOL   C18528847   4.584   1.515   4.661  0.1262  0.1084 -0.7267
   52MOL   C18628848   4.593   1.518   4.521 -0.3201 -0.2397 -0.1914
   52MOL   O18728849   4.441   1.627   4.207  0.3970 -0.5303  0.5846
   52MOL   H18828850   4.362   1.763   4.447  0.6595  0.4135 -0.1991
   52MOL   H18928851   4.338   1.735   4.701  0.6573 -0.9589  1.5577
   52MOL   H19028852   4.565   1.412   4.913 -0.1123 -0.9181  2.2448
   52MOL   H19128853   4.555   1.748   5.098 -0.5873 -1.3006 -2.1917
   52MOL   H19228854   4.650   1.776   5.308 -1.5627  0.2420  2.1241
   52MOL   H19328855   4.716   1.652   5.524 -1.5741  0.8617 -1.3552
   52MOL   H19428856   4.665   1.333   5.351 -0.1638 -2.2506 -4.4002
   52MOL   H19528857   4.579   1.310   5.143  0.7793  0.2598 -0.6490
   52MOL   H19628858   4.651   1.446   4.709 -1.6618  1.2762  3.7163
   52MOL   H19728859   4.657   1.445   4.473 -2.5858 -1.7314 -0.9757
   52MOL   C19828860   4.859   1.515   5.504 -0.1324  0.4865  0.3665
   52MOL   C19928861   4.940   1.448   5.407 -0.3345 -0.3916  0.2115
   52MOL   C20028862   5.001   1.524   5.303  0.8794  0.0553  0.5366
   52MOL   C20128863   5.087   1.457   5.211  0.1359 -0.2988 -0.0696
   52MOL   C20228864   5.101   1.321   5.210 -0.1246  0.4387 -0.8382
   52MOL   C20328865   5.179   1.252   5.094 -0.4734  0.1856 -0.6900
   52MOL   N20428866   5.218   1.132   5.126  0.3400  0.3102  0.0625
   52MOL   C20528867   5.288   1.049   5.044  0.7328  0.2462 -0.1922
   52MOL   C20628868   5.254   0.915   5.064  0.7965  0.5002  0.1512
   52MOL   C20728869   5.308   0.819   4.977  0.1872 -0.1923 -0.6678
   52MOL   C20828870   5.399   0.858   4.877  0.3075  0.2350 -0.1028
   52MOL   N20928871   5.462   0.765   4.797  0.1561 -0.0089 -0.2305
   52MOL   C21028872   5.446   0.991   4.869 -0.6653 -0.2491  1.0663
   52MOL   C21128873   5.392   1.087   4.955  0.7975  1.0380  0.3341
   52MOL   O21228874   5.187   1.305   4.981  0.1172  0.2915 -0.2065
   52MOL   C21328875   5.038   1.239   5.309  0.9788  0.6137  0.1021
   52MOL   C21428876   4.950   1.303   5.406  0.4622  0.1517  1.0700
   52MOL   O21528877   4.897   1.504   5.619 -0.3133 -0.2534 -0.0464
   52MOL   H21628878   4.982   1.629   5.288  0.7247  0.0746  0.8504
   52MOL   H21728879   5.140   1.515   5.137  1.5924 -1.8877 -0.3250
   52MOL   H21828880   5.185   1.085   5.209  1.2081 -0.8532 -0.2348
   52MOL   H21928881   5.187   0.886   5.144  2.6730  0.6592  1.8305
   52MOL   H22028882   5.280   0.715   4.992 -0.0981  0.1038  0.8712
   52MOL   H22128883   5.554   0.799   4.773 -0.6732  1.7149 -1.0547
   52MOL   H22228884   5.525   1.006   4.797 -0.2180 -0.7820  1.4465
   52MOL   H22328885   5.427   1.189   4.952  0.8810  1.0183  0.6410
   52MOL   H22428886   5.049   1.132   5.312 -1.3894  0.3628  0.4323
   52MOL   H22528887   4.911   1.242   5.486  0.2167 -0.2199  0.6693
   52MOL   C22628888   5.426   0.639   4.771  0.1427 -0.4042  0.0988
   52MOL   C22728889   5.531   0.544   4.724  0.1917  0.3189 -0.7703
   52MOL   C22828890   5.658   0.585   4.666  0.4707  0.1861  1.1620
   52MOL   C22928891   5.753   0.485   4.634  0.4673  0.8874  0.1039
   52MOL   C23028892   5.724   0.349   4.655  0.5508 -0.1380 -0.2530
   52MOL   C23128893   5.830   0.249   4.625  0.3354  0.1139 -1.1256
   52MOL   N23228894   5.785   0.154   4.541 -0.1942 -0.3478 -0.0877
   52MOL   C23328895   5.858   0.036   4.506 -0.2090  0.2512  0.2586
   52MOL   C23428896   5.771   8.065   4.502 -0.6462  0.1583 -0.0542
   52MOL   C23528897   5.833   7.938   4.487  0.1485  0.0639 -0.4614
   52MOL   C23628898   5.974   7.921   4.474  0.0158  0.1347  0.3691
   52MOL   N23728899   6.044   7.799   4.448  0.5565 -0.3906 -0.0056
   52MOL   C23828900   6.055   8.039   4.484  0.9686 -0.5242  0.2177
   52MOL   C23928901   6.005   0.024   4.493  0.1858 -0.3918  0.6206
   52MOL   O24028902   5.945   0.251   4.665 -0.2875  0.0621 -0.1639
   52MOL   C24128903   5.598   0.305   4.706  0.8026  0.0990  0.2200
   52MOL   C24228904   5.499   0.402   4.734 -0.5203  0.4758  0.0263
   52MOL   O24328905   5.308   0.601   4.778  0.8059 -0.0712  0.3290
   52MOL   H24428906   5.677   0.690   4.652 -2.4090  1.1356  3.7892
   52MOL   H24528907   5.843   0.512   4.581  0.9173 -1.4022 -0.3256
   52MOL   H24628908   5.686   0.165   4.522 -0.3157 -0.2416  0.6164
   52MOL   H24728909   5.664   8.072   4.516 -0.7547  0.3568 -0.9566
   52MOL   H24828910   5.762   7.857   4.497 -0.6651  1.0484  2.3533
   52MOL   H24928911   6.143   7.798   4.428  0.0755 -1.8492 -2.5337
   52MOL   H25028912   6.160   8.033   4.459 -0.0618  0.6481 -4.8461
   52MOL   H25128913   6.066   0.113   4.503 -0.9107  0.6277 -1.5325
   52MOL   H25228914   5.573   0.200   4.708 -0.1833  0.3428  2.2052
   52MOL   H25328915   5.398   0.371   4.758  0.0127 -0.0288  1.6676
   52MOL   C25428916   6.002   7.672   4.467  0.0764  0.0134 -0.5269
   52MOL   C25528917   6.094   7.560   4.428 -0.2057 -0.4276 -0.3679
   52MOL   C25628918   6.040   7.437   4.380  0.0791  0.0862 -0.8130
   52MOL   C25728919   6.130   7.325   4.363 -0.2415 -0.1700 -0.0267
   52MOL   C25828920   6.268   7.334   4.390 -0.0306  0.0569  0.0171
   52MOL   C25928921   6.359   7.215   4.389  0.0654 -0.4808 -0.7809
   52MOL   N26028922   6.322   7.120   4.311 -0.1209 -0.2536 -0.0379
   52MOL   C26128923   6.352   6.982   4.309 -0.3284  0.8188 -0.1232
   52MOL   C26228924   6.482   6.927   4.324  0.1312  0.1516 -0.5248
   52MOL   C26328925   6.498   6.787   4.332 -0.7062 -0.2890  0.0510
   52MOL   C26428926   6.389   6.701   4.285 -0.5651 -0.1694 -0.3429
   52MOL   N26528927   6.416   6.569   4.275 -0.8849  0.1807  0.5574
   52MOL   C26628928   6.266   6.762   4.271 -0.1061 -0.9067  0.1518
   52MOL   C26728929   6.242   6.902   4.284  0.0678  0.1942 -0.7262
   52MOL   O26828930   6.462   7.212   4.467  0.4357 -0.0247  0.2719
   52MOL   C26928931   6.319   7.462   4.416  0.1366  0.1835  1.0365
   52MOL   C27028932   6.235   7.572   4.432 -0.3160  0.1959 -0.3419
   52MOL   O27128933   5.894   7.645   4.511 -0.3431  0.4948  0.2395
   52MOL   H27228934   5.933   7.422   4.369 -0.1537  0.7578  0.3425
   52MOL   H27328935   6.088   7.227   4.350  2.2802 -1.2033 -0.6434
   52MOL   H27428936   6.256   7.158   4.244 -1.1423 -0.7942  0.6496
   52MOL   H27528937   6.566   6.987   4.357 -0.8532  1.2802 -0.0078
   52MOL   H27628938   6.596   6.747   4.355 -0.9422 -0.9292 -0.0411
   52MOL   H27728939   6.467   6.532   4.354 -1.2508  0.3224  0.8596
   52MOL   H27828940   6.187   6.694   4.242  0.9162 -1.8148 -0.5825
   52MOL   H27928941   6.140   6.932   4.266  0.2269  1.5251  0.5459
   52MOL   H28028942   6.423   7.478   4.441  0.3643 -0.1207  0.2815
   52MOL   H28128943   6.285   7.663   4.461 -0.6122 -0.2494  1.6479
   52MOL   C28228944   6.373   6.479   4.184 -0.3377  0.0226  0.0955
   52MOL   C28328945   6.313   6.526   4.055 -0.2923 -0.5570  0.3980
   52MOL   C28428946   6.182   6.494   4.022 -0.1474 -0.3108 -0.1456
   52MOL   C28528947   6.115   6.547   3.907 -0.8477  0.3759  0.2538
   52MOL   C28628948   6.180   6.646   3.832 -0.3721  0.9302  0.3408
   52MOL   C28728949   6.111   6.719   3.728  0.4313 -0.2981  0.1100
   52MOL   N28828950   5.987   6.774   3.752  0.0509 -1.1195 -0.4874
   52MOL   C28928951   5.916   6.806   3.873  0.3273  0.1692 -0.0985
   52MOL   C29028952   5.780   6.836   3.855 -1.1132  0.0797 -0.2205
   52MOL   C29128953   5.700   6.874   3.962 -0.2597  0.6761  0.0143
   52MOL   C29228954   5.755   6.881   4.095 -0.0792  0.2032  0.8525
   52MOL   N29328955   5.683   6.928   4.206 -0.2663  0.7247  0.5070
   52MOL   C29428956   5.892   6.844   4.114 -0.2601 -0.1213 -0.1682
   52MOL   C29528957   5.970   6.812   4.004  0.3982  0.0279 -0.0353
   52MOL   O29628958   6.166   6.737   3.624 -0.2047 -0.0852 -0.0172
   52MOL   C29728959   6.310   6.675   3.867  0.3473  0.4612 -0.4277
   52MOL   C29828960   6.379   6.620   3.966  0.1617 -0.3039 -0.5686
   52MOL   O29928961   6.374   6.358   4.211 -0.5460  0.3757  0.7593
   52MOL   H30028962   6.122   6.431   4.087  0.8769 -2.5455 -1.2918
   52MOL   H30128963   6.017   6.515   3.874 -1.1701  1.3974  0.2151
   52MOL   H30228964   5.938   6.788   3.665 -2.6304  2.4139  1.4712
   52MOL   H30328965   5.736   6.845   3.756  1.0893 -1.7031 -1.4095
   52MOL   H30428966   5.596   6.896   3.942 -0.8616 -1.2780  0.8660
   52MOL   H30528967   5.734   6.940   4.292 -1.5643 -2.3845  1.7577
   52MOL   H30628968   5.942   6.858   4.209 -0.9041 -1.9325  0.4712
   52MOL   H30728969   6.075   6.796   4.022 -0.0708 -2.1057  0.9924
   52MOL   H30828970   6.368   6.753   3.820  0.3232  1.5958  1.3627
   52MOL   H30928971   6.479   6.652   3.993 -0.4029  1.5813 -0.6509
   52MOL   C31028972   5.554   6.969   4.220  0.2672  0.0594 -0.1674
   52MOL   C31128973   5.521   7.064   4.336  0.2313  0.2552  0.3897
   52MOL   C31228974   5.392   7.119   4.330  0.7912  0.2421  0.5178
   52MOL   C31328975   5.350   7.218   4.424  0.1175  0.3761 -0.3291
   52MOL   C31428976   5.451   7.264   4.515  0.4389  0.3320  1.0708
   52MOL   C31528977   5.417   7.378   4.603  0.2764  0.6921  0.2599
   52MOL   N31628978   5.468   7.358   4.728 -0.2358  0.4174  0.3990
   52MOL   C31728979   5.455   7.437   4.843  0.2474  0.5986  0.3551
   52MOL   C31828980   5.556   7.432   4.943 -0.2893  0.0356 -0.1315
   52MOL   C31928981   5.535   7.515   5.062 -0.1088  0.0408 -0.2501
   52MOL   C32028982   5.409   7.575   5.092 -0.7043  0.1563  0.6096
   52MOL   N32128983   5.388   7.655   5.204 -0.5894 -0.4126  0.0213
   52MOL   C32228984   5.303   7.566   4.991  0.2190 -0.2493  0.0153
   52MOL   C32328985   5.327   7.495   4.875 -0.1953  0.0545 -0.1366
   52MOL   O32428986   5.352   7.474   4.563  1.0218 -0.7842 -0.1351
   52MOL   C32528987   5.582   7.218   4.514 -0.0756 -0.4432  0.5523
   52MOL   C32628988   5.616   7.113   4.426  0.3564  0.8702  0.4979
   52MOL   O32728989   5.476   6.941   4.133  0.4325 -0.1652 -0.1862
   52MOL   H32828990   5.326   7.085   4.252  0.6396  2.2427 -0.2727
   52MOL   H32928991   5.252   7.265   4.427  1.8814  4.3299 -1.0622
   52MOL   H33028992   5.530   7.279   4.735  1.8838  1.7381 -2.2834
   52MOL   H33128993   5.644   7.371   4.926 -0.0199  0.3323  0.1846
   52MOL   H33228994   5.620   7.532   5.126 -0.9027  1.1717  0.5190
   52MOL   H33328995   5.316   7.722   5.184  1.3180  1.9426  0.7997
   52MOL   H33428996   5.202   7.601   5.002 -0.2390 -1.7094  0.5773
   52MOL   H33528997   5.247   7.491   4.802 -1.2518 -1.1538  1.0480
   52MOL   H33628998   5.658   7.267   4.574 -0.8963  1.0778  0.3452
   52MOL   H33728999   5.718   7.080   4.413 -0.5075 -1.9184  0.4140
   52MOL   C33829000   5.407   7.633   5.333 -0.1699 -0.2200  0.3874
   52MOL   C33929001   5.352   7.722   5.429  0.4372 -0.0980 -0.3124
   52MOL   C34029002   5.419   7.738   5.550  0.6689  0.2947 -0.4594
   52MOL   C34129003   5.366   7.810   5.658  1.0434 -0.2923  0.5049
   52MOL   C34229004   5.232   7.861   5.644 -0.2105 -0.0269 -0.6603
   52MOL   C34329005   5.167   7.940   5.757 -0.2171 -0.6645  1.3835
   52MOL   N34429006   5.260   8.002   5.837  0.9392  0.7188 -0.0550
   52MOL   C34529007   5.233   8.086   5.949 -0.1674  0.2878 -0.5432
   52MOL   C34629008   5.345   8.111   6.025  0.7446  0.4698 -0.2032
   52MOL   C34729009   5.329   0.056   6.133 -0.5248 -0.2090  0.8687
   52MOL   C34829010   5.206   0.106   6.176 -0.6475  0.0359  0.0853
   52MOL   N34929011   5.196   0.204   6.279  0.3186  0.2024 -0.5005
   52MOL   C35029012   5.091   0.077   6.102 -0.0978 -0.1044  0.0160
   52MOL   C35129013   5.108   0.005   5.981  0.4814  0.1449  0.8679
   52MOL   O35229014   5.047   7.949   5.772  0.1704  0.5722  0.2029
   52MOL   C35329015   5.155   7.827   5.532 -0.1969  0.0440 -0.0588
   52MOL   C35429016   5.215   7.764   5.421 -0.0109  0.9255  0.3403
   52MOL   O35529017   5.477   7.541   5.373  0.3886  0.6583  0.4832
   52MOL   H35629018   5.513   7.686   5.552  0.7342  0.3448 -1.7408
   52MOL   H35729019   5.411   7.816   5.756 -1.9659  2.0858  1.8167
   52MOL   H35829020   5.355   7.972   5.824  0.8483  0.0940  0.6408
   52MOL   H35929021   5.439   8.070   5.991 -0.1474 -2.2251  0.4562
   52MOL   H36029022   5.415   0.098   6.184  0.2378 -1.4205  0.5827
   52MOL   H36129023   5.106   0.202   6.325  0.6731 -0.0958  0.1889
   52MOL   H36229024   4.998   0.120   6.136  0.1355  1.6360 -1.4441
   52MOL   H36329025   5.015   8.133   5.928  0.8916 -1.4261  0.6457
   52MOL   H36429026   5.052   7.857   5.521  0.6185  2.8704 -0.3417
   52MOL   H36529027   5.152   7.742   5.336 -0.6166  1.5609  0.6237
   52MOL   C36629028   5.273   0.311   6.304  0.0048  0.4722 -0.4153
   52MOL   C36729029   5.228   0.398   6.413  0.5038  0.5472 -0.5951
   52MOL   C36829030   5.227   0.538   6.396 -0.0128 -0.2768  0.6251
   52MOL   C36929031   5.192   0.618   6.503  0.5035  0.4079 -0.6455
   52MOL   C37029032   5.162   0.564   6.628  0.2181 -0.5268  0.0818
   52MOL   C37129033   5.107   0.668   6.719 -0.8444  0.0811 -0.6311
   52MOL   N37229034   5.205   0.724   6.794  0.0590  0.2139 -0.1553
   52MOL   C37329035   5.199   0.844   6.879 -0.3958 -0.3947 -0.1544
   52MOL   C37429036   5.093   0.861   6.971  0.3097 -0.5826  0.6039
   52MOL   C37529037   5.101   0.974   7.060  0.1060  0.3954  0.1777
   52MOL   C37629038   5.205   1.073   7.045  0.1200 -0.1079 -0.1950
   52MOL   N37729039   5.211   1.191   7.133  0.7777 -0.7337 -0.6416
   52MOL   C37829040   5.299   1.058   6.943 -0.3452  0.8688  0.2984
   52MOL   C37929041   5.302   0.946   6.865  0.1302  0.2477  0.0523
   52MOL   O38029042   4.989   0.697   6.727  0.1526  0.5242  0.3537
   52MOL   C38129043   5.162   0.428   6.649  1.0689 -0.0830 -0.8871
   52MOL   C38229044   5.198   0.345   6.540 -0.8749  0.3979  0.3526
   52MOL   O38329045   5.365   0.339   6.226  0.2490  0.3847 -0.1953
   52MOL   H38429046   5.251   0.580   6.299 -3.4324  0.6558  0.1144
   52MOL   H38529047   5.165   0.722   6.491  0.0378  0.4095  0.3334
   52MOL   H38629048   5.295   0.681   6.779 -0.5674 -0.6450 -1.6480
   52MOL   H38729049   5.007   0.796   6.968 -0.2510  0.2295 -1.0875
   52MOL   H38829050   5.021   0.987   7.132 -0.4905  2.6723 -0.8530
   52MOL   H38929051   5.304   1.229   7.127  0.2264  0.6494 -0.6792
   52MOL   H39029052   5.373   1.135   6.930  0.7571 -0.2334 -0.0528
   52MOL   H39129053   5.375   0.926   6.788  0.2841 -1.5602  0.6420
   52MOL   H39229054   5.155   0.385   6.748  0.1557  0.8177 -0.5581
   52MOL   H39329055   5.215   0.238   6.543  2.2963  0.8537  0.5071
   52MOL   C39429056   5.132   1.242   7.230  0.6634 -0.6937 -0.1711
   52MOL   C39529057   5.178   1.360   7.315 -0.5202  0.8913  0.8285
   52MOL   C39629058   5.290   1.433   7.266 -0.1893  0.2813 -0.2732
   52MOL   C39729059   5.341   1.539   7.347  0.0176  0.0728 -0.0187
   52MOL   C39829060   5.284   1.572   7.472 -0.0268 -0.0677 -0.3530
   52MOL   C39929061   5.342   1.681   7.559  0.2063  0.3021  0.4786
   52MOL   N40029062   5.397   1.640   7.674 -0.1509  0.2365 -0.2821
   52MOL   C40129063   5.380   1.517   7.743 -0.3258 -0.5467 -0.2462
   52MOL   C40229064   5.444   1.404   7.704  0.0624 -0.9496 -0.1002
   52MOL   C40329065   5.419   1.285   7.774  0.2754  0.2220  0.4009
   52MOL   C40429066   5.339   1.284   7.888 -0.0274 -0.1173  0.5610
   52MOL   N40529067   5.316   1.158   7.951  0.4199  0.0382 -0.6833
   52MOL   C40629068   5.278   1.402   7.927  0.2335  0.4647  0.1706
   52MOL   C40729069   5.291   1.521   7.853 -0.0089 -0.6067 -0.8865
   52MOL   O40829070   5.341   1.799   7.524  0.5371  0.2652  0.1359
   52MOL   C40929071   5.171   1.494   7.516  0.3809  0.7294 -0.3062
   52MOL   C41029072   5.125   1.387   7.440  0.7304 -0.8820  0.5365
   52MOL   O41129073   5.031   1.191   7.262 -0.1429  0.5132  0.0638
   52MOL   H41229074   5.341   1.405   7.175 -1.7816  0.8869 -1.3797
   52MOL   H41329075   5.430   1.592   7.315  2.1448 -3.2634  0.0603
   52MOL   H41429076   5.440   1.713   7.729  0.3042  0.6598 -1.1846
   52MOL   H41529077   5.517   1.394   7.624  1.6734  1.0302  1.0737
   52MOL   H41629078   5.466   1.192   7.745 -0.7735 -0.1051 -0.2943
   52MOL   H41729079   5.357   1.075   7.911 -0.9095 -1.7386  1.5122
   52MOL   H41829080   5.216   1.412   8.016  0.7505  1.2835  0.4408
   52MOL   H41929081   5.227   1.604   7.880  0.0128 -1.0031  0.4448
   52MOL   H42029082   5.139   1.513   7.617  0.7238 -0.8748  0.1209
   52MOL   H42129083   5.042   1.322   7.462 -0.6531  0.4310 -0.6790
   52MOL   C42229084   5.243   1.132   8.058 -0.1445 -0.1529  0.4115
   52MOL   C42329085   5.205   0.989   8.058  0.2406 -0.1294 -0.6483
   52MOL   C42429086   5.121   0.940   7.956 -0.3929  0.4014  0.1354
   52MOL   C42529087   5.088   0.806   7.957  0.1877 -0.3737 -0.1403
   52MOL   C42629088   5.154   0.715   8.045 -0.1095  0.4199  0.6168
   52MOL   C42729089   5.146   0.562   8.025  0.4788  0.3878  0.1474
   52MOL   N42829090   5.108   0.518   7.896  0.3770 -0.2952 -0.2780
   52MOL   C42929091   5.086   0.391   7.846 -0.1304 -0.3588 -0.1631
   52MOL   C43029092   5.049   0.275   7.916 -0.4271  0.3575 -0.4622
   52MOL   C43129093   5.012   0.162   7.838  0.0522  0.4402  0.0659
   52MOL   C43229094   5.004   0.167   7.698 -0.1900  0.3907  0.6685
   52MOL   N43329095   4.949   0.059   7.627  0.4036  0.0159 -0.2046
   52MOL   C43429096   5.043   0.279   7.628 -0.1522 -0.4191 -0.3049
   52MOL   C43529097   5.088   0.390   7.702  0.1142 -0.4767 -0.4405
   52MOL   O43629098   5.174   0.489   8.122  0.3974 -0.5190 -0.2362
   52MOL   C43729099   5.241   0.762   0.002  1.0288  0.0432 -0.6358
   52MOL   C43829100   5.262   0.901   0.010  0.8847  0.2724 -0.2452
   52MOL   O43929101   5.190   1.210   8.135 -0.6390  0.1019  0.2250
   52MOL   H44029102   5.080   1.005   7.881  0.2457 -0.6819 -1.1831
   52MOL   H44129103   5.026   0.773   7.875  0.8967 -2.2762  0.0616
   52MOL   H44229104   5.110   0.592   7.827 -0.5513 -0.1894 -0.2044
   52MOL   H44329105   5.049   0.283   8.024 -1.2135  0.7882 -0.4911
   52MOL   H44429106   4.974   0.075   7.888  1.3133 -0.2233 -0.1317
   52MOL   H44529107   4.979   8.113   7.655 -0.2591  0.3197  1.5515
   52MOL   H44629108   5.030   0.282   7.521 -1.6379 -0.0709 -0.1200
   52MOL   H44729109   5.115   0.481   7.652 -1.8674  0.8725  0.8721
   52MOL   H44829110   5.300   0.702   0.070  0.1632 -0.4738 -0.3340
   52MOL   H44929111   5.312   0.938   0.098  1.3620 -1.0516  0.0434
   52MOL   C45029112   4.831   0.066   7.568 -0.1299  0.0666  0.3985
   52MOL   C45129113   4.781   8.082   7.515 -0.2042  0.3181  0.0760
   52MOL   C45229114   4.786   7.965   7.594  0.0693 -0.3232 -0.5337
   52MOL   C45329115   4.729   7.846   7.538  0.7300  0.3776 -0.0321
   52MOL   C45429116   4.650   7.847   7.416 -0.5016 -0.7276 -0.0437
   52MOL   C45529117   4.564   7.729   7.375  0.2092 -0.6953 -0.2460
   52MOL   N45629118   4.482   7.756   7.267 -0.3478 -0.1648 -0.2169
   52MOL   C45729119   4.404   7.671   7.183  0.2960  0.2099 -0.3079
   52MOL   C45829120   4.418   7.531   7.193  0.3411 -0.5057 -0.0143
   52MOL   C45929121   4.350   7.439   7.110 -0.2923 -0.8331  0.3868
   52MOL   C46029122   4.262   7.487   7.016 -0.4084 -0.7504 -0.0229
   52MOL   N46129123   4.175   7.404   6.942  0.4372  0.5321  0.0650
   52MOL   C46229124   4.249   7.623   6.999 -0.4347 -0.0681  0.4494
   52MOL   C46329125   4.310   7.718   7.083  0.5280  0.1445  0.2233
   52MOL   O46429126   4.569   7.626   7.445  0.3061 -0.1783 -0.2231
   52MOL   C46529127   4.654   7.969   7.337 -0.6202  0.0925 -0.5861
   52MOL   C46629128   4.720   8.087   7.388  0.3887  1.0430  0.0047
   52MOL   O46729129   4.768   0.173   7.547  0.1951  0.2933  0.4525
   52MOL   H46829130   4.829   7.958   7.693 -1.7735 -0.5896  0.2852
   52MOL   H46929131   4.728   7.761   7.605  0.1469  1.3973  1.2813
   52MOL   H47029132   4.496   7.850   7.233  0.0598 -1.4821 -3.8962
   52MOL   H47129133   4.480   7.479   7.265 -0.9085  1.1650  2.2987
   52MOL   H47229134   4.352   7.332   7.124 -2.6609 -0.8065  1.0956
   52MOL   H47329135   4.108   7.457   6.888  1.3132  2.2447  0.6193
   52MOL   H47429136   4.181   7.676   6.934 -0.4327  0.7193  1.0846
   52MOL   H47529137   4.284   7.822   7.073 -3.2248 -0.8460 -1.1357
   52MOL   H47629138   4.624   7.981   7.234 -1.4362 -0.5653 -0.4273
   52MOL   H47729139   4.718   0.026   7.322 -1.3979  1.7935  0.9968
   52MOL   C47829140   4.191   7.279   6.890 -0.9056 -0.0304 -0.6183
   52MOL   C47929141   4.122   7.250   6.759  0.5598  0.7622 -0.1604
   52MOL   C48029142   3.982   7.273   6.739  0.0365 -0.6131 -1.0292
   52MOL   C48129143   3.924   7.242   6.614  0.4975  0.2374  0.2392
   52MOL   C48229144   3.999   7.184   6.508  0.1841  0.2818 -0.5283
   52MOL   C48329145   3.937   7.170   6.375  0.0508  0.4787 -0.0408
   52MOL   N48429146   4.017   7.149   6.268  0.1867 -0.6643  0.0035
   52MOL   C48529147   3.982   7.124   6.132 -0.5205 -0.2081 -0.7657
   52MOL   C48629148   4.070   7.163   6.035 -0.0546  0.8349  0.3044
   52MOL   C48729149   4.051   7.141   5.899 -0.6532 -0.3112  0.7351
   52MOL   C48829150   3.929   7.083   5.857  0.0083 -0.2655 -0.2213
   52MOL   N48929151   3.901   7.081   5.715 -0.0607  0.2843  0.2506
   52MOL   C49029152   3.831   7.047   5.954 -0.2464 -0.2519 -0.2627
   52MOL   C49129153   3.857   7.065   6.092 -0.3475 -0.4851  0.1467
   52MOL   O49229154   3.814   7.185   6.363 -0.2064  0.4995 -0.0820
   52MOL   C49329155   4.130   7.142   6.538 -0.0884 -0.3150  0.3958
   52MOL   C49429156   4.195   7.184   6.656  0.6660  0.1001  0.7056
   52MOL   O49529157   4.260   7.192   6.943  0.1406 -0.0332  0.0072
   52MOL   H49629158   3.918   7.327   6.808  1.8116  0.7452 -0.3993
   52MOL   H49729159   3.823   7.279   6.599  1.0870  0.4178 -3.8702
   52MOL   H49829160   4.116   7.159   6.286  0.0359 -0.3897  0.6776
   52MOL   H49929161   4.163   7.210   6.063 -0.3848  1.3294  0.5677
   52MOL   H50029162   4.127   7.171   5.827 -2.8960 -0.8680 -1.9585
   52MOL   H50129163   3.879   7.171   5.674  2.5869  0.6838 -0.3561
   52MOL   H50229164   3.734   7.002   5.936 -0.4187 -0.6070  1.4987
   52MOL   H50329165   3.787   7.029   6.165 -0.7321  0.4764  0.2619
   52MOL   H50429166   4.199   7.102   6.465  0.7090 -0.2907  1.1348
   52MOL   H50529167   4.299   7.163   6.678  0.7287 -1.4175 -0.8978
   52MOL   C50629168   3.942   6.982   5.641  0.1627  0.8776  0.4257
   52MOL   C50729169   3.975   7.012   5.500 -0.0009 -0.4216  0.1497
   52MOL   C50829170   4.032   7.143   5.470 -0.6713 -0.2122  0.2849
   52MOL   C50929171   4.070   7.169   5.337 -0.5693 -0.1593 -0.1142
   52MOL   C51029172   4.058   7.074   5.234  0.5216  0.1829 -0.4393
   52MOL   C51129173   4.111   7.101   5.099 -0.0436  0.3299  0.1261
   52MOL   N51229174   4.234   7.163   5.086  0.3300 -0.4880  0.3632
   52MOL   C51329175   4.343   7.177   5.180  0.2232 -0.1780 -0.6654
   52MOL   C51429176   4.371   7.087   5.280  0.2263  0.7969 -0.0853
   52MOL   C51529177   4.475   7.106   5.376  0.4755  0.0783  0.1765
   52MOL   C51629178   4.551   7.223   5.377 -0.0285  0.0651  0.3279
   52MOL   N51729179   4.648   7.249   5.475 -0.2123  0.4979 -0.0573
   52MOL   C51829180   4.537   7.304   5.264  0.8061 -0.0426 -0.0314
   52MOL   C51929181   4.435   7.284   5.169 -0.1986 -0.3362 -0.2733
   52MOL   O52029182   4.044   7.078   4.997 -0.2573  0.0475  0.4472
   52MOL   C52129183   3.996   6.951   5.270 -0.7865  0.0280 -0.0699
   52MOL   C52229184   3.953   6.923   5.398 -0.3373  0.2237  0.3819
   52MOL   O52329185   3.950   6.866   5.684  0.0581 -0.2442 -0.5400
   52MOL   H52429186   4.056   7.215   5.547 -1.9815  1.2187 -0.6104
   52MOL   H52529187   4.123   7.258   5.308 -1.7741  0.4442 -0.4943
   52MOL   H52629188   4.262   7.203   4.997  0.6604 -0.9887  0.2389
   52MOL   H52729189   4.312   6.996   5.281  0.9971  0.2936  1.7024
   52MOL   H52829190   4.486   7.020   5.441  0.7801 -0.4416 -0.5598
   52MOL   H52929191   4.655   7.342   5.513 -0.8106  0.4804  0.0980
   52MOL   H53029192   4.595   7.395   5.254 -0.6619  0.8884 -0.2390
   52MOL   H53129193   4.426   7.357   5.089  4.6935  2.1519  1.2757
   52MOL   H53229194   3.983   6.880   5.189 -0.1953  0.8500 -0.8853
   52MOL   H53329195   3.905   6.828   5.419 -0.7896  0.8971  2.4462
   52MOL   C53429196   4.722   7.154   5.535  0.2895 -0.1215 -1.0193
   52MOL   C53529197   4.785   7.197   5.665  0.2939  0.3013 -0.3353
   52MOL   C53629198   4.705   7.251   5.771 -0.3212  0.4636  0.1688
   52MOL   C53729199   4.763   7.298   5.891  0.3421 -0.2286 -0.1228
   52MOL   C53829200   4.901   7.284   5.921  0.1073 -0.4499  0.3455
   52MOL   C53929201   4.967   7.352   6.028 -0.7228 -1.1583  0.1431
   52MOL   N54029202   4.926   7.481   6.038  0.5217  0.7328  0.1636
   52MOL   C54129203   4.987   7.585   6.117 -0.1775 -0.4102  0.3803
   52MOL   C54229204   5.058   7.568   6.236  0.1477  0.4806 -0.0686
   52MOL   C54329205   5.108   7.682   6.299 -0.1322  0.6820 -0.2333
   52MOL   C54429206   5.082   7.814   6.252 -0.1022 -0.5370 -0.0348
   52MOL   N54529207   5.124   7.934   6.315 -0.5598 -0.1507  0.0084
   52MOL   C54629208   5.002   7.826   6.140  0.5687 -0.1628  0.2531
   52MOL   C54729209   4.962   7.719   6.064 -0.4107  0.2518  0.3403
   52MOL   O54829210   5.054   7.302   6.095 -0.2806  0.1834  0.0787
   52MOL   C54929211   4.973   7.207   5.821 -0.4659  0.1506  0.4911
   52MOL   C55029212   4.922   7.170   5.694  0.2218  0.2995  0.1178
   52MOL   O55129213   4.754   7.053   5.476  0.1869  0.5832 -0.4209
   52MOL   H55229214   4.598   7.260   5.766 -0.2359  0.6937 -1.5755
   52MOL   H55329215   4.700   7.345   5.964  0.8709  0.5248 -0.1431
   52MOL   H55429216   4.857   7.517   5.974  1.4174  0.6542 -0.8601
   52MOL   H55529217   5.079   7.467   6.269  0.6791  1.3950  2.4725
   52MOL   H55629218   5.177   7.656   6.378  1.6635 -0.9818 -2.2769
   52MOL   H55729219   5.087   8.025   6.291  1.2677  0.6840  0.2398
   52MOL   H55829220   4.967   7.924   6.113 -3.7260 -1.8874 -0.9849
   52MOL   H55929221   4.903   7.739   5.976  0.2984  0.3773 -0.1163
   52MOL   H56029222   5.076   7.181   5.844 -0.0330  0.9641 -0.4789
   52MOL   H56129223   4.988   7.133   5.618 -0.6323 -2.7862  0.8170
   52MOL   H56229224   5.202   7.936   6.379 -0.6542  1.6607  0.1143
   53MOL     C129225   0.254   3.943   1.505 -0.7009 -0.6037  0.2457
   53MOL     C229226   0.242   3.914   1.658  0.2136  0.0715  0.0932
   53MOL     C329227   0.121   3.851   1.695  0.8282  0.1265 -0.9139
   53MOL     C429228   0.086   3.842   1.831  0.4025  0.0947  0.3645
   53MOL     C529229   0.182   3.876   1.927  0.0126 -0.1385  0.1080
   53MOL     C629230   0.159   3.853   2.072  0.4700 -0.5922 -0.7241
   53MOL     N729231   0.198   3.730   2.116  0.0777  0.4627 -1.0188
   53MOL     C829232   0.183   3.668   2.244 -0.0016 -0.2531 -0.9737
   53MOL     C929233   0.157   3.741   2.365  0.1912 -0.5774 -0.0243
   53MOL    C1029234   0.135   3.665   2.479 -0.1274 -0.3066 -0.4735
   53MOL    C1129235   0.162   3.527   2.480 -0.2423 -0.1415 -0.3117
   53MOL    N1229236   0.155   3.446   2.602 -0.0640  0.5235  0.3732
   53MOL    C1329237   0.193   3.461   2.364 -0.2108  0.1559 -1.3156
   53MOL    C1429238   0.206   3.532   2.247 -0.4030  0.3215 -0.0647
   53MOL    O1529239   0.120   3.940   2.149  0.2688 -0.3233  0.4316
   53MOL    C1629240   0.307   3.920   1.889 -1.0814  0.5516  0.1620
   53MOL    C1729241   0.334   3.952   1.757  0.0795  0.9081  0.4759
   53MOL    O1829242   0.358   3.995   1.458 -0.4313 -0.0381 -0.1406
   53MOL    H1929243   0.047   3.825   1.621  0.2182  2.6641 -1.2669
   53MOL    H2029244   8.135   3.798   1.851 -0.5015  1.1318 -1.6732
   53MOL    H2129245   0.198   3.669   2.035 -0.9512 -0.2824 -0.4769
   53MOL    H2229246   0.143   3.848   2.372 -1.4254 -0.8623  1.2479
   53MOL    H2329247   0.110   3.719   2.569 -3.2829 -1.9407 -0.3206
   53MOL    H2429248   0.166   3.347   2.590  3.7440  0.9738 -0.7527
   53MOL    H2529249   0.195   3.353   2.361 -0.5470 -0.0125  2.4715
   53MOL    H2629250   0.230   3.479   2.156 -0.0165  0.9321 -0.3193
   53MOL    H2729251   0.381   3.940   1.966 -0.6175  1.5022 -0.5157
   53MOL    H2829252   0.427   4.001   1.736  0.7558 -0.4963  0.0951
   53MOL    H2929253   0.187   3.889   1.439  0.8265  0.0197 -1.8675
   53MOL    C3029254   0.155   3.480   2.731  0.1019  0.1247 -0.1583
   53MOL    C3129255   0.172   3.364   2.827  0.0215  0.1876 -0.4086
   53MOL    C3229256   0.179   3.387   2.963 -0.1576  0.7424 -0.0350
   53MOL    C3329257   0.182   3.291   3.063 -0.0738  0.4774 -0.0905
   53MOL    C3429258   0.204   3.156   3.024 -0.3393  0.7482 -0.0771
   53MOL    C3529259   0.220   3.054   3.134  0.3571 -0.7316 -0.4497
   53MOL    N3629260   0.184   3.089   3.258 -0.0286 -0.2020 -0.6106
   53MOL    C3729261   0.182   2.986   3.360 -0.1170 -0.8058  0.3450
   53MOL    C3829262   0.068   2.975   3.435  1.0581  0.1261  0.4760
   53MOL    C3929263   0.054   2.881   3.536  0.1251 -0.9523 -1.1332
   53MOL    C4029264   0.175   2.805   3.575 -0.2512  0.4378 -0.3214
   53MOL    N4129265   0.191   2.717   3.688 -0.3134  0.3904 -0.1482
   53MOL    C4229266   0.289   2.824   3.504  0.0792 -0.6175 -0.1374
   53MOL    C4329267   0.295   2.914   3.400 -0.0718 -0.2119  0.8537
   53MOL    O4429268   0.273   2.947   3.111 -0.3582  0.4965 -0.6370
   53MOL    C4529269   0.212   3.130   2.882 -0.0313  0.0420 -0.6523
   53MOL    C4629270   0.188   3.228   2.784  0.9499 -0.0842  0.1147
   53MOL    O4729271   0.153   3.598   2.771 -0.2939 -0.3248 -0.1492
   53MOL    H4829272   0.177   3.487   3.002  0.3877 -0.2567  2.6476
   53MOL    H4929273   0.181   3.321   3.166 -0.7206  1.6483 -0.4326
   53MOL    H5029274   0.121   3.165   3.277 -6.3220 -4.9877 -0.5729
   53MOL    H5129275   8.127   3.036   3.417 -0.7076 -2.1997  0.9035
   53MOL    H5229276   8.105   2.881   3.587  0.9322  2.4874  0.4739
   53MOL    H5329277   0.272   2.656   3.692 -0.5021 -0.0235 -2.3767
   53MOL    H5429278   0.370   2.757   3.528  0.9552  1.0955  1.7882
   53MOL    H5529279   0.387   2.928   3.345 -0.6272 -3.2528 -0.9677
   53MOL    H5629280   0.228   3.028   2.854 -0.0141 -0.2001  0.2078
   53MOL    H5729281   0.192   3.188   2.684 -0.2385 -0.7310  0.3086
   53MOL    C5829282   0.109   2.707   3.796 -0.3048 -0.0654  0.4151
   53MOL    C5929283   0.136   2.598   3.893  0.2280 -1.0178  0.3866
   53MOL    C6029284   0.171   2.467   3.852  0.2269  0.5862  0.0556
   53MOL    C6129285   0.168   2.358   3.943  0.4737  0.1214  0.1069
   53MOL    C6229286   0.132   2.380   4.078  0.5880  0.5611  0.1373
   53MOL    C6329287   0.108   2.267   4.167 -0.8722 -0.3443 -0.1671
   53MOL    N6429288   0.138   2.300   4.294 -0.3173  0.2913 -0.2496
   53MOL    C6529289   0.113   2.229   4.418 -0.5731  0.2025  0.5893
   53MOL    C6629290   0.053   2.101   4.419 -0.2282 -0.5996  0.1412
   53MOL    C6729291   0.016   2.031   4.534 -0.0690  0.1978 -0.2656
   53MOL    C6829292   0.045   2.090   4.660  0.4357  0.2339 -0.4207
   53MOL    N6929293   8.145   2.015   4.774  0.8813 -0.0092  0.1048
   53MOL    C7029294   0.107   2.219   4.658 -0.3033  0.3087  0.2498
   53MOL    C7129295   0.139   2.289   4.543 -0.6465 -0.3022 -0.2318
   53MOL    O7229296   0.078   2.156   4.121  0.3908  0.4962  0.2029
   53MOL    C7329297   0.095   2.516   4.118 -0.0044  0.0134  0.2283
   53MOL    C7429298   0.084   2.617   4.028 -0.4814  0.0533 -0.9076
   53MOL    O7529299   0.017   2.783   3.820 -0.0813  0.0354 -0.2959
   53MOL    H7629300   0.191   2.444   3.748 -0.9800 -0.9668  0.1454
   53MOL    H7729301   0.182   2.256   3.910 -1.6843 -0.0035 -0.5364
   53MOL    H7829302   0.193   2.384   4.302 -0.0611  0.0766  0.2161
   53MOL    H7929303   0.053   2.049   4.324  2.6123 -0.7311  0.1646
   53MOL    H8029304   0.003   1.925   4.517  0.1903  0.4089 -1.7917
   53MOL    H8129305   8.049   1.984   4.773  0.8735  0.0122  0.4740
   53MOL    H8229306   0.137   2.265   4.752  1.2424 -0.8346  0.3496
   53MOL    H8329307   0.179   2.389   4.546 -1.0367 -0.0612 -2.1527
   53MOL    H8429308   0.059   2.539   4.217  0.0358  0.2313  0.1921
   53MOL    H8529309   0.045   2.711   4.064  1.9993  0.6998  0.2407
   53MOL    C8629310   0.038   2.046   4.897  0.0429 -0.0978  0.2399
   53MOL    C8729311   8.073   2.015   4.998 -0.4393 -0.0706 -0.3064
   53MOL    C8829312   7.956   1.935   4.977 -0.5584 -0.0297  0.0961
   53MOL    C8929313   7.860   1.909   5.081 -0.3169 -0.1132  0.0940
   53MOL    C9029314   7.874   1.973   5.208 -0.2655 -0.5522 -0.9686
   53MOL    C9129315   7.769   1.944   5.315 -0.5804  0.6802 -0.0419
   53MOL    N9229316   7.693   1.840   5.298  0.3011  0.5493 -0.4872
   53MOL    C9329317   7.611   1.782   5.397  0.6009 -0.0831  0.3986
   53MOL    C9429318   7.477   1.750   5.364  0.3478 -0.0437  0.0060
   53MOL    C9529319   7.401   1.684   5.463  0.2046 -0.3991  0.4119
   53MOL    C9629320   7.451   1.663   5.588  0.3456  0.1496 -0.9320
   53MOL    N9729321   7.375   1.586   5.671 -0.0632 -0.3184  0.6064
   53MOL    C9829322   7.586   1.693   5.621 -0.0567 -0.0108 -0.2098
   53MOL    C9929323   7.662   1.758   5.526 -0.1848  0.5788 -0.4403
   53MOL   O10029324   7.767   2.012   5.419 -0.0238  0.2386  0.3867
   53MOL   C10129325   7.979   2.063   5.226 -0.2055 -0.3925 -0.2043
   53MOL   C10229326   8.080   2.084   5.123 -0.2552 -0.4053  0.2225
   53MOL   O10329327   0.144   2.097   4.927  0.4245  0.4004  0.4780
   53MOL   H10429328   7.941   1.881   4.885 -0.9112 -0.2155  0.2576
   53MOL   H10529329   7.777   1.845   5.055  0.0524 -0.0002 -1.4046
   53MOL   H10629330   7.688   1.806   5.203  0.6933  0.6556 -0.5469
   53MOL   H10729331   7.439   1.765   5.264 -1.5232  1.3535  0.9022
   53MOL   H10829332   7.302   1.642   5.451 -0.7537  1.7503  0.5589
   53MOL   H10929333   7.303   1.536   5.620  0.4995 -1.6942  1.1335
   53MOL   H11029334   7.635   1.665   5.713  3.3158  2.8394 -1.0509
   53MOL   H11129335   7.766   1.776   5.550  0.1890 -0.8333 -0.9232
   53MOL   H11229336   7.992   2.113   5.321  1.4376 -2.3454  0.6638
   53MOL   H11329337   0.020   2.147   5.135  0.9919 -1.7274 -1.4622
   53MOL   C11429338   7.385   1.574   5.806 -0.7864  0.7292  0.2226
   53MOL   C11529339   7.310   1.467   5.883  0.5663  0.4990 -0.2388
   53MOL   C11629340   7.181   1.433   5.849 -0.4036  1.1396 -0.6168
   53MOL   C11729341   7.101   1.357   5.927 -0.3678 -0.1537  0.1094
   53MOL   C11829342   7.158   1.293   6.035 -0.2079 -0.4647 -0.9122
   53MOL   C11929343   7.083   1.184   6.108  0.1544 -0.3178  0.1030
   53MOL   N12029344   6.954   1.212   6.123 -0.3151  0.2751  0.5705
   53MOL   C12129345   6.852   1.143   6.182 -0.3738 -0.1114  0.8204
   53MOL   C12229346   6.747   1.224   6.229  0.1483 -0.1399 -0.0049
   53MOL   C12329347   6.631   1.172   6.285  0.4777 -0.3903 -0.3911
   53MOL   C12429348   6.617   1.034   6.292 -0.4856 -1.0110  0.0993
   53MOL   N12529349   6.488   0.985   6.323 -0.2035 -0.0842  0.9245
   53MOL   C12629350   6.722   0.949   6.257 -0.2882  0.8927  0.4516
   53MOL   C12729351   6.840   1.004   6.203  0.2632 -0.2648 -0.5470
   53MOL   O12829352   7.140   1.085   6.159 -0.0380  0.2946 -0.1093
   53MOL   C12929353   7.295   1.318   6.069 -0.8551 -0.0000  0.2629
   53MOL   C13029354   7.369   1.403   5.991 -0.7153 -0.1069 -0.6866
   53MOL   O13129355   7.458   1.644   5.872  0.1729  0.0701 -0.7861
   53MOL   H13229356   7.137   1.480   5.762 -1.1387  0.1557 -0.7836
   53MOL   H13329357   7.001   1.341   5.887 -1.7015  3.2451  1.8752
   53MOL   H13429358   6.931   1.310   6.115 -2.8655 -0.2598  0.9150
   53MOL   H13529359   6.761   1.330   6.217 -0.6550 -0.1146 -0.7453
   53MOL   H13629360   6.548   1.231   6.320  2.1341  1.5977  0.2522
   53MOL   H13729361   6.410   1.041   6.290 -1.0004 -1.6272  0.1175
   53MOL   H13829362   6.710   0.842   6.263  0.9173  0.6491 -1.3223
   53MOL   H13929363   6.922   0.944   6.167  0.4233 -0.9787  0.9625
   53MOL   H14029364   7.333   1.281   6.163 -0.9552 -2.0265 -0.4611
   53MOL   H14129365   7.463   1.429   6.037 -2.2579 -1.8109  3.6699
   53MOL   C14229366   6.462   0.861   6.371  0.1801  0.5004 -0.4288
   53MOL   C14329367   6.313   0.822   6.357  0.0695  0.3486 -0.3190
   53MOL   C14429368   6.215   0.919   6.380 -0.1314 -0.0587  0.0321
   53MOL   C14529369   6.082   0.894   6.334  0.0127 -0.8771  0.0844
   53MOL   C14629370   6.048   0.766   6.274  0.2109  0.6204 -0.2336
   53MOL   C14729371   5.907   0.749   6.219  0.0300  0.0261  0.3029
   53MOL   N14829372   5.895   0.775   6.088  0.1520 -0.0932  1.0930
   53MOL   C14929373   6.000   0.792   5.996  0.0869 -0.1510  1.0772
   53MOL   C15029374   6.044   0.685   5.912 -0.5427 -0.2028  0.3214
   53MOL   C15129375   6.151   0.692   5.816  0.6434 -0.2087  0.5320
   53MOL   C15229376   6.217   0.817   5.812 -0.2394 -0.4960  0.3262
   53MOL   N15329377   6.328   0.828   5.725 -0.6649  0.3393  0.0944
   53MOL   C15429378   6.171   0.931   5.889  0.4285  0.0433  0.6649
   53MOL   C15529379   6.068   0.917   5.982  0.1873  0.4886  0.3173
   53MOL   O15629380   5.800   0.730   6.281  0.0700  0.0748  0.2488
   53MOL   C15729381   6.152   0.666   6.258 -0.0526 -0.8841  0.4277
   53MOL   C15829382   6.282   0.697   6.298  0.0363 -0.0129  0.4338
   53MOL   O15929383   6.542   0.779   6.416  0.7218  0.2585 -0.0064
   53MOL   H16029384   6.254   1.013   6.416 -0.7343  0.2935 -0.2252
   53MOL   H16129385   6.011   0.976   6.333  0.0229 -0.8542 -1.9945
   53MOL   H16229386   5.802   0.757   6.053  1.1140 -1.2639 -0.9422
   53MOL   H16329387   5.989   0.592   5.914 -0.6788 -0.2334 -2.5362
   53MOL   H16429388   6.191   0.612   5.756 -0.2342 -0.8205  0.7505
   53MOL   H16529389   6.394   0.752   5.717  0.1343  1.0515 -0.1191
   53MOL   H16629390   6.224   1.026   5.883  2.4259 -1.1047 -0.4613
   53MOL   H16729391   6.040   0.999   6.046  1.6788  2.2513 -1.2289
   53MOL   H16829392   6.141   0.572   6.206  1.3245 -0.3184 -0.9399
   53MOL   H16929393   6.367   0.631   6.285  0.6884  1.0978 -1.1314
   53MOL   C17029394   6.342   0.927   5.628  0.0987 -0.1808  0.0893
   53MOL   C17129395   6.471   0.925   5.546 -0.3168 -0.4973 -0.2217
   53MOL   C17229396   6.499   1.032   5.447  0.5630  0.2007  0.0718
   53MOL   C17329397   6.626   1.032   5.380  0.4761 -0.1545  0.1236
   53MOL   C17429398   6.721   0.930   5.408  0.2711 -0.4709 -0.5865
   53MOL   C17529399   6.859   0.930   5.339  0.6292 -1.0860 -0.3304
   53MOL   N17629400   6.909   0.808   5.303 -0.3708 -0.4905 -0.2445
   53MOL   C17729401   7.042   0.788   5.247 -0.3927  0.7306  0.2802
   53MOL   C17829402   7.115   0.672   5.277  0.3704  0.5389  0.3149
   53MOL   C17929403   7.243   0.656   5.223  0.0016  0.3498  0.2769
   53MOL   C18029404   7.297   0.757   5.132 -0.0029  0.7218 -0.1292
   53MOL   N18129405   7.421   0.752   5.063  0.6713  0.2776 -0.4568
   53MOL   C18229406   7.219   0.867   5.099  0.2486 -0.3478 -0.1286
   53MOL   C18329407   7.094   0.879   5.148  0.9272 -0.2225 -0.0851
   53MOL   O18429408   6.915   1.038   5.319 -0.5004 -0.2924  0.6373
   53MOL   C18529409   6.692   0.835   5.510  0.3344  0.2304 -0.4143
   53MOL   C18629410   6.568   0.832   5.581  0.0398  0.6552 -0.3625
   53MOL   O18729411   6.250   1.004   5.601  0.2812 -0.1210 -0.0193
   53MOL   H18829412   6.430   1.109   5.417  0.2257  0.0632  0.4853
   53MOL   H18929413   6.657   1.101   5.304 -2.0175  0.4047 -0.4391
   53MOL   H19029414   6.842   0.732   5.308 -0.0202 -0.7242  1.2682
   53MOL   H19129415   7.069   0.596   5.338  0.0908 -0.8267 -1.5580
   53MOL   H19229416   7.302   0.570   5.250 -0.3169 -0.0704 -0.3432
   53MOL   H19329417   7.445   0.840   5.022  3.0911 -0.1337  0.0122
   53MOL   H19429418   7.245   0.938   5.022 -0.7942 -0.5015 -0.6275
   53MOL   H19529419   7.036   0.964   5.117  3.0591  1.2496 -0.1297
   53MOL   H19629420   6.774   0.769   5.534  1.1229  2.3136  2.9593
   53MOL   H19729421   6.550   0.752   5.651  4.6125 -0.0148  0.2075
   53MOL   C19829422   7.491   0.649   5.010  0.1725  0.2547 -0.2307
   53MOL   C19929423   7.605   0.688   4.922  0.1571 -0.5862  0.3397
   53MOL   C20029424   7.697   0.590   4.887  0.1517  0.4896  0.4749
   53MOL   C20129425   7.803   0.624   4.801 -0.5432  0.0699 -0.2053
   53MOL   C20229426   7.821   0.753   4.748  0.2605 -0.1494  0.2271
   53MOL   C20329427   7.941   0.781   4.662  0.0622  0.2609  0.2095
   53MOL   N20429428   7.982   0.908   4.646 -0.1149  0.5638  0.1485
   53MOL   C20529429   8.094   0.956   4.579  0.1552 -0.1311 -0.6079
   53MOL   C20629430   8.089   1.085   4.526  0.0493 -0.0135 -0.3474
   53MOL   C20729431   0.049   1.152   4.463  0.4357 -0.9125  0.0014
   53MOL   C20829432   0.176   1.087   4.447 -0.4898 -0.2277  0.1027
   53MOL   N20929433   0.288   1.149   4.395  0.0564  0.4626  0.5519
   53MOL   C21029434   0.183   0.956   4.509 -0.9644  0.6576  0.1822
   53MOL   C21129435   0.073   0.892   4.568  0.5295 -0.0945  0.7104
   53MOL   O21229436   8.002   0.684   4.619 -0.0347  0.8981  0.7092
   53MOL   C21329437   7.724   0.852   4.777  0.1183 -0.1204 -0.4008
   53MOL   C21429438   7.616   0.815   4.865  0.6180  0.2740 -0.2914
   53MOL   O21529439   7.478   0.537   5.037  0.5292 -0.1450 -0.6102
   53MOL   H21629440   7.688   0.490   4.929 -0.4796  0.6411  0.7043
   53MOL   H21729441   7.878   0.548   4.783 -0.0619  0.6378 -0.5735
   53MOL   H21829442   7.916   0.977   4.677 -0.1216  1.5601 -1.9575
   53MOL   H21929443   8.008   1.148   4.559 -1.5126 -3.5488  3.0336
   53MOL   H22029444   0.036   1.257   4.440  1.8905 -1.0137 -1.3696
   53MOL   H22129445   0.365   1.091   4.364 -0.0241  1.3655 -1.4044
   53MOL   H22229446   0.273   0.896   4.500 -2.7073 -1.9789 -0.3638
   53MOL   H22329447   0.085   0.788   4.595  1.6263 -0.1467  0.0550
   53MOL   H22429448   7.729   0.951   4.734  1.4367 -0.6734 -1.5852
   53MOL   H22529449   7.546   0.894   4.887 -1.3197 -1.9368  1.6767
   53MOL   C22629450   0.318   1.279   4.404  0.5493 -0.1860 -0.7127
   53MOL   C22729451   0.439   1.316   4.325  0.1505  0.3955 -0.2683
   53MOL   C22829452   0.452   1.445   4.272  0.1022 -0.0942  0.1116
   53MOL   C22929453   0.569   1.490   4.201 -0.1438 -0.1135  1.1674
   53MOL   C23029454   0.678   1.401   4.191 -0.0228 -0.0567  0.0075
   53MOL   C23129455   0.802   1.439   4.113 -0.1849  0.0974  0.5059
   53MOL   N23229456   0.838   1.566   4.110 -0.1843 -0.1004 -0.5437
   53MOL   C23329457   0.949   1.641   4.050 -0.6799 -0.0110 -0.3982
   53MOL   C23429458   0.917   1.756   3.973 -0.2633 -0.0475  0.5380
   53MOL   C23529459   1.023   1.815   3.893  0.0457  0.7454 -0.1242
   53MOL   C23629460   1.157   1.765   3.906  0.4918 -0.2859 -0.1870
   53MOL   N23729461   1.253   1.819   3.815 -0.8210  0.1576 -0.8281
   53MOL   C23829462   1.183   1.656   3.986 -0.6888  1.0502  0.2127
   53MOL   C23929463   1.081   1.590   4.056 -0.3343  0.1206 -0.4346
   53MOL   O24029464   0.865   1.345   4.063 -0.0088  0.3097 -0.2929
   53MOL   C24129465   0.656   1.261   4.229  0.2954 -0.1140  0.0345
   53MOL   C24229466   0.544   1.224   4.298 -0.1033  0.1044  0.0282
   53MOL   O24329467   0.250   1.367   4.463  0.9460  0.6867  0.4083
   53MOL   H24429468   0.373   1.517   4.288  0.5721  0.3185  0.5913
   53MOL   H24529469   0.582   1.591   4.166  1.1601 -0.0363  1.8407
   53MOL   H24629470   0.779   1.623   4.170 -1.8287 -1.3368 -0.9746
   53MOL   H24729471   0.816   1.793   3.968 -0.9843 -2.1318 -1.0106
   53MOL   H24829472   1.005   1.902   3.832 -1.2112  0.7019  0.1680
   53MOL   H24929473   1.206   1.860   3.735  0.2328  1.5572 -0.7589
   53MOL   H25029474   1.285   1.624   4.000 -0.5796  1.8106  1.1942
   53MOL   H25129475   1.100   1.507   4.122 -1.6626 -0.5217 -0.8381
   53MOL   H25229476   0.744   1.200   4.215 -0.4926 -1.4167  0.6812
   53MOL   H25329477   0.530   1.121   4.325 -2.0601  0.7997  1.7951
   53MOL   C25429478   1.388   1.814   3.822  0.2227 -0.4390 -0.0971
   53MOL   C25529479   1.452   1.865   3.698  0.0339  0.1752 -0.9356
   53MOL   C25629480   1.384   1.891   3.580  0.0335  0.3450  1.4659
   53MOL   C25729481   1.449   1.940   3.467  0.3411  0.4665  0.4223
   53MOL   C25829482   1.587   1.954   3.455 -0.0825 -0.9500 -0.0831
   53MOL   C25929483   1.653   2.010   3.330 -0.0224  0.1107  0.4869
   53MOL   N26029484   1.574   2.010   3.222 -0.1868  0.3354  0.0434
   53MOL   C26129485   1.576   2.075   3.099 -0.1186 -0.9548  0.1270
   53MOL   C26229486   1.452   2.095   3.036 -0.6721 -0.9289  0.5399
   53MOL   C26329487   1.454   2.172   2.920 -0.0363  0.5310  0.2689
   53MOL   C26429488   1.570   2.235   2.865  0.3505 -0.0022  0.3107
   53MOL   N26529489   1.556   2.296   2.740 -0.0290 -0.5937 -0.8197
   53MOL   C26629490   1.694   2.208   2.923 -0.0063  0.0644  0.0104
   53MOL   C26729491   1.696   2.135   3.044  0.2276  0.3911  0.8428
   53MOL   O26829492   1.770   2.056   3.340 -0.1686  0.1390  0.2313
   53MOL   C26929493   1.660   1.919   3.570 -0.1226  0.3330  0.0048
   53MOL   C27029494   1.597   1.871   3.691  0.7238 -0.9509 -0.3211
   53MOL   O27129495   1.465   1.765   3.906  0.4094 -0.2801 -0.2027
   53MOL   H27229496   1.278   1.888   3.564  0.3415 -1.1558 -0.4961
   53MOL   H27329497   1.377   1.984   3.400 -0.4196 -2.8808 -1.0865
   53MOL   H27429498   1.482   1.968   3.223 -1.5712  3.1447 -1.1434
   53MOL   H27529499   1.358   2.064   3.078 -0.7149 -3.5367 -1.3797
   53MOL   H27629500   1.359   2.178   2.867 -1.7578 -3.7282  2.5789
   53MOL   H27729501   1.490   2.255   2.675  0.2660 -0.4275 -1.2337
   53MOL   H27829502   1.787   2.247   2.885 -0.5011 -0.2526 -1.5525
   53MOL   H27929503   1.790   2.112   3.093 -0.8098 -1.6533  1.9515
   53MOL   H28029504   1.767   1.931   3.564 -0.2154  0.5038 -1.6192
   53MOL   H28129505   1.660   1.857   3.777 -1.0648 -1.6025  0.9120
   53MOL   C28229506   1.633   2.389   2.677 -0.2920  0.0693  0.1137
   53MOL   C28329507   1.603   2.408   2.539  0.1766 -0.3814  0.1783
   53MOL   C28429508   1.699   2.446   2.444  0.5397  0.1848  0.3189
   53MOL   C28529509   1.668   2.449   2.306  0.4079  0.1980  0.3541
   53MOL   C28629510   1.537   2.411   2.253  0.3049 -0.3134  0.1168
   53MOL   C28729511   1.519   2.384   2.107 -0.3396 -0.0497 -0.3242
   53MOL   N28829512   1.396   2.353   2.066 -0.2737  0.3124 -0.3594
   53MOL   C28929513   1.346   2.301   1.940 -0.4601  0.0870 -0.0348
   53MOL   C29029514   1.226   2.226   1.946  0.6007 -0.1552  0.0205
   53MOL   C29129515   1.169   2.166   1.828 -0.3975  0.4210  0.4364
   53MOL   C29229516   1.226   2.186   1.701 -0.9924  0.2121 -0.0958
   53MOL   N29329517   1.165   2.121   1.593  0.4140 -0.5364  0.6183
   53MOL   C29429518   1.343   2.267   1.697 -0.2223 -0.8077 -0.4713
   53MOL   C29529519   1.410   2.310   1.815  0.4477  0.0265  0.1063
   53MOL   O29629520   1.607   2.403   2.029 -0.0070  0.3680  0.1515
   53MOL   C29729521   1.432   2.382   2.348 -0.0628  0.2810  1.1066
   53MOL   C29829522   1.468   2.391   2.485 -0.0072  0.0649  0.0411
   53MOL   O29929523   1.729   2.440   2.730 -0.7446 -0.0871  0.1676
   53MOL   H30029524   1.798   2.482   2.465  2.3015 -3.6465 -1.1183
   53MOL   H30129525   1.749   2.468   2.237  0.7834 -2.4213  0.0085
   53MOL   H30229526   1.338   2.334   2.147  1.7721  1.4206  1.4049
   53MOL   H30329527   1.171   2.218   2.038 -0.1287 -0.5646 -0.4393
   53MOL   H30429528   1.077   2.110   1.838 -0.4199 -0.1781 -2.6350
   53MOL   H30529529   1.088   2.064   1.626 -0.9485  1.0939  0.3374
   53MOL   H30629530   1.386   2.284   1.599 -0.9163  1.4240 -0.4143
   53MOL   H30729531   1.505   2.361   1.817  0.2982  0.3295 -0.2028
   53MOL   H30829532   1.331   2.360   2.317 -0.0889  1.3318  0.4207
   53MOL   H30929533   1.395   2.361   2.559 -0.4905  2.1085  0.4419
   53MOL   C31029534   1.165   2.148   1.462  0.3188  0.3547 -0.3916
   53MOL   C31129535   1.066   2.071   1.380 -0.0105  0.6999  0.5768
   53MOL   C31229536   1.039   2.104   1.247  0.1098  0.5175  0.3334
   53MOL   C31329537   0.950   2.021   1.165  0.1015  0.5696  0.0259
   53MOL   C31429538   0.891   1.904   1.216 -0.5603  1.0451  1.1814
   53MOL   C31529539   0.779   1.833   1.154  0.4937  0.0296  0.5465
   53MOL   N31629540   0.681   1.798   1.237 -0.1138 -0.2855 -0.3087
   53MOL   C31729541   0.559   1.723   1.222 -0.1295 -0.5239 -0.4435
   53MOL   C31829542   0.472   1.702   1.326 -0.1031  0.2142 -0.2815
   53MOL   C31929543   0.355   1.632   1.310  0.0795  0.4289 -1.2033
   53MOL   C32029544   0.315   1.586   1.185  0.1042  0.0470  0.1142
   53MOL   N32129545   0.188   1.521   1.187  0.2268  0.0848  0.3094
   53MOL   C32229546   0.407   1.592   1.078 -0.2376  0.1767 -0.5617
   53MOL   C32329547   0.527   1.662   1.095 -0.2159 -0.2868  0.2373
   53MOL   O32429548   0.787   1.803   1.037  0.3910 -0.1321  0.7368
   53MOL   C32529549   0.929   1.867   1.347  0.7891 -0.5156  0.5489
   53MOL   C32629550   1.020   1.948   1.423  0.0481 -0.1206 -0.3252
   53MOL   O32729551   1.244   2.223   1.413  0.5304  0.2176 -0.3430
   53MOL   H32829552   1.087   2.195   1.212  1.8337 -0.5427 -0.1226
   53MOL   H32929553   0.926   2.057   1.066 -0.0367 -0.8449 -0.4547
   53MOL   H33029554   0.692   1.831   1.332 -1.8564 -0.9735  0.1438
   53MOL   H33129555   0.492   1.736   1.426 -0.5227  1.8558 -0.7393
   53MOL   H33229556   0.299   1.610   1.400  1.2054  1.7076 -0.1796
   53MOL   H33329557   0.128   1.539   1.267  0.0168 -1.1898  0.4506
   53MOL   H33429558   0.371   1.560   0.981 -1.1300 -0.8684  0.1064
   53MOL   H33529559   0.591   1.665   1.008 -0.5157 -0.3327  0.0155
   53MOL   H33629560   0.883   1.778   1.386  0.4945 -0.2329  0.8450
   53MOL   H33729561   1.035   1.915   1.525 -0.0093 -1.3604 -0.7055
   53MOL   C33829562   0.118   1.477   1.077  1.0545 -0.5297  0.1828
   53MOL   C33929563   8.119   1.458   1.110  0.1232 -0.6632  0.0011
   53MOL   C34029564   8.042   1.342   1.082 -0.0047  1.2589  0.3539
   53MOL   C34129565   7.910   1.329   1.124 -0.1455 -0.0930  0.2366
   53MOL   C34229566   7.850   1.434   1.200 -0.1400 -0.4321  0.3068
   53MOL   C34329567   7.709   1.419   1.255 -0.5945  0.0833  0.0411
   53MOL   N34429568   7.676   1.503   1.352  0.0130  0.2907 -0.4782
   53MOL   C34529569   7.558   1.536   1.411 -0.0980 -0.1471  0.2955
   53MOL   C34629570   7.555   1.664   1.472  0.0124  0.0877  0.0039
   53MOL   C34729571   7.438   1.712   1.535  0.4878  0.6173 -0.2040
   53MOL   C34829572   7.321   1.629   1.530 -0.4744 -0.0889  0.3976
   53MOL   N34929573   7.200   1.672   1.582 -0.5706  0.0718 -0.3396
   53MOL   C35029574   7.332   1.498   1.472  0.1446  0.1268 -0.1235
   53MOL   C35129575   7.448   1.455   1.408  0.1501 -0.0628 -0.2086
   53MOL   O35229576   7.640   1.334   1.195  0.1714  0.4697 -0.9115
   53MOL   C35329577   7.925   1.545   1.239  0.1046 -0.0585 -0.8396
   53MOL   C35429578   8.055   1.556   1.187 -0.0335 -0.0431  0.2322
   53MOL   O35529579   0.167   1.432   0.975 -0.2547 -0.2372  0.6404
   53MOL   H35629580   8.097   1.261   1.037  2.0511  2.0849  1.3512
   53MOL   H35729581   7.858   1.240   1.094  0.2080 -0.2252  0.0091
   53MOL   H35829582   7.750   1.555   1.397  0.6609 -3.3958  3.0361
   53MOL   H35929583   7.650   1.717   1.470  0.1781 -0.1838  0.8315
   53MOL   H36029584   7.430   1.816   1.567 -0.3068 -0.1500  2.2436
   53MOL   H36129585   7.116   1.627   1.548 -3.1285  1.3664  3.9051
   53MOL   H36229586   7.239   1.444   1.457  0.8046 -0.5222 -2.1204
   53MOL   H36329587   7.443   1.367   1.346 -0.1467 -0.1333 -0.0830
   53MOL   H36429588   7.875   1.620   1.297 -0.3829 -3.0696  2.8136
   53MOL   H36529589   8.111   1.647   1.206 -0.3116  0.6865 -2.2925
   53MOL   C36629590   7.174   1.752   1.685  0.0633  0.1569 -0.1378
   53MOL   C36729591   7.037   1.742   1.745 -0.2972 -0.3148  0.0501
   53MOL   C36829592   6.984   1.839   1.825 -0.0890  0.0497 -0.1431
   53MOL   C36929593   6.862   1.828   1.895  0.0156 -0.9902  0.6977
   53MOL   C37029594   6.788   1.709   1.889 -0.2050 -0.1408 -0.4270
   53MOL   C37129595   6.652   1.699   1.938  0.4412  0.0460  0.1994
   53MOL   N37229596   6.626   1.773   2.046 -0.0262  0.1288 -0.0152
   53MOL   C37329597   6.502   1.794   2.113  0.6441 -0.2713  0.4565
   53MOL   C37429598   6.503   1.856   2.241  0.7804  0.1244  0.8635
   53MOL   C37529599   6.378   1.879   2.294  0.4146  0.1011 -1.2304
   53MOL   C37629600   6.258   1.867   2.222 -0.5401 -0.0560 -0.6689
   53MOL   N37729601   6.140   1.941   2.265 -0.3570 -0.5413  0.4328
   53MOL   C37829602   6.258   1.812   2.093 -0.1739 -0.4706  0.4410
   53MOL   C37929603   6.381   1.766   2.039 -0.3833 -0.1975  0.0931
   53MOL   O38029604   6.580   1.617   1.880 -0.0341  0.0786 -0.1413
   53MOL   C38129605   6.842   1.604   1.809 -0.1331  1.1291 -0.6053
   53MOL   C38229606   6.967   1.620   1.745  0.4990 -0.7192  0.6606
   53MOL   O38329607   7.255   1.836   1.727 -0.3933 -0.1699 -0.0128
   53MOL   H38429608   7.038   1.933   1.833  1.9618 -0.6833 -4.4724
   53MOL   H38529609   6.824   1.916   1.945  0.8932 -0.8814  1.1793
   53MOL   H38629610   6.709   1.819   2.080 -0.5173  0.7486  0.3556
   53MOL   H38729611   6.592   1.877   2.298  1.2776 -0.0843  0.1703
   53MOL   H38829612   6.375   1.920   2.394  0.2072  0.1373 -1.2526
   53MOL   H38929613   6.047   1.909   2.241 -0.1983  0.4967 -1.7242
   53MOL   H39029614   6.165   1.807   2.039  1.1734 -1.1897 -1.8481
   53MOL   H39129615   6.387   1.723   1.941  0.5177 -0.4009  0.2345
   53MOL   H39229616   6.786   1.511   1.801  2.2884 -0.3083 -1.5467
   53MOL   H39329617   6.997   1.538   1.682 -1.9856 -3.2364  2.6057
   53MOL   C39429618   6.131   2.046   2.344 -0.0262 -0.3807 -0.2716
   53MOL   C39529619   5.994   2.077   2.374  0.3869  1.1013 -0.7597
   53MOL   C39629620   5.925   2.195   2.324  0.3167 -0.2318  0.4007
   53MOL   C39729621   5.795   2.226   2.370  0.6908 -0.2056 -0.3557
   53MOL   C39829622   5.719   2.135   2.452 -0.0663  1.1298  0.1784
   53MOL   C39929623   5.590   2.175   2.508  0.3741  0.4546  0.0339
   53MOL   N40029624   5.507   2.232   2.421 -0.4777  0.2043 -0.0856
   53MOL   C40129625   5.396   2.316   2.453  0.7998  0.3522  0.0641
   53MOL   C40229626   5.297   2.275   2.548 -0.6709 -0.1404 -0.0598
   53MOL   C40329627   5.201   2.362   2.602  0.4744 -0.7563  0.6835
   53MOL   C40429628   5.211   2.494   2.560 -0.0293 -0.1228 -0.1508
   53MOL   N40529629   5.137   2.591   2.630 -0.7417 -0.3038  0.2129
   53MOL   C40629630   5.295   2.531   2.456 -0.1295 -0.1549  0.2374
   53MOL   C40729631   5.388   2.446   2.401  0.1723 -0.1666 -0.2782
   53MOL   O40829632   5.543   2.141   2.618 -0.0642  0.4993  0.5622
   53MOL   C40929633   5.787   2.021   2.502  0.1466  0.1610  0.0874
   53MOL   C41029634   5.921   1.996   2.466 -0.4442  0.3334  0.7983
   53MOL   O41129635   6.222   2.123   2.381  0.0067 -0.0881 -0.3174
   53MOL   H41229636   5.980   2.259   2.257 -2.3769  1.2937 -0.4284
   53MOL   H41329637   5.757   2.321   2.338 -0.1451  1.3604  4.8064
   53MOL   H41429638   5.543   2.236   2.327  1.1597 -1.2985  0.4483
   53MOL   H41529639   5.286   2.176   2.591 -2.4504 -0.1488 -0.4814
   53MOL   H41629640   5.124   2.331   2.672 -0.7537  1.4117  0.3304
   53MOL   H41729641   5.054   2.618   2.579 -0.0222 -1.5819 -1.6830
   53MOL   H41829642   5.299   2.629   2.412 -0.2218 -1.1153 -1.9847
   53MOL   H41929643   5.458   2.478   2.325  0.5625 -0.7604 -0.1766
   53MOL   H42029644   5.737   1.962   2.577 -1.8202  0.5237 -0.8817
   53MOL   H42129645   5.967   1.908   2.508 -0.3520 -0.1980 -0.3996
   53MOL   C42229646   5.180   2.656   2.739  0.2062 -0.0767 -0.1757
   53MOL   C42329647   5.317   2.621   2.782  0.4284 -0.3898 -0.1515
   53MOL   C42429648   5.331   2.507   2.865 -0.0679  0.1059 -0.5059
   53MOL   C42529649   5.454   2.445   2.878  0.6951  0.1786  0.2778
   53MOL   C42629650   5.568   2.496   2.817  0.1791 -0.5538 -0.3592
   53MOL   C42729651   5.701   2.432   2.830  0.1265  0.3486 -0.7378
   53MOL   N42829652   5.811   2.498   2.780  0.5648  0.2794 -0.3816
   53MOL   C42929653   5.941   2.444   2.751 -0.3337 -0.1880  0.2769
   53MOL   C43029654   5.958   2.317   2.692 -0.9109  0.1024  0.0607
   53MOL   C43129655   6.086   2.269   2.658  0.7125  0.0767 -0.5946
   53MOL   C43229656   6.205   2.334   2.689 -0.5469 -0.0588 -0.5641
   53MOL   N43329657   6.328   2.272   2.639  0.2224  0.3127  0.6283
   53MOL   C43429658   6.190   2.450   2.761 -0.4000  0.3445 -0.1272
   53MOL   C43529659   6.062   2.507   2.787  0.0640 -0.2267 -0.2329
   53MOL   O43629660   5.715   2.332   2.897  0.1928 -0.2507  0.0654
   53MOL   C43729661   5.555   2.619   2.741 -0.0216  0.1459  0.2543
   53MOL   C43829662   5.428   2.681   2.719 -0.1301 -0.3357  0.1574
   53MOL   O43929663   5.105   2.724   2.807 -0.0570  0.5234 -0.4192
   53MOL   H44029664   5.248   2.457   2.913 -1.1705  1.2061 -1.2204
   53MOL   H44129665   5.446   2.352   2.931 -2.8977  1.1091  1.5287
   53MOL   H44229666   5.793   2.597   2.766  0.1071  0.3118  0.4153
   53MOL   H44329667   5.878   2.251   2.660 -0.9723  0.4915 -0.6052
   53MOL   H44429668   6.075   2.178   2.600 -1.2556 -1.0158  1.4270
   53MOL   H44529669   6.306   2.201   2.571  0.4181 -1.0147  1.9215
   53MOL   H44629670   6.271   2.507   2.804  1.2239 -2.6909  0.9940
   53MOL   H44729671   6.063   2.597   2.846 -1.0940 -0.9924  0.9823
   53MOL   H44829672   5.641   2.668   2.696  1.0442 -0.0901  1.9703
   53MOL   H44929673   5.427   2.768   2.654  0.4553  0.0297  0.6254
   53MOL   C45029674   6.452   2.316   2.665 -0.3590 -0.1134  0.5668
   53MOL   C45129675   6.554   2.253   2.575 -0.7902  0.3653  0.0582
   53MOL   C45229676   6.525   2.244   2.439 -0.0669 -0.0542 -0.1966
   53MOL   C45329677   6.619   2.183   2.352 -0.3351 -0.3736 -0.9476
   53MOL   C45429678   6.745   2.137   2.399 -0.1097  0.6847 -0.3584
   53MOL   C45529679   6.845   2.081   2.305 -0.5483  0.5470  1.0193
   53MOL   N45629680   6.970   2.132   2.307 -0.6886  0.5884  0.3825
   53MOL   C45729681   7.071   2.107   2.209 -0.3569 -0.5250 -0.4406
   53MOL   C45829682   7.162   2.212   2.190  0.0659  0.2834  0.1756
   53MOL   C45929683   7.267   2.211   2.096 -0.0187 -0.1888 -0.0700
   53MOL   C46029684   7.289   2.092   2.027 -0.1223 -0.3845 -0.2117
   53MOL   N46129685   7.406   2.083   1.942 -0.1500  0.1928  0.3939
   53MOL   C46229686   7.205   1.980   2.046  0.6300 -0.1400  0.1268
   53MOL   C46329687   7.095   1.985   2.137  0.2707 -0.4543  0.1683
   53MOL   O46429688   6.820   1.988   2.222 -0.0855 -0.8629  0.1483
   53MOL   C46529689   6.775   2.151   2.533  0.2652  0.0325 -0.0607
   53MOL   C46629690   6.681   2.211   2.622  0.1965  0.0645  0.5049
   53MOL   O46729691   6.484   2.382   2.764 -0.0665  0.2042  0.1853
   53MOL   H46829692   6.433   2.280   2.395  0.5231 -0.3274 -1.6719
   53MOL   H46929693   6.602   2.169   2.247  0.0552  2.1573 -1.3753
   53MOL   H47029694   6.978   2.223   2.349  1.9294 -0.0797  1.4252
   53MOL   H47129695   7.149   2.302   2.249  0.2845  1.4009 -1.4764
   53MOL   H47229696   7.321   2.304   2.084 -1.0232  0.3789 -0.2444
   53MOL   H47329697   7.401   2.029   1.857  0.5478  0.0236  0.4605
   53MOL   H47429698   7.211   1.886   1.993  0.0455  0.5163 -1.1242
   53MOL   H47529699   7.038   1.896   2.156 -2.1326  0.5146 -2.2368
   53MOL   H47629700   6.873   2.120   2.566  2.5143  1.8768 -4.5371
   53MOL   H47729701   6.710   2.225   2.725  1.1636 -3.1051  0.7163
   53MOL   C47829702   7.528   2.125   1.963 -0.4392 -1.0972  0.1337
   53MOL   C47929703   7.624   2.097   1.854 -0.3657 -0.1614  0.5198
   53MOL   C48029704   7.765   2.108   1.874 -0.0706  0.4012  0.3208
   53MOL   C48129705   7.858   2.074   1.769 -0.2767 -0.8123 -0.2882
   53MOL   C48229706   7.815   2.021   1.649  0.0010  0.0982  0.5978
   53MOL   C48329707   7.916   1.971   1.546  0.3269  0.8033 -0.5340
   53MOL   N48429708   8.023   2.046   1.526  0.7829 -0.1932 -0.5857
   53MOL   C48529709   8.131   2.027   1.441 -0.4081  0.3750  0.3542
   53MOL   C48629710   0.070   2.139   1.417 -0.5202  0.4550 -0.3796
   53MOL   C48729711   0.183   2.132   1.329  0.0361 -0.0458 -0.2889
   53MOL   C48829712   0.203   2.011   1.252 -0.4030  0.6635  0.2897
   53MOL   N48929713   0.285   2.009   1.140  0.1428  0.5518  1.1719
   53MOL   C49029714   0.115   1.902   1.275 -0.6329 -0.1708  0.5720
   53MOL   C49129715   0.010   1.906   1.371 -0.0187  0.1635  0.3778
   53MOL   O49229716   7.877   1.868   1.485  0.1493  0.1568  0.9042
   53MOL   C49329717   7.671   2.001   1.635 -0.3427  0.4596 -0.5121
   53MOL   C49429718   7.579   2.045   1.730 -0.4719 -0.3297 -0.3973
   53MOL   O49529719   7.563   2.193   2.060 -0.2022 -0.0778 -0.2065
   53MOL   H49629720   7.808   2.152   1.962  0.4309  1.7100 -0.5617
   53MOL   H49729721   7.963   2.090   1.789 -0.4326 -1.3053  0.9421
   53MOL   H49829722   8.019   2.130   1.581 -0.8455 -0.4229 -0.3250
   53MOL   H49929723   0.056   2.238   1.456 -2.6952 -0.5389  1.4472
   53MOL   H50029724   0.240   2.224   1.320 -0.0250 -0.0294 -0.5283
   53MOL   H50129725   0.254   1.940   1.074  4.2888  0.3679 -0.7135
   53MOL   H50229726   0.138   1.814   1.217 -0.4711 -0.0990  0.5282
   53MOL   H50329727   8.098   1.817   1.392 -2.0394  1.7030  1.5076
   53MOL   H50429728   7.633   1.949   1.548  2.5136 -1.3591 -0.7864
   53MOL   H50529729   7.474   2.032   1.710 -0.3045  0.0568 -1.5081
   53MOL   C50629730   0.391   2.082   1.106 -0.4262 -0.4508  0.6539
   53MOL   C50729731   0.450   2.065   0.966  0.7154  0.3674 -0.0580
   53MOL   C50829732   0.449   1.941   0.904  1.0029  0.4821  0.5143
   53MOL   C50929733   0.497   1.927   0.772  0.6344  0.2952  0.2640
   53MOL   C51029734   0.541   2.039   0.699  0.3052 -0.1253 -0.5020
   53MOL   C51129735   0.586   2.015   0.552 -0.4601  0.0573 -0.5121
   53MOL   N51229736   0.649   2.117   0.496 -0.2594 -0.6219 -0.3418
   53MOL   C51329737   0.716   2.104   0.373 -0.0589  0.2263  0.1862
   53MOL   C51429738   0.783   1.985   0.331  0.2894 -0.0902  0.0284
   53MOL   C51529739   0.847   1.979   0.208  0.0663 -0.3440  0.3682
   53MOL   C51629740   0.850   2.087   0.121 -0.4682 -0.0750 -0.2179
   53MOL   N51729741   0.912   2.080   8.141  0.0971 -0.1798  0.7969
   53MOL   C51829742   0.783   2.209   0.159 -0.5227 -0.8973  0.0836
   53MOL   C51929743   0.722   2.217   0.286  0.3226  0.2141  0.4318
   53MOL   O52029744   0.529   1.929   0.483 -0.0412  0.6494  0.4817
   53MOL   C52129745   0.548   2.165   0.762  0.1049  0.5447 -0.1176
   53MOL   C52229746   0.506   2.178   0.895 -0.3604  0.2319 -0.3102
   53MOL   O52329747   0.443   2.171   1.174 -0.5745  0.2852  0.4325
   53MOL   H52429748   0.413   1.850   0.948  0.0481 -0.3159 -1.8302
   53MOL   H52529749   0.488   1.831   0.723 -0.8991 -0.2616  1.6158
   53MOL   H52629750   0.658   2.199   0.554 -1.6318 -1.0560  0.5158
   53MOL   H52729751   0.796   1.901   0.397  1.6040 -0.9066 -1.2475
   53MOL   H52829752   0.898   1.888   0.178 -0.1736 -0.3832  0.0649
   53MOL   H52929753   0.920   2.171   8.098  3.1305 -0.4345  0.7113
   53MOL   H53029754   0.782   2.301   0.102  0.8755  2.1080  4.6071
   53MOL   H53129755   0.678   2.310   0.318 -1.9029 -0.8638  0.5756
   53MOL   H53229756   0.573   2.256   0.710 -1.7358  2.0654  1.5529
   53MOL   H53329757   0.515   2.281   0.928  1.9453 -0.3358  0.9323
   53MOL   C53429758   0.976   1.980   8.077 -0.7040  0.2376 -0.2865
   53MOL   C53529759   1.043   2.027   7.951  0.1664  0.1623  0.1917
   53MOL   C53629760   1.185   2.014   7.937 -0.3477 -0.4729 -0.1025
   53MOL   C53729761   1.250   2.060   7.826  0.0215  0.4693  0.2091
   53MOL   C53829762   1.181   2.134   7.724  0.0499  0.4263 -0.4972
   53MOL   C53929763   1.245   2.170   7.593  0.5296  0.2658 -0.4533
   53MOL   N54029764   1.177   2.257   7.514 -0.5331  0.6467 -0.4040
   53MOL   C54129765   1.209   2.303   7.387 -0.2679  0.3824 -0.4727
   53MOL   C54229766   1.180   2.437   7.362  0.4670  0.3597 -0.0501
   53MOL   C54329767   1.205   2.487   7.231  0.1733  0.1500  0.9834
   53MOL   C54429768   1.253   2.408   7.130 -0.6412  0.4980  0.7211
   53MOL   N54529769   1.271   2.452   6.998 -0.1455  0.1146  0.3596
   53MOL   C54629770   1.286   2.275   7.164 -0.0838 -0.1426 -0.3668
   53MOL   C54729771   1.268   2.221   7.288 -0.0382 -0.0789 -0.0585
   53MOL   O54829772   1.356   2.119   7.570  0.0899  0.0445 -0.1629
   53MOL   C54929773   1.038   2.145   7.736  0.3141  0.1480 -0.2210
   53MOL   C55029774   0.972   2.098   7.853  0.4751  0.1505 -0.3400
   53MOL   O55129775   0.977   1.863   8.106 -0.0935 -0.0417 -0.3839
   53MOL   H55229776   1.243   1.966   8.015  0.5749 -1.7138 -1.5251
   53MOL   H55329777   1.357   2.050   7.837 -0.2047 -1.0442  1.1469
   53MOL   H55429778   1.103   2.300   7.568  0.1381 -1.1103  1.9819
   53MOL   H55529779   1.129   2.491   7.441  0.4808 -2.3529  1.8684
   53MOL   H55629780   1.179   2.590   7.214 -0.9689 -0.6304 -2.4543
   53MOL   H55729781   1.292   2.372   6.940  2.0545  0.4917  0.5975
   53MOL   H55829782   1.333   2.213   7.089  1.4535 -0.5635  0.9088
   53MOL   H55929783   1.306   2.122   7.312  0.1875  0.2571  1.0474
   53MOL   H56029784   0.976   2.183   7.656  0.0966  1.4736  0.5651
   53MOL   H56129785   0.864   2.096   7.857  0.4076 -0.8913 -2.0410
   53MOL   H56229786   1.194   2.506   6.960 -0.0552  1.5168  2.0785
   54MOL     C129787   0.203   4.291   2.219  0.0754 -0.7001 -0.8867
   54MOL     C229788   0.197   4.436   2.193  1.1940  0.3647  0.3109
   54MOL     C329789   0.115   4.477   2.087 -0.2434  0.5284 -0.1028
   54MOL     C429790   0.110   4.614   2.061 -0.6207 -0.2401  0.0113
   54MOL     C529791   0.192   4.705   2.124 -0.3711 -1.5008  0.2680
   54MOL     C629792   0.186   4.852   2.092  0.0169 -0.3047 -0.0845
   54MOL     N729793   0.303   4.911   2.066  0.3034 -0.4689  0.4046
   54MOL     C829794   0.326   5.048   2.042 -0.4354 -0.2315 -0.5191
   54MOL     C929795   0.450   5.086   1.991 -0.0450 -0.5740 -0.2383
   54MOL    C1029796   0.488   5.218   1.979 -0.0482 -0.0510 -0.6643
   54MOL    C1129797   0.398   5.323   2.016  0.0190 -0.4364  0.2234
   54MOL    N1229798   0.427   5.466   2.018  0.0337  0.1961  0.3497
   54MOL    C1329799   0.269   5.288   2.057  0.3218 -0.1103  0.1282
   54MOL    C1429800   0.236   5.153   2.074 -0.1467  0.2446  0.6435
   54MOL    O1529801   0.072   4.902   2.097  0.7212 -0.0156 -0.0328
   54MOL    C1629802   0.281   4.664   2.225 -0.6059  0.1696  0.6207
   54MOL    C1729803   0.286   4.529   2.255 -0.0921  0.6760  0.0670
   54MOL    O1829804   0.273   4.244   2.309  0.0407 -0.3918 -0.0453
   54MOL    H1929805   0.055   4.409   2.029 -0.0593 -0.5624  0.9713
   54MOL    H2029806   0.046   4.642   1.978 -0.7210 -0.3128  0.0647
   54MOL    H2129807   0.373   4.840   2.048  1.0375  0.5136 -0.6998
   54MOL    H2229808   0.537   5.022   1.983  0.5878 -0.2914  3.4867
   54MOL    H2329809   0.592   5.227   1.951 -0.0752 -1.8001 -1.3457
   54MOL    H2429810   0.364   5.540   1.988  0.1487  0.4838  0.8123
   54MOL    H2529811   0.196   5.356   2.097 -1.3427 -1.6879 -0.1390
   54MOL    H2629812   0.149   5.144   2.137 -1.6187  1.2365 -1.2057
   54MOL    H2729813   0.339   4.740   2.276  0.2890  1.7265 -2.5588
   54MOL    H2829814   0.354   4.489   2.329 -0.0162  2.9896  1.2908
   54MOL    H2929815   0.129   4.227   2.172 -0.8550  1.3397 -2.2689
   54MOL    C3029816   0.540   5.532   2.040 -0.1331  0.0166  0.6523
   54MOL    C3129817   0.527   5.687   2.026 -0.6723  0.3712  0.3176
   54MOL    C3229818   0.647   5.764   2.017 -0.3597  0.0493  0.1919
   54MOL    C3329819   0.643   5.907   2.000 -0.3361 -0.0245 -0.0084
   54MOL    C3429820   0.520   5.974   1.993  0.2295 -0.1540 -0.1662
   54MOL    C3529821   0.513   6.124   1.977 -0.0681  1.0565 -0.5338
   54MOL    N3629822   0.578   6.201   2.071  0.2993  0.5566 -0.2659
   54MOL    C3729823   0.566   6.342   2.097 -0.5787  0.7787  0.5077
   54MOL    C3829824   0.667   6.414   2.171 -0.5158  0.2852  0.0132
   54MOL    C3929825   0.651   6.548   2.202 -0.0030  0.1643 -0.3757
   54MOL    C4029826   0.530   6.614   2.180 -0.8949 -0.2125  0.8655
   54MOL    N4129827   0.517   6.750   2.228 -0.3144  0.8220 -0.3049
   54MOL    C4229828   0.427   6.546   2.116  0.0379  0.3344  0.3177
   54MOL    C4329829   0.441   6.406   2.082 -0.5559 -0.4611 -0.1331
   54MOL    O4429830   0.453   6.170   1.885 -0.7486  0.1757 -0.4551
   54MOL    C4529831   0.399   5.895   1.997 -0.4819 -0.0766  0.3231
   54MOL    C4629832   0.404   5.752   2.015  0.0400 -0.0277  0.2202
   54MOL    O4729833   0.640   5.479   2.081 -0.1598  0.6109 -0.1322
   54MOL    H4829834   0.741   5.713   2.003 -1.2717 -1.9579  1.2337
   54MOL    H4929835   0.728   5.973   1.995 -0.4886  0.4601  3.0023
   54MOL    H5029836   0.647   6.151   2.125 -1.9984 -1.2686  1.0344
   54MOL    H5129837   0.754   6.358   2.203 -0.2812 -0.3304 -1.6306
   54MOL    H5229838   0.731   6.597   2.256 -0.9899  0.3468  0.9207
   54MOL    H5329839   0.592   6.811   2.199 -0.6877  0.6292 -1.6631
   54MOL    H5429840   0.331   6.590   2.093 -0.2022 -0.1867  0.3259
   54MOL    H5529841   0.359   6.350   2.039  0.3184  0.8876 -3.8150
   54MOL    H5629842   0.303   5.944   1.991 -0.3637  0.2986  1.4731
   54MOL    H5729843   0.309   5.702   2.008  1.2449 -2.2252 -1.0357
   54MOL    C5829844   0.408   6.813   2.270  0.4728 -0.2751 -0.6675
   54MOL    C5929845   0.427   6.963   2.306 -0.3105  0.7425 -0.2534
   54MOL    C6029846   0.554   7.018   2.322 -0.4452  0.3982 -0.1027
   54MOL    C6129847   0.568   7.153   2.368  0.0313 -0.3363  0.1914
   54MOL    C6229848   0.454   7.224   2.402  0.1288  0.1105 -0.7022
   54MOL    C6329849   0.463   7.348   2.476 -1.5586 -0.7571 -0.3194
   54MOL    N6429850   0.528   7.456   2.419  0.5378  0.2136 -0.3478
   54MOL    C6529851   0.536   7.589   2.470  0.5814  0.0899  1.3213
   54MOL    C6629852   0.601   7.686   2.385 -0.0367  0.7315  0.0407
   54MOL    C6729853   0.616   7.823   2.424  0.2147 -0.0864  0.2979
   54MOL    C6829854   0.567   7.860   2.554 -0.5815  0.0568  0.9053
   54MOL    N6929855   0.599   7.989   2.592 -0.0150  0.4961 -0.0715
   54MOL    C7029856   0.507   7.764   2.636 -0.6403 -0.3529 -0.3743
   54MOL    C7129857   0.485   7.634   2.597 -0.2197 -0.8388  0.0846
   54MOL    O7229858   0.429   7.352   2.596 -0.4625  0.3440 -0.6610
   54MOL    C7329859   0.324   7.173   2.377  0.0382 -0.3210  0.0677
   54MOL    C7429860   0.315   7.043   2.325 -0.0670  0.1531  0.5972
   54MOL    O7529861   0.302   6.762   2.283 -0.7674  0.2431  0.0109
   54MOL    H7629862   0.650   6.970   2.315 -1.1084 -1.1414  1.1464
   54MOL    H7729863   0.669   7.181   2.396 -0.1728 -0.7117  1.3452
   54MOL    H7829864   0.562   7.429   2.328 -1.4974  1.3611 -1.4873
   54MOL    H7929865   0.632   7.661   2.285 -1.6990 -1.2209 -0.0327
   54MOL    H8029866   0.639   7.895   2.348 -0.2497  0.3078  0.5280
   54MOL    H8129867   0.690   8.019   2.560  0.6750 -0.3898  1.0178
   54MOL    H8229868   0.473   7.796   2.733  0.8964 -0.9503  0.3812
   54MOL    H8329869   0.429   7.585   2.675 -1.0498  2.8126  1.8914
   54MOL    H8429870   0.237   7.233   2.401 -0.7285 -0.7562 -1.5406
   54MOL    H8529871   0.218   7.000   2.306 -0.3517 -0.2571  2.8464
   54MOL    C8629872   0.520   8.071   2.666  0.1729  0.1926 -0.1670
   54MOL    C8729873   0.580   0.061   2.699 -0.2730  0.6867  0.6462
   54MOL    C8829874   0.643   0.140   2.594  0.5732  0.0585  0.2842
   54MOL    C8929875   0.723   0.250   2.630  0.0501  0.5104  0.4624
   54MOL    C9029876   0.745   0.283   2.761 -0.3185  0.2715  0.4662
   54MOL    C9129877   0.844   0.394   2.783 -0.4063  0.4470  1.2747
   54MOL    N9229878   0.948   0.396   2.693 -0.4200  0.1357  0.4669
   54MOL    C9329879   1.067   0.473   2.697  0.4567 -0.4153 -0.2132
   54MOL    C9429880   1.079   0.599   2.766 -0.4333  0.2456  0.1544
   54MOL    C9529881   1.206   0.654   2.785  0.0111 -0.2784  0.6492
   54MOL    C9629882   1.320   0.593   2.722 -0.3866 -0.4628  0.2572
   54MOL    N9729883   1.451   0.629   2.763 -0.1104  0.1381  0.4176
   54MOL    C9829884   1.297   0.475   2.644 -1.4005  0.3493 -0.1063
   54MOL    C9929885   1.172   0.418   2.631  0.0253  0.9652  0.0158
   54MOL   O10029886   0.823   0.485   2.860  0.2152  0.0265  0.5681
   54MOL   C10129887   0.685   0.210   2.860 -0.7423  0.3115  0.5226
   54MOL   C10229888   0.606   0.095   2.831  0.1997 -0.1810  0.1316
   54MOL   O10329889   0.405   8.052   2.708  0.2555 -0.1841 -0.5688
   54MOL   H10429890   0.617   0.123   2.490 -2.1205 -0.5025  1.0075
   54MOL   H10529891   0.751   0.310   2.544  0.6333 -0.9780 -0.4177
   54MOL   H10629892   0.944   0.317   2.630  0.4059  1.0306 -0.7067
   54MOL   H10729893   0.993   0.642   2.816 -1.5615 -0.0652 -1.4797
   54MOL   H10829894   1.217   0.747   2.839  1.1067  0.5326 -0.9348
   54MOL   H10929895   1.450   0.670   2.855  0.3178 -0.4452  0.6867
   54MOL   H11029896   1.377   0.414   2.606 -1.4560  0.9181 -1.1587
   54MOL   H11129897   1.168   0.328   2.572  0.0403  0.5825  0.6035
   54MOL   H11229898   0.700   0.231   2.965  1.8341  0.4678  0.1513
   54MOL   H11329899   0.560   0.036   2.909  5.1504  1.3425  4.5716
   54MOL   C11429900   1.574   0.606   2.717 -0.7198  0.4828  1.1367
   54MOL   C11529901   1.593   0.576   2.569  0.9976  0.0132 -0.2301
   54MOL   C11629902   1.623   0.684   2.482 -0.2526  0.6816 -0.7633
   54MOL   C11729903   1.635   0.663   2.340 -0.0337  0.5720  0.2574
   54MOL   C11829904   1.635   0.533   2.292  0.2741  0.1582  0.0518
   54MOL   C11929905   1.656   0.515   2.144  0.3180  0.0978  0.2100
   54MOL   N12029906   1.700   0.393   2.100 -0.0291 -0.4884  0.1437
   54MOL   C12129907   1.746   0.356   1.972 -0.4577  0.1720 -0.1106
   54MOL   C12229908   1.768   0.215   1.951  0.0100 -0.0024  1.1049
   54MOL   C12329909   1.818   0.163   1.832 -0.0855  0.0911 -0.7440
   54MOL   C12429910   1.844   0.250   1.721 -0.3134  0.1476  0.0123
   54MOL   N12529911   1.890   0.201   1.599 -0.0473  0.1462  0.0724
   54MOL   C12629912   1.819   0.387   1.740  0.3433 -0.1173  0.1254
   54MOL   C12729913   1.774   0.442   1.865  0.6284  0.4887  0.3480
   54MOL   O12829914   1.620   0.604   2.070 -0.1246 -0.1010 -0.3955
   54MOL   C12929915   1.611   0.423   2.380  0.7387 -0.3532  1.0596
   54MOL   C13029916   1.590   0.449   2.520 -0.1935  0.1593  0.2978
   54MOL   O13129917   1.670   0.609   2.789 -0.5509  0.4635  0.4611
   54MOL   H13229918   1.639   0.785   2.515  1.6061  0.7499 -1.8206
   54MOL   H13329919   1.655   0.741   2.269 -3.9786  2.3332  0.9340
   54MOL   H13429920   1.727   0.337   2.180 -1.8866 -0.8799  0.5050
   54MOL   H13529921   1.746   0.152   2.035  0.5751  0.2495  1.4484
   54MOL   H13629922   1.836   0.057   1.820  0.2578  0.2365 -1.5619
   54MOL   H13729923   1.934   0.110   1.599 -1.2489 -0.4714  2.0251
   54MOL   H13829924   1.842   0.466   1.670  0.1061 -0.2164 -0.0637
   54MOL   H13929925   1.764   0.547   1.888  2.6832  0.2968  2.3211
   54MOL   H14029926   1.609   0.319   2.351 -4.7865  0.6582 -2.9485
   54MOL   H14129927   1.583   0.369   2.593  0.8550  0.6078  0.9034
   54MOL   C14229928   1.855   0.242   1.473 -0.1315 -0.0731 -0.6499
   54MOL   C14329929   1.900   0.160   1.364 -0.2241 -0.4267 -0.2831
   54MOL   C14429930   1.800   0.127   1.268  0.2144 -0.1504 -0.1188
   54MOL   C14529931   1.832   0.042   1.160 -0.1928  0.1710 -0.9453
   54MOL   C14629932   1.959   8.128   1.152 -0.4701  0.5786 -0.0962
   54MOL   C14729933   1.993   8.042   1.031 -0.1878  0.4164 -0.2988
   54MOL   N14829934   1.890   7.968   0.979 -0.4012  0.0357  0.6354
   54MOL   C14929935   1.897   7.863   0.882 -0.8222  0.5278  0.4916
   54MOL   C15029936   1.977   7.863   0.766 -0.0254  0.7763 -0.3049
   54MOL   C15129937   1.972   7.752   0.675 -0.2982 -0.4404 -0.1728
   54MOL   C15229938   1.892   7.644   0.703  0.1689 -0.3069  0.4127
   54MOL   N15329939   1.891   7.527   0.631  0.1670  0.0064  0.2098
   54MOL   C15429940   1.815   7.647   0.820  0.4120  0.1650  0.0101
   54MOL   C15529941   1.818   7.751   0.909  1.1344  0.0399 -0.5161
   54MOL   O15629942   2.110   8.043   1.002 -0.4271  0.2700 -0.1406
   54MOL   C15729943   2.060   0.009   1.248 -0.1899  0.5223  0.0679
   54MOL   C15829944   2.029   0.103   1.351 -0.2384  0.4925 -0.0131
   54MOL   O15929945   1.792   0.344   1.445  0.2417 -0.3172  0.6631
   54MOL   H16029946   1.702   0.167   1.287  0.8588  0.7677  1.4346
   54MOL   H16129947   1.756   0.026   1.085  0.1921 -1.4199 -0.9963
   54MOL   H16229948   1.805   7.963   1.033 -0.6979 -0.8730  0.1066
   54MOL   H16329949   2.048   7.934   0.728  2.0140  0.2678  2.3673
   54MOL   H16429950   2.041   7.751   0.592  0.8558 -0.8056  0.7719
   54MOL   H16529951   1.871   7.442   0.682 -1.4501 -0.2404 -0.8173
   54MOL   H16629952   1.748   7.565   0.843 -0.3093  0.9703  0.8425
   54MOL   H16729953   1.767   7.736   1.004  0.0165  0.5260 -1.0295
   54MOL   H16829954   2.159   8.115   1.235 -0.3826 -0.5301  1.7112
   54MOL   H16929955   2.107   0.120   1.423  0.8707  0.3480 -1.1607
   54MOL   C17029956   1.917   7.507   0.502  0.2716 -0.7206 -0.5003
   54MOL   C17129957   1.927   7.369   0.455  0.3168  0.2437  0.4520
   54MOL   C17229958   1.888   7.267   0.545  0.6587 -0.2662  0.2468
   54MOL   C17329959   1.929   7.134   0.523  0.5033  0.0657 -0.5107
   54MOL   C17429960   1.988   7.100   0.401 -0.5150  0.1210 -0.1141
   54MOL   C17529961   2.030   6.961   0.375  0.1337 -0.7838 -0.3683
   54MOL   N17629962   2.150   6.919   0.414  0.1215  0.1562  0.1317
   54MOL   C17729963   2.241   6.981   0.501  0.1051 -0.0024 -0.5113
   54MOL   C17829964   2.303   6.889   0.591  0.8845 -0.3028  0.6792
   54MOL   C17929965   2.387   6.946   0.688 -0.7098  0.2856  0.0851
   54MOL   C18029966   2.422   7.083   0.690 -0.7797 -0.4727  0.3902
   54MOL   N18129967   2.511   7.144   0.784  0.1634 -0.1187  0.0406
   54MOL   C18229968   2.371   7.167   0.591  0.4546  0.1072  0.2263
   54MOL   C18329969   2.276   7.113   0.495 -0.5903  0.6834 -0.6121
   54MOL   O18429970   1.961   6.894   0.297 -0.1451 -0.0517 -0.0350
   54MOL   C18529971   2.009   7.198   0.299  0.0959  0.6576 -0.0315
   54MOL   C18629972   1.988   7.334   0.329  0.6601  0.5014 -0.4416
   54MOL   O18729973   1.943   7.599   0.423 -0.2267 -0.0441  0.1390
   54MOL   H18829974   1.843   7.283   0.642 -0.9855 -0.5617 -0.4518
   54MOL   H18929975   1.912   7.058   0.597  2.0277  1.4374  1.2984
   54MOL   H19029976   2.179   6.829   0.380  0.2767  0.5838 -0.8702
   54MOL   H19129977   2.288   6.783   0.580 -0.8970  0.0599 -0.5620
   54MOL   H19229978   2.427   6.881   0.765  0.6966 -0.3481 -1.1609
   54MOL   H19329979   2.570   7.221   0.755  0.1365  0.7421  2.1879
   54MOL   H19429980   2.402   7.270   0.594 -1.0996  0.5410  1.5983
   54MOL   H19529981   2.248   7.183   0.417  1.4140  1.0946 -0.9876
   54MOL   H19629982   2.044   7.168   0.201  0.2272  0.4775  0.0704
   54MOL   H19729983   2.020   7.408   0.258  0.6670  0.0363 -0.9272
   54MOL   C19829984   2.504   7.142   0.915  0.1716 -0.1371 -0.0175
   54MOL   C19929985   2.592   7.221   1.000  0.0229 -0.1808 -0.3303
   54MOL   C20029986   2.622   7.174   1.129  0.3752 -0.0849 -0.0451
   54MOL   C20129987   2.689   7.260   1.218 -0.4055 -0.4797 -0.2090
   54MOL   C20229988   2.717   7.395   1.181  0.5162 -0.0669 -0.0974
   54MOL   C20329989   2.785   7.479   1.287 -0.0234  0.4721  0.5935
   54MOL   N20429990   2.723   7.597   1.312 -0.2157 -0.2987  0.2780
   54MOL   C20529991   2.750   7.686   1.418 -0.7414 -0.0356 -0.1535
   54MOL   C20629992   2.874   7.706   1.472  0.6780 -0.8470 -0.8185
   54MOL   C20729993   2.899   7.800   1.576  0.2683 -0.1048  0.4557
   54MOL   C20829994   2.800   7.889   1.621  0.4367 -0.7531 -0.0426
   54MOL   N20929995   2.836   7.976   1.723 -0.2942 -0.7428 -0.3352
   54MOL   C21029996   2.674   7.875   1.568  0.4061 -0.2913  1.2096
   54MOL   C21129997   2.652   7.772   1.473 -0.4316 -0.0317 -0.5719
   54MOL   O21229998   2.865   7.424   1.358  0.5416  0.2876  0.0055
   54MOL   C21329999   2.686   7.442   1.052  0.0867 -0.4063  0.5263
   54MOL   C21430000   2.626   7.352   0.962  0.2344 -0.5440 -0.5123
   54MOL   O21530001   2.423   7.056   0.964 -0.6073 -0.2314 -0.0549
   54MOL   H21630002   2.595   7.073   1.154  1.1972 -0.6787 -1.5164
   54MOL   H21730003   2.714   7.232   1.320  0.6629 -0.0931 -0.3590
   54MOL   H21830004   2.665   7.630   1.236  2.0268  1.8950 -0.5481
   54MOL   H21930005   2.964   7.658   1.436  0.0390 -1.1492 -2.0363
   54MOL   H22030006   3.002   7.814   1.606  0.1589  0.5867  0.5144
   54MOL   H22130007   2.925   7.950   1.764  0.9054  1.1910 -1.6247
   54MOL   H22230008   2.596   7.940   1.603 -0.5168  0.1141 -1.5163
   54MOL   H22330009   2.554   7.762   1.429 -0.5947  0.6452 -0.3673
   54MOL   H22430010   2.695   7.547   1.027  1.1083 -0.2485  1.5368
   54MOL   H22530011   2.603   7.387   0.863  1.1131 -3.2975 -1.7617
   54MOL   C22630012   2.773   8.073   1.789 -0.0826  0.0326  0.8932
   54MOL   C22730013   2.839   8.121   1.914 -0.3980  0.0873  0.3504
   54MOL   C22830014   2.775   0.063   2.006 -0.5549 -0.1008 -0.5731
   54MOL   C22930015   2.841   0.119   2.120 -0.2226  0.0769  0.3075
   54MOL   C23030016   2.976   0.085   2.149 -0.3923 -0.1081  0.1442
   54MOL   C23130017   3.057   0.147   2.256 -0.4627 -0.2052 -0.1745
   54MOL   N23230018   2.991   0.230   2.345 -0.0966  0.0886  0.1681
   54MOL   C23330019   3.037   0.287   2.464  0.2229  0.2048 -0.2611
   54MOL   C23430020   2.956   0.376   2.539  0.4170 -0.1146  0.9870
   54MOL   C23530021   3.002   0.443   2.653  0.2408 -0.7741 -0.0859
   54MOL   C23630022   3.131   0.425   2.702 -0.1532 -0.5641  0.2640
   54MOL   N23730023   3.171   0.481   2.832 -0.3959  0.0209  0.2151
   54MOL   C23830024   3.216   0.336   2.628  0.4642 -0.2794 -0.2150
   54MOL   C23930025   3.167   0.269   2.519 -0.1873  0.2888 -0.3762
   54MOL   O24030026   3.180   0.123   2.255 -0.1868 -0.0291  0.0260
   54MOL   C24130027   3.035   8.138   2.064 -0.2878 -0.0202  0.6883
   54MOL   C24230028   2.973   8.086   1.946  0.0711 -0.1409  0.5701
   54MOL   O24330029   2.663   8.119   1.746  0.0302 -0.2806 -0.0650
   54MOL   H24430030   2.672   0.086   1.984 -0.6162 -1.3223 -1.6359
   54MOL   H24530031   2.787   0.192   2.179 -0.5059  0.8302 -0.8765
   54MOL   H24630032   2.894   0.247   2.324 -0.2614 -1.7476 -0.6098
   54MOL   H24730033   2.857   0.397   2.503  0.8593  0.0992 -0.1302
   54MOL   H24830034   2.946   0.525   2.695 -0.8519 -0.9134 -1.2414
   54MOL   H24930035   3.100   0.539   2.875  0.6795  2.3230 -1.0229
   54MOL   H25030036   3.319   0.313   2.652  0.5002 -0.0719 -0.1713
   54MOL   H25130037   3.241   0.210   2.467 -1.7390  0.1612 -2.5005
   54MOL   H25230038   3.137   8.109   2.085  0.7482  1.6002 -1.7670
   54MOL   H25330039   3.027   8.016   1.884  0.7121 -1.1109  2.1866
   54MOL   C25430040   3.288   0.478   2.904 -0.0718 -0.3145  0.0051
   54MOL   C25530041   3.304   0.579   3.011 -0.2699 -0.0191  0.2143
   54MOL   C25630042   3.226   0.572   3.127 -0.4110  0.1212  0.1193
   54MOL   C25730043   3.249   0.662   3.229  0.1445 -0.1849  0.0078
   54MOL   C25830044   3.346   0.766   3.225 -0.8764 -0.2252 -1.0272
   54MOL   C25930045   3.374   0.863   3.342  0.9283  0.6820  0.0502
   54MOL   N26030046   3.463   0.963   3.329  0.2357 -0.3501  0.3382
   54MOL   C26130047   3.499   1.054   3.436  0.1940 -0.6052 -0.5748
   54MOL   C26230048   3.406   1.129   3.517  0.4728 -0.2226 -0.0925
   54MOL   C26330049   3.451   1.226   3.604  0.7781 -0.1116 -0.0660
   54MOL   C26430050   3.586   1.240   3.635  0.0224 -0.0729 -0.0104
   54MOL   N26530051   3.636   1.307   3.755 -0.1623 -0.9798  0.8329
   54MOL   C26630052   3.677   1.160   3.551 -0.1976 -0.0470 -0.5139
   54MOL   C26730053   3.636   1.076   3.449  0.2443  0.1663 -0.3507
   54MOL   O26830054   3.329   0.832   3.453 -0.5118  0.4078 -0.6287
   54MOL   C26930055   3.425   0.769   3.105 -0.1406  0.5821 -0.0796
   54MOL   C27030056   3.404   0.674   3.004 -0.6821 -0.0469 -0.1710
   54MOL   O27130057   3.387   0.406   2.876  0.1603 -0.2802  0.3794
   54MOL   H27230058   3.143   0.503   3.132 -0.7646  0.5491  0.2612
   54MOL   H27330059   3.193   0.644   3.320  0.8825 -0.6533  0.3809
   54MOL   H27430060   3.489   0.985   3.234 -0.7262  0.2953  0.2144
   54MOL   H27530061   3.302   1.100   3.508 -0.3786  1.9294  2.3233
   54MOL   H27630062   3.380   1.282   3.663  0.4729 -0.7487  0.1717
   54MOL   H27730063   3.575   1.315   3.835 -0.4945  0.3419  0.4688
   54MOL   H27830064   3.783   1.177   3.564 -0.0213 -2.1934  1.1784
   54MOL   H27930065   3.696   1.028   3.373  2.4145  0.6606  1.0083
   54MOL   H28030066   3.508   0.836   3.085 -0.1659  0.0333 -2.1638
   54MOL   H28130067   3.469   0.684   2.918 -0.8933  1.3187 -0.1872
   54MOL   C28230068   3.761   1.339   3.778  0.5232 -0.0441 -1.0895
   54MOL   C28330069   3.803   1.349   3.927  0.1841  0.3713 -0.0988
   54MOL   C28430070   3.930   1.394   3.956  0.5557  0.7207  0.4164
   54MOL   C28530071   3.968   1.423   4.083  0.0715 -0.5713  0.0664
   54MOL   C28630072   3.875   1.414   4.185  0.2938  0.6089  0.0276
   54MOL   C28730073   3.915   1.447   4.323 -0.5504  0.1976  0.3259
   54MOL   N28830074   3.943   1.347   4.402  0.3536 -0.0581  0.6532
   54MOL   C28930075   3.950   1.207   4.370  0.3323  0.0742 -0.2381
   54MOL   C29030076   3.860   1.113   4.424  0.2843  0.5002  0.0519
   54MOL   C29130077   3.869   0.981   4.382  0.3453 -0.7034  0.4747
   54MOL   C29230078   3.964   0.939   4.286 -0.0471 -1.1592  0.5598
   54MOL   N29330079   3.942   0.817   4.218  0.6612  0.0016  0.2077
   54MOL   C29430080   4.062   1.031   4.241 -0.1428  0.0156 -0.0821
   54MOL   C29530081   4.052   1.167   4.283  0.3501  0.6511 -0.1653
   54MOL   O29630082   3.906   1.558   4.375 -0.7628 -0.1379 -0.2929
   54MOL   C29730083   3.743   1.374   4.160  0.3630  0.2901  0.7797
   54MOL   C29830084   3.711   1.341   4.027  0.2183  0.6903  0.2812
   54MOL   O29930085   3.836   1.368   3.689 -0.2964 -0.5422 -0.0065
   54MOL   H30030086   3.991   1.425   3.872 -3.0323 -0.8856 -2.9477
   54MOL   H30130087   4.063   1.469   4.107 -0.8024  1.3386 -0.0249
   54MOL   H30230088   3.944   1.366   4.501  2.2483  1.3462  0.4151
   54MOL   H30330089   3.791   1.143   4.502  0.1352 -2.8571  1.3305
   54MOL   H30430090   3.793   0.919   4.428 -0.9887 -0.5219 -1.4166
   54MOL   H30530091   3.844   0.793   4.217  0.7080 -0.7001  3.7160
   54MOL   H30630092   4.144   1.016   4.172 -0.4082 -2.7337  0.1307
   54MOL   H30730093   4.110   1.241   4.230  1.3384  1.1204  1.5238
   54MOL   H30830094   3.668   1.375   4.237  0.4868 -2.6649  0.9833
   54MOL   H30930095   3.605   1.332   4.008  0.0707  1.6310  0.6406
   54MOL   C31030096   4.026   0.721   4.169  0.9306  0.3369  0.1984
   54MOL   C31130097   3.946   0.606   4.103 -0.0894 -0.1208 -0.5347
   54MOL   C31230098   3.804   0.601   4.120 -0.7166 -0.4029  0.2157
   54MOL   C31330099   3.735   0.505   4.050 -0.3094  0.3876 -0.3530
   54MOL   C31430100   3.799   0.408   3.969  0.0205  0.0427  0.4585
   54MOL   C31530101   3.710   0.327   3.880 -0.2219 -0.4379  0.3312
   54MOL   N31630102   3.631   0.401   3.799  0.2502 -0.9132  0.5594
   54MOL   C31730103   3.552   0.356   3.686  0.0846 -0.2886 -0.5967
   54MOL   C31830104   3.444   0.438   3.646 -0.1395  0.0277 -0.5868
   54MOL   C31930105   3.369   0.407   3.530 -0.0100  0.3171 -0.2570
   54MOL   C32030106   3.395   0.287   3.459 -0.2179 -0.6682 -0.4824
   54MOL   N32130107   3.323   0.245   3.352  0.0109 -0.3742 -0.6736
   54MOL   C32230108   3.497   0.199   3.501 -0.6495  0.1898 -0.6929
   54MOL   C32330109   3.577   0.242   3.607 -0.4463 -0.2911  0.0701
   54MOL   O32430110   3.719   0.205   3.877  0.3213 -0.5118 -0.2535
   54MOL   C32530111   3.941   0.410   3.965  0.1565  0.8140 -0.6200
   54MOL   C32630112   4.015   0.507   4.037 -0.1679  0.4433  0.1612
   54MOL   O32730113   4.147   0.712   4.195 -0.2217  0.6895 -0.7846
   54MOL   H32830114   3.740   0.663   4.181  0.8508 -1.5856  3.1407
   54MOL   H32930115   3.629   0.487   4.063 -0.1244  0.4381  1.2864
   54MOL   H33030116   3.623   0.497   3.829  1.8397 -0.1362 -1.3497
   54MOL   H33130117   3.413   0.521   3.707  0.8244 -0.1312  0.1222
   54MOL   H33230118   3.297   0.482   3.502  0.5800  0.3367 -1.7444
   54MOL   H33330119   3.365   0.171   3.298  1.6076 -0.0947  0.1469
   54MOL   H33430120   3.530   0.110   3.449  0.5929 -0.0852  0.5324
   54MOL   H33530121   3.653   0.172   3.641 -1.2596 -1.2401 -0.0392
   54MOL   H33630122   3.983   0.338   3.896  0.5026 -0.9529  1.3809
   54MOL   H33730123   4.121   0.509   4.019 -0.0254 -3.1395  0.2728
   54MOL   C33830124   3.205   0.294   3.305  0.7977  0.0351 -0.5586
   54MOL   C33930125   3.149   0.245   3.173 -0.2177  0.1422 -0.1223
   54MOL   C34030126   3.227   0.168   3.090 -0.1133 -0.1032 -0.1172
   54MOL   C34130127   3.168   0.099   2.981  0.1737  0.4568 -0.5015
   54MOL   C34230128   3.032   0.119   2.952  1.0877  0.2616 -0.0083
   54MOL   C34330129   2.966   0.033   2.848 -0.2238 -0.4918  0.2498
   54MOL   N34430130   3.021   0.032   2.727 -0.1930  0.1599  0.1586
   54MOL   C34530131   2.961   8.130   2.604 -0.6468 -0.3979 -0.1797
   54MOL   C34630132   3.047   8.065   2.510  0.3668  0.4292  0.5079
   54MOL   C34730133   2.982   7.993   2.406 -0.2492  0.6443 -0.6775
   54MOL   C34830134   2.844   7.989   2.383  0.3260 -0.2068 -0.5095
   54MOL   N34930135   2.782   7.922   2.275 -0.4531 -0.2091  0.4095
   54MOL   C35030136   2.764   8.055   2.480  0.2705  0.2237 -0.0394
   54MOL   C35130137   2.822   8.131   2.586 -0.1268  0.0968 -0.5448
   54MOL   O35230138   2.862   8.118   2.880  0.1898  0.1412 -0.2049
   54MOL   C35330139   2.954   0.201   3.031 -0.0051  0.1133  0.0567
   54MOL   C35430140   3.013   0.261   3.143 -0.1393 -0.1178 -0.9580
   54MOL   O35530141   3.139   0.383   3.360 -0.5144  0.0006 -0.6071
   54MOL   H35630142   3.330   0.146   3.114  0.0413 -1.3155 -1.8422
   54MOL   H35730143   3.220   0.026   2.923 -0.5398 -1.2957  1.0136
   54MOL   H35830144   3.110   0.078   2.713 -0.9599  1.9483  0.9255
   54MOL   H35930145   3.155   8.058   2.521  0.7125  0.7601 -2.4209
   54MOL   H36030146   3.047   7.935   2.342  0.4360  1.7238 -0.9842
   54MOL   H36130147   2.690   7.959   2.254  0.1492  2.2837  1.8625
   54MOL   H36230148   2.656   8.049   2.474  0.3190 -0.3257 -0.4748
   54MOL   H36330149   2.753   0.026   2.659 -0.1595 -0.4963 -0.2411
   54MOL   H36430150   2.849   0.207   3.007  0.2957  1.6594 -0.9219
   54MOL   H36530151   2.953   0.309   3.220  0.9041 -0.8913  0.3609
   54MOL   C36630152   2.832   7.827   2.195  0.2179 -0.2855 -0.8300
   54MOL   C36730153   2.743   7.778   2.083 -0.1650  0.2940  0.3092
   54MOL   C36830154   2.803   7.718   1.971  0.2665 -0.5685 -0.3134
   54MOL   C36930155   2.725   7.671   1.862 -0.4703 -0.3118  1.3749
   54MOL   C37030156   2.584   7.681   1.866 -0.3083  0.1687  0.4670
   54MOL   C37130157   2.495   7.628   1.756  0.2783  0.2960  0.7600
   54MOL   N37230158   2.542   7.521   1.682 -0.0096  0.2081 -0.2017
   54MOL   C37330159   2.464   7.443   1.588 -0.4061 -0.2446 -0.0183
   54MOL   C37430160   2.339   7.486   1.539 -0.5548 -0.8797 -0.5082
   54MOL   C37530161   2.268   7.410   1.450 -0.3784  0.0115 -0.2125
   54MOL   C37630162   2.319   7.282   1.404  0.1930  0.3795 -0.8253
   54MOL   N37730163   2.246   7.201   1.318  0.0570  0.1831  0.1348
   54MOL   C37830164   2.449   7.253   1.439 -0.1587  1.2167 -0.0017
   54MOL   C37930165   2.519   7.324   1.537  0.1891  0.4940  0.0575
   54MOL   O38030166   2.398   7.696   1.725  0.1631  0.0698  0.6106
   54MOL   C38130167   2.522   7.743   1.969 -0.6191 -0.3444 -0.1840
   54MOL   C38230168   2.599   7.799   2.077  0.0145  0.0868 -0.1029
   54MOL   O38330169   2.937   7.771   2.218 -0.6672  0.4291 -0.2929
   54MOL   H38430170   2.909   7.704   1.959  0.5031  0.1893  0.8106
   54MOL   H38530171   2.776   7.634   1.774  1.5006  0.4187  2.1816
   54MOL   H38630172   2.627   7.477   1.716  0.6751  2.0057  0.4585
   54MOL   H38730173   2.301   7.582   1.569  0.6948 -1.3893  2.8995
   54MOL   H38830174   2.171   7.437   1.411  0.4308  0.2646 -2.1142
   54MOL   H38930175   2.229   7.236   1.225  0.4774 -1.0914 -0.4408
   54MOL   H39030176   2.495   7.170   1.388  0.5631  3.0182 -2.3748
   54MOL   H39130177   2.618   7.298   1.571  0.0749 -0.2564 -0.1916
   54MOL   H39230178   2.414   7.746   1.971 -0.6558 -1.3039 -0.3431
   54MOL   H39330179   2.547   7.854   2.154  0.1368  0.1945 -0.0976
   54MOL   C39430180   2.163   7.101   1.347  0.1955 -0.0507  0.2602
   54MOL   C39530181   2.163   7.061   1.492  0.1851  0.2210  0.0783
   54MOL   C39630182   2.049   7.097   1.575 -0.3708 -0.6370 -0.0475
   54MOL   C39730183   2.054   7.061   1.710 -0.3697  0.0305 -1.1757
   54MOL   C39830184   2.172   7.007   1.766  0.0404  0.0340 -0.0583
   54MOL   C39930185   2.192   6.981   1.915  0.7116 -0.2537 -0.0735
   54MOL   N40030186   2.308   6.927   1.953  0.0344 -0.0123 -0.2951
   54MOL   C40130187   2.351   6.909   2.086  0.4864  0.5541  0.2468
   54MOL   C40230188   2.487   6.870   2.110 -0.2301  0.1620 -0.7376
   54MOL   C40330189   2.530   6.836   2.237  0.0424  0.8682  0.8403
   54MOL   C40430190   2.447   6.840   2.347  0.1964  0.5271  0.3628
   54MOL   N40530191   2.506   6.813   2.470 -0.2558 -0.1361  0.4083
   54MOL   C40630192   2.312   6.875   2.330 -0.1205 -0.0502  0.3224
   54MOL   C40730193   2.264   6.917   2.200 -0.5999 -0.4153  0.3254
   54MOL   O40830194   2.099   7.010   1.994  0.1585 -0.9033  0.3064
   54MOL   C40930195   2.276   6.966   1.680 -0.4641 -0.3500 -0.0299
   54MOL   C41030196   2.272   6.990   1.544  0.2017 -0.6598 -0.1433
   54MOL   O41130197   2.086   7.058   1.260  0.3943 -0.0060  0.8410
   54MOL   H41230198   1.963   7.149   1.536  0.2090  1.4986  1.4377
   54MOL   H41330199   1.973   7.080   1.778 -0.1956 -0.9607 -0.6762
   54MOL   H41430200   2.363   6.893   1.875  0.5654  0.9074 -0.3274
   54MOL   H41530201   2.549   6.881   2.022  0.5255  0.3270 -0.1909
   54MOL   H41630202   2.635   6.821   2.259  0.3298 -0.5560 -1.3206
   54MOL   H41730203   2.604   6.835   2.469 -0.4209  0.7389  2.1389
   54MOL   H41830204   2.235   6.880   2.405  1.7945  1.1816  2.2569
   54MOL   H41930205   2.167   6.964   2.203  0.2948  1.5772 -1.0902
   54MOL   H42030206   2.363   6.913   1.718  0.1952 -1.3372 -2.8095
   54MOL   H42130207   2.353   6.951   1.485 -0.2732  0.8278 -1.8147
   54MOL   C42230208   2.452   6.764   2.580 -0.1219  0.6109 -0.0504
   54MOL   C42330209   2.548   6.696   2.671 -0.2305 -0.0315 -0.3643
   54MOL   C42430210   2.505   6.593   2.758 -0.3264  0.0428 -0.4332
   54MOL   C42530211   2.590   6.522   2.845 -0.4030  1.1854 -0.5753
   54MOL   C42630212   2.729   6.554   2.843  0.7571  0.2056 -0.0246
   54MOL   C42730213   2.826   6.491   2.934 -0.3037 -0.0453  0.2487
   54MOL   N42830214   2.907   6.569   3.002 -0.6027 -0.3463  0.0927
   54MOL   C42930215   3.012   6.529   3.099 -0.0815 -0.5802 -0.4033
   54MOL   C43030216   3.101   6.421   3.070  0.3361 -0.9538 -0.0777
   54MOL   C43130217   3.216   6.404   3.145 -0.1929  0.8701  0.4335
   54MOL   C43230218   3.242   6.476   3.266  0.4708  0.3116  0.6461
   54MOL   N43330219   3.366   6.451   3.326 -0.3532  0.1638 -0.5916
   54MOL   C43430220   3.147   6.579   3.298 -0.1259 -0.0179 -0.7644
   54MOL   C43530221   3.042   6.608   3.217 -0.2120 -0.7984  0.5136
   54MOL   O43630222   2.842   6.366   2.928  0.2797 -0.0739 -0.5730
   54MOL   C43730223   2.777   6.651   2.750 -1.1000 -0.0628 -0.1771
   54MOL   C43830224   2.684   6.718   2.671 -0.1774 -0.1927 -0.0209
   54MOL   O43930225   2.333   6.763   2.600  0.4319 -0.3569  0.1246
   54MOL   H44030226   2.399   6.574   2.759 -0.1010 -1.4224 -1.9583
   54MOL   H44130227   2.560   6.444   2.913  3.4252 -0.8836 -1.1322
   54MOL   H44230228   2.891   6.669   2.997 -3.5555 -0.6984  1.5438
   54MOL   H44330229   3.091   6.361   2.981 -1.0211 -1.1206  0.1789
   54MOL   H44430230   3.287   6.325   3.125  1.0002  2.7825 -3.4890
   54MOL   H44530231   3.401   6.356   3.329 -0.9109  0.0225  2.4783
   54MOL   H44630232   3.154   6.641   3.386  1.1313  1.3521 -1.8105
   54MOL   H44730233   2.972   6.684   3.249  0.3887  0.5516 -1.3518
   54MOL   H44830234   2.881   6.680   2.744 -0.8415 -1.1652 -1.5222
   54MOL   H44930235   2.721   6.794   2.603 -0.7186 -2.0145 -2.4163
   54MOL   C45030236   3.433   6.528   3.416  0.1103  0.3913 -0.7681
   54MOL   C45130237   3.550   6.458   3.487 -0.5769  0.0972 -0.2376
   54MOL   C45230238   3.614   6.527   3.599 -0.2280  0.3224  0.5566
   54MOL   C45330239   3.726   6.470   3.658 -1.1466 -0.5217 -0.0682
   54MOL   C45430240   3.793   6.357   3.609  1.3454 -0.0029 -0.0871
   54MOL   C45530241   3.918   6.303   3.671 -0.2565 -0.4923  0.0399
   54MOL   N45630242   3.992   6.389   3.742  1.2594  0.3565 -0.0751
   54MOL   C45730243   4.125   6.380   3.784  0.1078  0.5795 -0.4145
   54MOL   C45830244   4.192   6.500   3.766 -0.2005 -0.2308 -0.1398
   54MOL   C45930245   4.328   6.507   3.809 -0.1161  0.2308  0.0868
   54MOL   C46030246   4.401   6.392   3.855  0.4439 -0.6612 -0.0357
   54MOL   N46130247   4.535   6.401   3.900 -0.1573 -0.4811 -0.4940
   54MOL   C46230248   4.328   6.270   3.868  0.0585 -0.1539  0.1529
   54MOL   C46330249   4.190   6.268   3.833 -0.0401  0.0121 -0.1959
   54MOL   O46430250   3.963   6.193   3.647 -0.1541 -0.9279 -0.0930
   54MOL   C46530251   3.732   6.284   3.505 -0.0874  0.2167 -0.7047
   54MOL   C46630252   3.614   6.334   3.445  0.6902 -0.3325  0.4969
   54MOL   O46730253   3.398   6.643   3.453  0.0137 -0.0080 -0.0306
   54MOL   H46830254   3.561   6.613   3.636 -0.0660  0.0074  1.5240
   54MOL   H46930255   3.757   6.524   3.746 -1.2742  0.1404 -0.4214
   54MOL   H47030256   3.971   6.487   3.729 -2.1345 -0.2717  0.1184
   54MOL   H47130257   4.147   6.588   3.722  0.6472 -0.7702 -2.1523
   54MOL   H47230258   4.370   6.606   3.804  0.1377  0.0675 -1.3213
   54MOL   H47330259   4.578   6.333   3.962 -0.3978  0.4740  0.7307
   54MOL   H47430260   4.374   6.188   3.921  0.9944  0.0911 -0.2740
   54MOL   H47530261   4.124   6.185   3.852  2.7343 -2.1763  0.1484
   54MOL   H47630262   3.780   6.197   3.464 -1.5662 -1.0222  0.1224
   54MOL   H47730263   3.587   6.279   3.356  2.7713  0.2788 -0.5416
   54MOL   C47830264   4.630   6.484   3.860  0.2635 -0.0277 -0.4744
   54MOL   C47930265   4.767   6.459   3.913 -0.5565 -0.3295 -0.1579
   54MOL   C48030266   4.797   6.387   4.035 -0.0353  0.3723  0.3429
   54MOL   C48130267   4.922   6.344   4.077  0.6002  0.1155  0.2604
   54MOL   C48230268   5.025   6.376   3.989  0.2587  1.1468 -0.0418
   54MOL   C48330269   5.153   6.306   4.010  0.1476  0.6976  0.1484
   54MOL   N48430270   5.183   6.222   3.903 -0.5720 -0.3365 -0.3187
   54MOL   C48530271   5.260   6.104   3.906  0.6357  0.1815 -0.1904
   54MOL   C48630272   5.374   6.089   3.990  0.1704  0.0306 -0.1687
   54MOL   C48730273   5.425   5.958   3.996  0.5253 -0.1930  0.0389
   54MOL   C48830274   5.385   5.857   3.910 -0.2860 -0.1566  0.3339
   54MOL   N48930275   5.434   5.728   3.903  0.0893  0.0554 -0.7218
   54MOL   C49030276   5.285   5.874   3.823  0.1017 -0.5576 -0.1523
   54MOL   C49130277   5.225   6.001   3.816 -0.2519  0.1503 -0.0918
   54MOL   O49230278   5.234   6.341   4.100 -0.0216  0.7418  0.1259
   54MOL   C49330279   5.005   6.462   3.877  0.6422 -0.7407  0.3669
   54MOL   C49430280   4.880   6.506   3.847  1.3190  0.1837  0.5683
   54MOL   O49530281   4.620   6.570   3.772  0.3759  0.0283 -0.3346
   54MOL   H49630282   4.712   6.358   4.096 -1.3983  0.7885 -1.3422
   54MOL   H49730283   4.942   6.288   4.167 -1.4680  0.9332  1.2532
   54MOL   H49830284   5.117   6.223   3.827  1.4676 -1.6646 -2.1598
   54MOL   H49930285   5.415   6.164   4.056  1.3052  1.0082 -1.9219
   54MOL   H50030286   5.503   5.934   4.067  0.1892 -3.6348 -0.7097
   54MOL   H50130287   5.368   5.670   3.853  0.0171  0.8994 -1.6203
   54MOL   H50230288   5.257   5.806   3.744  0.4433  0.7825 -1.4464
   54MOL   H50330289   5.143   6.020   3.749  0.1180  0.2582 -0.5143
   54MOL   H50430290   5.087   6.495   3.815 -0.0286  1.8543  0.7902
   54MOL   H50530291   4.873   6.575   3.765 -1.6367 -0.4012  0.2891
   54MOL   C50630292   5.548   5.677   3.943 -0.8656  0.4451 -0.4367
   54MOL   C50730293   5.592   5.555   3.865 -0.2221 -0.5941  0.3468
   54MOL   C50830294   5.572   5.553   3.727 -0.3387  0.0356 -0.2751
   54MOL   C50930295   5.594   5.438   3.656  0.2449  0.2726 -0.1659
   54MOL   C51030296   5.670   5.334   3.718  0.1640  0.4110 -0.4549
   54MOL   C51130297   5.716   5.220   3.627 -1.1499  0.0282  0.8582
   54MOL   N51230298   5.847   5.219   3.598  0.1519  0.7901  0.4499
   54MOL   C51330299   5.934   5.129   3.524 -0.3173 -0.0119 -0.0864
   54MOL   C51430300   5.912   4.992   3.526 -0.1958 -0.8796 -0.0893
   54MOL   C51530301   6.005   4.905   3.466 -0.7730  0.4387  0.4345
   54MOL   C51630302   6.117   4.953   3.396  0.4881  0.3664 -0.0428
   54MOL   N51730303   6.196   4.855   3.335  0.3301 -0.4413  0.7263
   54MOL   C51830304   6.131   5.089   3.375 -0.4592  0.0488 -0.8348
   54MOL   C51930305   6.042   5.177   3.446  0.4674 -0.3028  0.3251
   54MOL   O52030306   5.639   5.136   3.585  0.2471 -0.0945  0.1743
   54MOL   C52130307   5.690   5.332   3.854  0.1016 -0.3002 -0.1736
   54MOL   C52230308   5.654   5.443   3.926  0.1011  0.6632 -0.4826
   54MOL   O52330309   5.611   5.718   4.039 -0.6093 -0.7544 -0.2452
   54MOL   H52430310   5.528   5.636   3.673  1.4897  0.2174 -1.5283
   54MOL   H52530311   5.553   5.429   3.557 -0.4542  1.9993 -0.0406
   54MOL   H52630312   5.900   5.275   3.663  0.2300  1.9464 -0.6011
   54MOL   H52730313   5.830   4.956   3.586 -1.2701 -3.3738 -2.8993
   54MOL   H52830314   5.997   4.798   3.480  0.6900  0.3433  0.5949
   54MOL   H52930315   6.143   4.770   3.330  2.2370 -1.6078 -0.7488
   54MOL   H53030316   6.203   5.128   3.305 -0.7626  0.4887 -0.9042
   54MOL   H53130317   6.059   5.284   3.440  0.5677 -0.3599 -0.4766
   54MOL   H53230318   5.747   5.263   3.914  1.7123  0.0150 -1.3108
   54MOL   H53330319   5.667   5.449   4.033 -0.9316 -1.0139 -0.2375
   54MOL   C53430320   6.325   4.840   3.333 -0.3492  0.2709  0.2789
   54MOL   C53530321   6.363   4.690   3.338  1.5868  0.1458  0.0100
   54MOL   C53630322   6.485   4.643   3.289  0.4714  0.4002  0.3336
   54MOL   C53730323   6.519   4.508   3.312 -0.1957  0.1093 -0.3432
   54MOL   C53830324   6.439   4.414   3.377  0.7477  0.0427 -0.1935
   54MOL   C53930325   6.479   4.269   3.385  0.0952 -0.6124 -0.3151
   54MOL   N54030326   6.380   4.182   3.399  0.6043 -0.4416 -0.3633
   54MOL   C54130327   6.392   4.054   3.448 -0.7091  0.0718  0.6701
   54MOL   C54230328   6.484   4.013   3.548 -0.0172  0.0443  0.5477
   54MOL   C54330329   6.478   3.883   3.598  0.2580  0.3540  0.0772
   54MOL   C54430330   6.395   3.789   3.538  0.2445  0.0232 -0.8443
   54MOL   N54530331   6.378   3.659   3.586  0.0540 -0.2044 -0.1325
   54MOL   C54630332   6.316   3.825   3.431 -0.2997  0.6284 -0.3733
   54MOL   C54730333   6.308   3.956   3.389 -0.6128 -0.5865  0.6169
   54MOL   O54830334   6.589   4.229   3.361  0.1009 -0.0499 -0.9021
   54MOL   C54930335   6.320   4.467   3.434 -0.4618  0.5267 -0.2630
   54MOL   C55030336   6.284   4.602   3.420 -0.2597 -0.3525 -0.6497
   54MOL   O55130337   6.404   4.930   3.308  0.1320  0.8203  0.6296
   54MOL   H55230338   6.549   4.711   3.237 -0.6758  0.9059 -0.4320
   54MOL   H55330339   6.603   4.469   3.256 -1.0600  1.4530 -2.6054
   54MOL   H55430340   6.301   4.202   3.340 -1.5407  0.4614  2.6798
   54MOL   H55530341   6.566   4.079   3.573  0.5016  0.3022 -1.7417
   54MOL   H55630342   6.542   3.863   3.682  2.2204  1.3957 -1.1243
   54MOL   H55730343   6.433   3.629   3.665 -0.1488 -0.0994  0.0501
   54MOL   H55830344   6.265   3.744   3.380  2.4131 -0.3790 -1.6110
   54MOL   H55930345   6.238   3.978   3.310 -1.7140  1.1991  2.0505
   54MOL   H56030346   6.257   4.408   3.499  0.5106  0.5119  0.6845
   54MOL   H56130347   6.200   4.633   3.482 -0.8608 -1.1040 -1.0778
   54MOL   H56230348   6.306   3.595   3.556  0.0176 -0.2107 -0.0325
   55MOL     C130349   2.067   4.081   1.379  0.4185 -0.2728  0.3710
   55MOL     C230350   2.076   4.051   1.523  0.6036  0.4005 -0.0925
   55MOL     C330351   2.026   4.148   1.611 -0.1189 -0.5074 -1.4438
   55MOL     C430352   2.031   4.120   1.755  1.1708 -0.0719 -0.0232
   55MOL     C530353   2.090   4.003   1.808  0.5529 -0.5972  0.0126
   55MOL     C630354   2.121   3.987   1.955 -0.2008  0.4987 -0.2882
   55MOL     N730355   2.007   3.986   2.024  0.3961  0.6226 -0.4341
   55MOL     C830356   1.987   3.989   2.165 -0.1883  0.0047 -0.0633
   55MOL     C930357   2.090   3.954   2.259  0.1906 -0.6519 -0.8537
   55MOL    C1030358   2.072   3.961   2.400  0.8629 -0.1579  0.1195
   55MOL    C1130359   1.949   4.010   2.446  0.1824  0.5719 -0.2181
   55MOL    N1230360   1.933   4.027   2.587  0.6809 -0.2294  0.8212
   55MOL    C1330361   1.843   4.043   2.360 -0.9449 -0.2593 -0.4329
   55MOL    C1430362   1.863   4.030   2.217 -0.2332 -0.5395 -0.0134
   55MOL    O1530363   2.234   3.958   1.989 -0.1069  0.1088 -0.0232
   55MOL    C1630364   2.144   3.916   1.716  0.1967  0.4582  0.2013
   55MOL    C1730365   2.135   3.935   1.576  0.2903 -0.0470  0.5785
   55MOL    O1830366   1.991   4.171   1.337 -0.3629 -0.5838 -0.3493
   55MOL    H1930367   1.983   4.243   1.586  1.0912  0.0343 -1.5417
   55MOL    H2030368   1.984   4.192   1.821  0.3283  0.4163 -1.1412
   55MOL    H2130369   1.926   3.995   1.964 -1.5692 -2.8083  1.5361
   55MOL    H2230370   2.186   3.914   2.229  0.6490  0.1495 -0.4927
   55MOL    H2330371   2.147   3.931   2.471  0.2941 -0.8775  0.4358
   55MOL    H2430372   1.996   3.964   2.635  1.4637 -0.2788 -0.2566
   55MOL    H2530373   1.746   4.070   2.398 -0.4916 -0.5217  0.9176
   55MOL    H2630374   1.776   4.043   2.155 -0.3949 -3.5930 -0.5044
   55MOL    H2730375   2.203   3.833   1.750  0.6261  0.7589  0.1995
   55MOL    H2830376   2.183   3.867   1.508  2.4457  3.4034 -1.5028
   55MOL    H2930377   2.140   4.022   1.323 -0.1432 -1.6637  1.0872
   55MOL    C3030378   1.870   4.127   2.653  0.1457  0.3939 -0.0066
   55MOL    C3130379   1.863   4.101   2.800 -0.1017 -0.0478 -0.2873
   55MOL    C3230380   1.953   4.009   2.862  0.4718  0.7675  0.8752
   55MOL    C3330381   1.965   4.006   3.006 -0.1795 -0.1233 -0.0138
   55MOL    C3430382   1.878   4.087   3.084 -0.0580  0.6904 -0.2716
   55MOL    C3530383   1.904   4.106   3.228  0.0360  0.7210  0.3003
   55MOL    N3630384   1.955   3.997   3.290  0.2805  0.3936 -0.6377
   55MOL    C3730385   2.032   3.990   3.409 -0.3354  0.7285  0.6239
   55MOL    C3830386   2.083   4.097   3.475 -0.5561 -0.1956  0.0282
   55MOL    C3930387   2.165   4.082   3.583 -0.6614 -0.7209 -0.8582
   55MOL    C4030388   2.191   3.950   3.638  0.5685 -0.5486 -0.0967
   55MOL    N4130389   2.280   3.943   3.748 -0.3646  0.0214  0.2167
   55MOL    C4230390   2.146   3.839   3.571 -0.3353  1.0571  0.3743
   55MOL    C4330391   2.070   3.860   3.450 -1.0552  0.3662  0.2623
   55MOL    O4430392   1.887   4.210   3.281  0.3430 -0.7632 -0.7059
   55MOL    C4530393   1.778   4.164   3.023  0.2062  0.2766 -0.1256
   55MOL    C4630394   1.770   4.172   2.883 -0.3776  0.5007 -0.2268
   55MOL    O4730395   1.819   4.226   2.602  1.0185  0.2955 -0.8043
   55MOL    H4830396   2.035   3.965   2.809 -0.2833  0.8080 -0.3312
   55MOL    H4930397   2.033   3.942   3.059  2.5184  2.2316 -0.5205
   55MOL    H5030398   1.931   3.907   3.251 -1.7481  0.3186  0.7042
   55MOL    H5130399   2.073   4.193   3.427 -1.6899  0.0425  0.6983
   55MOL    H5230400   2.201   4.171   3.632 -2.5648 -1.2042  1.5058
   55MOL    H5330401   2.376   3.952   3.719 -0.8325 -1.6458 -1.9664
   55MOL    H5430402   2.175   3.737   3.593 -0.5501  0.4335 -2.0733
   55MOL    H5530403   2.036   3.770   3.402  0.0476  0.5000 -0.7844
   55MOL    H5630404   1.714   4.224   3.087  1.0311  0.9573  0.0794
   55MOL    H5730405   1.696   4.233   2.834 -1.0058 -0.5592 -0.6255
   55MOL    C5830406   2.259   3.933   3.879 -0.2803 -0.2830 -0.0333
   55MOL    C5930407   2.125   3.914   3.946 -0.4291  0.1090  0.0814
   55MOL    C6030408   2.120   3.852   4.076 -0.1048 -0.7682  0.2300
   55MOL    C6130409   1.997   3.845   4.146 -0.6672 -0.2445 -0.7833
   55MOL    C6230410   1.879   3.881   4.085  0.0786 -0.2845 -0.8487
   55MOL    C6330411   1.743   3.855   4.142 -0.2887  0.2201 -0.3015
   55MOL    N6430412   1.737   3.846   4.276 -0.0409 -0.0655  0.0415
   55MOL    C6530413   1.658   3.762   4.357 -0.0897 -0.6347 -0.3986
   55MOL    C6630414   1.684   3.749   4.494 -0.3397  0.1847 -0.5019
   55MOL    C6730415   1.607   3.673   4.579  0.2260  0.5476 -0.8975
   55MOL    C6830416   1.507   3.597   4.520 -0.0575 -0.5226 -0.5433
   55MOL    N6930417   1.434   3.502   4.603  0.0134  0.2038 -0.1755
   55MOL    C7030418   1.478   3.608   4.384 -0.0830 -0.4880  0.2561
   55MOL    C7130419   1.550   3.691   4.303 -0.1219  0.3210  0.2994
   55MOL    O7230420   1.645   3.860   4.070  0.4466  0.6664  0.6091
   55MOL    C7330421   1.886   3.944   3.957  0.4046 -0.4163 -0.8220
   55MOL    C7430422   2.010   3.970   3.890  0.4058  0.0075  0.0110
   55MOL    O7530423   2.357   3.943   3.950  0.2316 -0.2537 -0.1499
   55MOL    H7630424   2.211   3.815   4.120  0.3511 -1.0274 -0.9179
   55MOL    H7730425   2.002   3.797   4.242  1.3758  0.9093 -0.2873
   55MOL    H7830426   1.824   3.874   4.320  1.3106  0.6223 -2.9292
   55MOL    H7930427   1.754   3.814   4.544  1.1914  1.1951 -3.8362
   55MOL    H8030428   1.633   3.675   4.684 -0.7149 -0.9325 -0.6204
   55MOL    H8130429   1.367   3.441   4.557  0.7266 -1.1124  0.5259
   55MOL    H8230430   1.397   3.558   4.334 -0.5994 -0.3544  0.9482
   55MOL    H8330431   1.522   3.694   4.198 -0.2876  0.0406  0.3336
   55MOL    H8430432   1.793   3.982   3.917 -0.0712 -0.3074  0.3785
   55MOL    H8530433   2.002   4.023   3.797 -0.7378 -0.0742  0.0561
   55MOL    C8630434   1.460   3.468   4.729 -0.0610 -0.0175  0.1817
   55MOL    C8730435   1.402   3.340   4.768 -0.2439  0.6805  0.0220
   55MOL    C8830436   1.480   3.240   4.828 -0.1182  0.3541 -0.2783
   55MOL    C8930437   1.426   3.118   4.873 -0.4670 -0.0456  0.8376
   55MOL    C9030438   1.293   3.082   4.830 -0.0345  0.2564 -0.3471
   55MOL    C9130439   1.241   2.941   4.853  0.2516 -0.0486  0.2493
   55MOL    N9230440   1.337   2.852   4.874 -0.3946 -0.0467 -0.2775
   55MOL    C9330441   1.322   2.714   4.892  0.2392 -0.0400  0.6061
   55MOL    C9430442   1.423   2.635   4.844 -0.5261  0.0842  0.3152
   55MOL    C9530443   1.415   2.496   4.855 -0.0035 -0.0881 -0.5290
   55MOL    C9630444   1.291   2.441   4.896 -0.8536 -0.4997  0.6947
   55MOL    N9730445   1.265   2.298   4.878  0.0681 -0.4464 -0.0386
   55MOL    C9830446   1.188   2.518   4.956 -0.5317  0.0698  0.3866
   55MOL    C9930447   1.208   2.658   4.947  0.1215  0.7841 -0.1450
   55MOL   O10030448   1.122   2.922   4.852  0.5253 -0.6058 -0.2112
   55MOL   C10130449   1.213   3.184   4.776  1.0116 -0.1705 -0.7008
   55MOL   C10230450   1.268   3.307   4.735  0.0003 -0.0585 -0.4544
   55MOL   O10330451   1.541   3.521   4.803 -0.0772  0.3959  0.4851
   55MOL   H10430452   1.584   3.257   4.851  0.3287 -0.2545 -1.7514
   55MOL   H10530453   1.489   3.038   4.909 -2.3909 -1.9732  0.0749
   55MOL   H10630454   1.428   2.895   4.882  0.8835 -2.7652  0.3771
   55MOL   H10730455   1.509   2.668   4.788 -1.5142 -0.9190 -1.8380
   55MOL   H10830456   1.492   2.429   4.819  1.1334  1.2795 -0.6748
   55MOL   H10930457   1.308   2.233   4.942 -1.6855 -0.5774  1.0199
   55MOL   H11030458   1.099   2.474   4.997 -0.3902 -1.5485 -0.9461
   55MOL   H11130459   1.126   2.720   4.982 -0.0743  0.9815 -0.9561
   55MOL   H11230460   1.117   3.161   4.732 -0.5541  1.5543  1.7027
   55MOL   H11330461   1.210   3.378   4.679 -2.5519 -1.8091 -0.1176
   55MOL   C11430462   1.216   2.244   4.764  0.4985 -0.2307  0.5543
   55MOL   C11530463   1.134   2.343   4.677 -0.3479 -0.4599 -0.5487
   55MOL   C11630464   1.007   2.393   4.712 -0.1109  0.2420  1.3628
   55MOL   C11730465   0.950   2.503   4.650  0.2502  0.2190 -0.3039
   55MOL   C11830466   1.017   2.555   4.536 -0.4914 -0.2960 -0.3570
   55MOL   C11930467   0.970   2.685   4.470  0.0606 -0.0678 -0.1838
   55MOL   N12030468   1.066   2.772   4.443 -0.1002 -0.5090  0.4385
   55MOL   C12130469   1.059   2.910   4.407  0.0272  0.5877 -0.0155
   55MOL   C12230470   0.977   2.947   4.294 -0.6385 -0.4625 -0.1608
   55MOL   C12330471   0.982   3.076   4.238 -0.1376 -0.0700 -0.6480
   55MOL   C12430472   1.063   3.170   4.303  0.4283  0.5627  0.1357
   55MOL   N12530473   1.071   3.299   4.244 -0.3670  0.2432 -0.0703
   55MOL   C12630474   1.144   3.133   4.415  0.5575  0.4834  0.4032
   55MOL   C12730475   1.137   3.006   4.473  0.3331 -0.4169 -1.3820
   55MOL   O12830476   0.857   2.695   4.435 -0.3180 -0.2332  0.3616
   55MOL   C12930477   1.135   2.498   4.486  0.5104 -0.9163  0.4698
   55MOL   C13030478   1.191   2.387   4.555 -0.1993  0.7974  0.0975
   55MOL   O13130479   1.246   2.131   4.734 -0.0862 -0.1476  0.6089
   55MOL   H13230480   0.953   2.357   4.798 -1.5198 -1.1377 -0.0750
   55MOL   H13330481   0.851   2.534   4.678 -1.0677 -0.0648 -4.3320
   55MOL   H13430482   1.157   2.742   4.475  1.1468 -0.0538 -2.4767
   55MOL   H13530483   0.910   2.890   4.232 -0.9792  0.9494 -1.1328
   55MOL   H13630484   0.924   3.099   4.149  0.4276  3.8385 -0.0726
   55MOL   H13730485   1.039   3.294   4.148  1.7494 -2.2404 -0.6776
   55MOL   H13830486   1.215   3.200   4.461  3.0000 -1.4899 -0.3311
   55MOL   H13930487   1.198   2.982   4.558 -1.1022 -0.9185 -0.4641
   55MOL   H14030488   1.184   2.534   4.397 -0.1027 -2.2424 -0.4335
   55MOL   H14130489   1.289   2.348   4.532 -1.3976 -1.6463 -1.0057
   55MOL   C14230490   1.130   3.418   4.290  0.4055  0.2318 -0.1251
   55MOL   C14330491   1.119   3.529   4.195 -0.2597 -0.3378 -0.4046
   55MOL   C14430492   1.099   3.510   4.053  0.6234  0.2497 -0.5706
   55MOL   C14530493   1.062   3.617   3.974  0.8946 -0.3634 -0.3472
   55MOL   C14630494   1.058   3.754   4.027 -0.8109 -0.2426 -0.0923
   55MOL   C14730495   1.028   3.868   3.936 -0.0218 -0.1818  0.3616
   55MOL   N14830496   0.987   3.979   4.000  0.0951  0.2886  0.2410
   55MOL   C14930497   0.943   4.106   3.949 -0.4540  0.7372 -0.1589
   55MOL   C15030498   0.967   4.152   3.819  0.4517 -0.3777 -0.0954
   55MOL   C15130499   0.939   4.289   3.784  0.6038 -0.1289  0.0697
   55MOL   C15230500   0.881   4.373   3.882  0.3454 -0.4865 -0.3099
   55MOL   N15330501   0.855   4.508   3.850 -0.5620 -0.0004  0.5035
   55MOL   C15430502   0.843   4.321   4.009  0.0071 -0.3982 -0.0036
   55MOL   C15530503   0.885   4.194   4.043 -0.0789  0.0043 -0.5538
   55MOL   O15630504   1.022   3.850   3.813  0.1592 -0.2031 -0.0547
   55MOL   C15730505   1.096   3.777   4.162 -0.3691  0.2878  0.0738
   55MOL   C15830506   1.118   3.666   4.246  0.2409 -0.7796 -0.3978
   55MOL   O15930507   1.188   3.437   4.393  0.5239  0.3124  0.4463
   55MOL   H16030508   1.101   3.412   4.009 -1.0320  0.1647 -0.4999
   55MOL   H16130509   1.033   3.595   3.873  1.9073  0.1057 -0.7421
   55MOL   H16230510   0.985   3.969   4.100  1.8038 -0.3918  0.2255
   55MOL   H16330511   1.010   4.081   3.750  0.7966  1.1935 -1.5218
   55MOL   H16430512   0.960   4.326   3.685  1.2901  0.8693  0.5728
   55MOL   H16530513   0.871   4.533   3.754 -0.9867  3.3544  1.2428
   55MOL   H16630514   0.805   4.382   4.090  1.1141  0.0713  0.1814
   55MOL   H16730515   0.862   4.168   4.146 -1.4822  0.2035 -0.8036
   55MOL   H16830516   1.106   3.876   4.204 -1.2801  0.7597 -0.7826
   55MOL   H16930517   1.119   3.684   4.352 -0.2871 -0.3569 -0.4598
   55MOL   C17030518   0.823   4.617   3.924  0.1438  0.1067  0.2221
   55MOL   C17130519   0.810   4.745   3.847  1.2285  0.0449  0.3772
   55MOL   C17230520   0.888   4.857   3.865 -0.3849 -0.1865  0.8748
   55MOL   C17330521   0.875   4.974   3.794  0.0388 -0.4890  0.1045
   55MOL   C17430522   0.772   4.977   3.694 -0.5698 -0.5604 -0.1316
   55MOL   C17530523   0.737   5.099   3.617 -0.6154 -0.1589  0.4465
   55MOL   N17630524   0.834   5.182   3.573  0.3054 -0.3505 -0.4862
   55MOL   C17730525   0.821   5.285   3.478 -0.5849 -0.1649 -0.5224
   55MOL   C17830526   0.910   5.276   3.369  0.3817  0.4444  0.1927
   55MOL   C17930527   0.901   5.366   3.257 -0.8833  0.3406 -0.0593
   55MOL   C18030528   0.797   5.458   3.251  0.0193  0.1710  0.3258
   55MOL   N18130529   0.794   5.558   3.156 -0.5238  0.5046 -0.9059
   55MOL   C18230530   0.708   5.469   3.365  0.2384  0.0265  0.4712
   55MOL   C18330531   0.724   5.390   3.480  0.4609 -0.1251  0.8945
   55MOL   O18430532   0.619   5.121   3.587  0.0194 -0.1382 -0.4003
   55MOL   C18530533   0.697   4.866   3.669 -0.3774 -0.3476  0.2773
   55MOL   C18630534   0.714   4.750   3.742 -0.2788  0.5355 -0.2158
   55MOL   O18730535   0.819   4.626   4.047 -0.0747  0.1395  0.2311
   55MOL   H18830536   0.963   4.862   3.943  0.5104  1.9549 -0.0758
   55MOL   H18930537   0.925   5.067   3.814  0.3481 -0.5730 -0.2790
   55MOL   H19030538   0.928   5.150   3.592  0.2974 -1.7956 -2.7407
   55MOL   H19130539   0.998   5.214   3.375  0.0676 -0.0262 -0.0971
   55MOL   H19230540   0.966   5.362   3.171 -1.9636 -1.5529 -0.8197
   55MOL   H19330541   0.879   5.573   3.104 -0.6362 -1.1418 -1.6012
   55MOL   H19430542   0.631   5.544   3.360  0.8314  0.4717 -3.0657
   55MOL   H19530543   0.655   5.409   3.561 -1.1386 -1.3625 -0.1438
   55MOL   H19630544   0.617   4.875   3.597 -0.8033 -0.1415  0.7703
   55MOL   H19730545   0.656   4.661   3.722  0.2768  0.3531 -1.0392
   55MOL   C19830546   0.690   5.629   3.102  0.3910 -0.1499  0.2495
   55MOL   C19930547   0.729   5.724   2.995  0.8406 -0.5607  0.0912
   55MOL   C20030548   0.633   5.828   2.959 -0.4550  0.2138 -0.1718
   55MOL   C20130549   0.669   5.911   2.852 -0.2501 -0.7030  0.0222
   55MOL   C20230550   0.785   5.891   2.773  0.2646  0.8839 -0.5231
   55MOL   C20330551   0.821   5.982   2.663  0.8480 -0.0812 -1.1823
   55MOL   N20430552   0.898   5.931   2.563 -0.3865  0.2982 -0.6497
   55MOL   C20530553   0.962   6.006   2.470  0.0271  0.1213 -0.0591
   55MOL   C20630554   1.021   6.133   2.499  0.0790  0.2399 -0.2592
   55MOL   C20730555   1.109   6.190   2.403 -0.4442 -0.1920  0.0264
   55MOL   C20830556   1.146   6.122   2.284 -0.1669 -0.0477  0.2168
   55MOL   N20930557   1.243   6.179   2.199 -0.0620  0.0782  0.2559
   55MOL   C21030558   1.094   5.992   2.261 -0.6282 -1.0235 -0.2631
   55MOL   C21130559   1.005   5.934   2.350  0.1225 -0.6183 -0.3125
   55MOL   O21230560   0.764   6.090   2.650 -0.6446 -0.0011 -0.1942
   55MOL   C21330561   0.874   5.789   2.812 -0.2457 -0.0839  0.0091
   55MOL   C21430562   0.853   5.713   2.932  0.6176 -0.4626 -0.6810
   55MOL   O21530563   0.569   5.612   3.128 -0.2224  0.0273  0.0342
   55MOL   H21630564   0.538   5.841   3.009  0.0596  0.2749  0.8106
   55MOL   H21730565   0.602   5.989   2.818  1.6802  1.4098  0.9149
   55MOL   H21830566   0.914   5.831   2.564 -0.4554  0.2833 -1.1063
   55MOL   H21930567   1.006   6.186   2.592  2.2768  0.2291  0.1348
   55MOL   H22030568   1.144   6.291   2.415 -1.7387  0.0912  1.6304
   55MOL   H22130569   1.289   6.112   2.140 -1.7060 -1.4855  0.6891
   55MOL   H22230570   1.128   5.946   2.169  0.2745  1.9845 -1.4937
   55MOL   H22330571   0.964   5.839   2.317  0.1944 -0.8401  0.2328
   55MOL   H22430572   0.971   5.781   2.765  0.1831  0.3881  0.7969
   55MOL   H22530573   0.928   5.641   2.960 -1.1634 -2.2299 -0.3526
   55MOL   C22630574   1.287   6.306   2.199  0.0101 -0.3437 -0.7395
   55MOL   C22730575   1.429   6.309   2.155  0.2192 -0.2346 -0.3681
   55MOL   C22830576   1.472   6.417   2.073 -0.2868 -0.0242  1.5190
   55MOL   C22930577   1.611   6.432   2.037 -0.1115  0.2437 -0.4902
   55MOL   C23030578   1.703   6.345   2.091  0.0523  0.0620  0.1011
   55MOL   C23130579   1.848   6.364   2.055 -0.5292 -0.8867 -0.3491
   55MOL   N23230580   1.941   6.295   2.122 -0.1631 -0.1721  0.1504
   55MOL   C23330581   2.072   6.340   2.148 -0.0772 -0.1878 -0.1645
   55MOL   C23430582   2.161   6.239   2.197  0.8924  0.0510  0.3106
   55MOL   C23530583   2.291   6.282   2.240  0.4786  0.4427  0.1778
   55MOL   C23630584   2.333   6.417   2.222  0.0152  0.0053 -0.8460
   55MOL   N23730585   2.464   6.460   2.251  0.0947 -0.0706  0.4921
   55MOL   C23830586   2.246   6.511   2.170  0.1094  0.2206 -0.0001
   55MOL   C23930587   2.114   6.472   2.139  0.3455 -0.3932  0.1390
   55MOL   O24030588   1.881   6.449   1.970 -0.6241 -0.6257 -0.1059
   55MOL   C24130589   1.663   6.242   2.184 -0.2943  0.4054  0.7368
   55MOL   C24230590   1.526   6.222   2.206 -0.0587 -0.0977 -0.3615
   55MOL   O24330591   1.217   6.404   2.201  0.3695 -0.3626 -0.0756
   55MOL   H24430592   1.402   6.484   2.025  0.9943  0.8339  0.7857
   55MOL   H24530593   1.640   6.503   1.962  1.2854  0.9066  0.6507
   55MOL   H24630594   1.902   6.216   2.171 -1.6357 -0.3687 -1.3241
   55MOL   H24730595   2.119   6.140   2.209  0.6575  0.2119  0.8078
   55MOL   H24830596   2.355   6.205   2.280  0.0261  1.9331  4.0198
   55MOL   H24930597   2.508   6.532   2.195 -0.2955 -0.4852 -0.3568
   55MOL   H25030598   2.271   6.616   2.165  1.1026 -0.0848 -1.7803
   55MOL   H25130599   2.048   6.556   2.120  1.3265  0.1849 -0.7686
   55MOL   H25230600   1.729   6.171   2.232  1.0308  0.9872 -0.1812
   55MOL   H25330601   1.494   6.146   2.275  1.9391 -0.1598  0.5234
   55MOL   C25430602   2.535   6.408   2.350 -0.0791 -0.5532  0.2434
   55MOL   C25530603   2.686   6.446   2.359 -0.4564 -0.7479 -0.1900
   55MOL   C25630604   2.753   6.519   2.255 -0.0985  0.0331 -0.3432
   55MOL   C25730605   2.888   6.550   2.269 -0.7111  0.3828  0.1598
   55MOL   C25830606   2.963   6.525   2.386  0.1368  0.1935 -0.3285
   55MOL   C25930607   3.103   6.569   2.407 -0.4839 -0.3406  0.1241
   55MOL   N26030608   3.189   6.541   2.306  0.1881  0.2217  0.5109
   55MOL   C26130609   3.318   6.596   2.276  0.0867 -0.1749 -0.5840
   55MOL   C26230610   3.353   6.587   2.145  0.4305  0.5908  0.1932
   55MOL   C26330611   3.480   6.643   2.108 -0.0636  0.3827 -0.1702
   55MOL   C26430612   3.561   6.710   2.204 -0.5884 -0.3115 -0.2492
   55MOL   N26530613   3.671   6.781   2.151  0.1605 -0.1539  0.2906
   55MOL   C26630614   3.515   6.717   2.339  0.0699 -0.7980  0.0951
   55MOL   C26730615   3.395   6.657   2.383 -0.0674 -0.5299  0.5667
   55MOL   O26830616   3.129   6.640   2.503 -0.1513 -0.1013 -0.1612
   55MOL   C26930617   2.896   6.454   2.488  0.6393  0.0507 -0.4508
   55MOL   C27030618   2.757   6.413   2.476  0.1288 -0.1451  0.3405
   55MOL   O27130619   2.494   6.337   2.442  0.0009 -0.5249  0.1768
   55MOL   H27230620   2.712   6.551   2.161 -0.8739 -1.3479 -0.4907
   55MOL   H27330621   2.933   6.595   2.182 -0.8747  0.7071  0.2433
   55MOL   H27430622   3.157   6.483   2.230  1.6760  0.3637 -0.2530
   55MOL   H27530623   3.291   6.543   2.068  0.6605  1.0529 -0.2673
   55MOL   H27630624   3.511   6.644   2.004  0.9628  0.0723  0.1292
   55MOL   H27730625   3.691   6.766   2.053  1.6341  0.9814  0.3892
   55MOL   H27830626   3.584   6.764   2.409  0.4968  2.7196 -2.5290
   55MOL   H27930627   3.361   6.669   2.485 -0.8592  0.2038  0.2199
   55MOL   H28030628   2.953   6.425   2.575 -0.6689 -0.7580  0.1375
   55MOL   H28130629   2.714   6.346   2.548  0.8856  0.2189  1.1322
   55MOL   C28230630   3.732   6.885   2.211 -0.7989 -0.2163 -0.0901
   55MOL   C28330631   3.806   6.970   2.113  0.0022 -0.3473 -0.0621
   55MOL   C28430632   3.911   7.059   2.157  0.2546 -0.5731  0.0852
   55MOL   C28530633   3.966   7.154   2.066 -0.1021 -0.1827  0.0794
   55MOL   C28630634   3.920   7.154   1.930  0.0733  0.0551  0.6409
   55MOL   C28730635   3.963   7.272   1.845 -0.4120  0.3471 -0.5452
   55MOL   N28830636   3.968   7.263   1.713  0.1041 -0.1425 -0.1359
   55MOL   C28930637   3.972   7.142   1.640 -0.6234 -0.5100  0.4962
   55MOL   C29030638   3.873   7.108   1.544 -0.0817 -0.3690 -0.1817
   55MOL   C29130639   3.892   6.993   1.466  0.2447 -0.4796 -0.0617
   55MOL   C29230640   4.004   6.911   1.485 -0.3407 -0.5688  0.1003
   55MOL   N29330641   4.008   6.802   1.397 -0.3975 -0.0254 -0.1003
   55MOL   C29430642   4.100   6.938   1.582  0.4421  0.0290  0.2479
   55MOL   C29530643   4.087   7.058   1.650 -0.3767  0.2522  0.0028
   55MOL   O29630644   3.992   7.379   1.895 -0.4726  0.1531 -0.2943
   55MOL   C29730645   3.806   7.073   1.892 -0.6776 -0.5808 -0.3106
   55MOL   C29830646   3.758   6.978   1.982 -0.4380  0.2503  0.4461
   55MOL   O29930647   3.751   6.902   2.333  0.3152  0.0638  0.1666
   55MOL   H30030648   3.937   7.052   2.262 -0.4922  1.8774  0.4635
   55MOL   H30130649   4.036   7.231   2.095 -0.2013 -0.4482  1.0509
   55MOL   H30230650   4.003   7.345   1.666  0.3810 -1.0988 -1.6452
   55MOL   H30330651   3.793   7.176   1.520  0.1390  0.2407  0.7892
   55MOL   H30430652   3.819   6.971   1.389  1.3281 -2.0127 -0.6839
   55MOL   H30530653   3.980   6.840   1.308 -1.4895 -0.1583  0.1720
   55MOL   H30630654   4.186   6.873   1.590  2.0656  2.1941  0.9239
   55MOL   H30730655   4.165   7.087   1.719 -0.2787  1.0047 -0.4216
   55MOL   H30830656   3.760   7.073   1.794 -0.6725 -0.4954 -0.3130
   55MOL   H30930657   3.682   6.909   1.948  0.4041 -0.6320  0.3258
   55MOL   C31030658   4.009   6.670   1.420  0.0429  0.3853 -0.7476
   55MOL   C31130659   3.994   6.591   1.293  0.7418 -0.6202  0.6438
   55MOL   C31230660   3.906   6.625   1.187 -0.2158 -0.6445 -0.6326
   55MOL   C31330661   3.873   6.537   1.079  0.3143 -0.4894 -0.3286
   55MOL   C31430662   3.951   6.417   1.076 -0.0494  0.3890 -0.1787
   55MOL   C31530663   3.936   6.322   0.965 -0.0402  0.5293 -0.5064
   55MOL   N31630664   3.823   6.338   0.898  0.2367 -0.5172  0.4962
   55MOL   C31730665   3.764   6.263   0.789  0.0316 -0.6072  0.2677
   55MOL   C31830666   3.627   6.293   0.755  0.7504  0.5563 -0.0640
   55MOL   C31930667   3.564   6.221   0.649 -0.0410 -0.4268 -0.7499
   55MOL   C32030668   3.627   6.127   0.566 -0.0281 -0.6738  0.9439
   55MOL   N32130669   3.571   6.062   0.452  0.0886 -0.4663  0.0274
   55MOL   C32230670   3.767   6.103   0.596 -0.1431 -0.7789 -0.0939
   55MOL   C32330671   3.830   6.172   0.707 -0.2341  0.4526  0.6623
   55MOL   O32430672   4.014   6.232   0.947 -0.2178 -0.1312  0.1049
   55MOL   C32530673   4.051   6.391   1.171  0.3353  0.2981 -0.0684
   55MOL   C32630674   4.067   6.469   1.280  0.3066 -1.0719  0.4967
   55MOL   O32730675   4.016   6.621   1.533 -0.6883 -0.2617  0.2573
   55MOL   H32830676   3.844   6.713   1.193  0.9168  0.0676  0.8260
   55MOL   H32930677   3.805   6.571   1.002 -0.0885 -0.4500  0.0401
   55MOL   H33030678   3.750   6.397   0.934 -0.1549  0.9623 -2.5972
   55MOL   H33130679   3.564   6.365   0.806 -0.4800 -0.6806  0.1965
   55MOL   H33230680   3.460   6.238   0.628 -0.0474 -1.5453 -1.6836
   55MOL   H33330681   3.640   6.024   0.389  0.1307  0.4773 -0.5026
   55MOL   H33430682   3.833   6.049   0.530 -0.9738 -1.7940 -0.1017
   55MOL   H33530683   3.933   6.145   0.725 -0.3000 -1.0291 -1.0975
   55MOL   H33630684   4.105   6.298   1.166  0.1576  0.2195 -0.5189
   55MOL   H33730685   4.134   6.441   1.361  0.5451  0.5040  0.8641
   55MOL   C33830686   3.443   6.018   0.433  0.3094  0.6060  0.7540
   55MOL   C33930687   3.422   5.942   0.307 -0.5026  0.5307 -0.1298
   55MOL   C34030688   3.533   5.898   0.224  0.0430  0.3244  0.0121
   55MOL   C34130689   3.520   5.816   0.111 -0.3862  0.8737  0.3361
   55MOL   C34230690   3.387   5.779   0.074 -0.0065 -0.3191  0.3431
   55MOL   C34330691   3.362   5.687   8.107 -0.1345 -0.6804 -0.2150
   55MOL   N34430692   3.282   5.735   8.008 -0.0162 -0.8599  0.3167
   55MOL   C34530693   3.237   5.672   7.888 -0.4145 -0.5689 -0.4194
   55MOL   C34630694   3.272   5.722   7.764  0.0481 -0.5797 -0.6920
   55MOL   C34730695   3.235   5.651   7.646  0.2501 -0.0208  0.2618
   55MOL   C34830696   3.150   5.540   7.654 -0.2015  0.1905 -0.4949
   55MOL   N34930697   3.111   5.482   7.534  0.2051 -0.1812 -0.1914
   55MOL   C35030698   3.125   5.481   7.785 -0.2631  0.0884  0.0958
   55MOL   C35130699   3.159   5.555   7.900 -0.2635 -0.4127  0.6782
   55MOL   O35230700   3.408   5.569   8.102 -0.2111  0.0658  0.0121
   55MOL   C35330701   3.278   5.817   0.156 -0.2278 -0.1056 -1.0326
   55MOL   C35430702   3.291   5.894   0.269  0.6625  0.2590 -0.3673
   55MOL   O35530703   3.349   6.059   0.507 -0.3987  0.0293  0.0102
   55MOL   H35630704   3.633   5.927   0.253 -0.2409  1.8203 -0.4223
   55MOL   H35730705   3.603   5.780   0.052 -0.7789 -0.7852  0.7666
   55MOL   H35830706   3.259   5.833   8.018  0.1137 -0.6048 -1.6564
   55MOL   H35930707   3.333   5.810   7.747 -0.2062 -0.0774  0.9657
   55MOL   H36030708   3.268   5.698   7.555 -1.2804 -0.2392 -0.4273
   55MOL   H36130709   3.175   5.482   7.455 -2.1465 -2.2660 -2.1926
   55MOL   H36230710   3.085   5.381   7.791  0.7899 -0.3657 -0.2925
   55MOL   H36330711   3.141   5.513   7.998  0.3481  2.3759  2.0421
   55MOL   H36430712   3.180   5.773   0.140 -0.7972  0.2361  1.2278
   55MOL   H36530713   3.200   5.923   0.319  1.9368 -1.4859  3.0991
   55MOL   C36630714   2.997   5.413   7.518  0.3478  0.2426 -0.7088
   55MOL   C36730715   2.988   5.324   7.395 -0.0319 -0.0695  0.0928
   55MOL   C36830716   2.891   5.221   7.386  0.6120 -0.1213  0.5706
   55MOL   C36930717   2.888   5.140   7.270  0.1676 -0.1364 -0.5469
   55MOL   C37030718   2.970   5.162   7.158  0.5901 -0.3866  0.3657
   55MOL   C37130719   2.964   5.073   7.037 -0.5676  0.3491 -0.0549
   55MOL   N37230720   2.867   5.094   6.952 -0.2988  0.1590  0.2747
   55MOL   C37330721   2.781   5.207   6.957 -0.3768  0.2120  0.3661
   55MOL   C37430722   2.831   5.335   6.922  0.1874  0.3188 -0.4054
   55MOL   C37530723   2.763   5.449   6.952 -0.1856 -0.0542 -0.2940
   55MOL   C37630724   2.638   5.440   7.022 -0.3751 -0.2343 -0.2717
   55MOL   N37730725   2.570   5.557   7.057  0.1528 -0.4740  0.3036
   55MOL   C37830726   2.579   5.315   7.051 -0.4950  0.1971  0.5568
   55MOL   C37930727   2.652   5.197   7.016 -0.7221 -0.0334  0.0044
   55MOL   O38030728   3.051   4.983   7.019  0.3974 -0.7808  0.2301
   55MOL   C38130729   3.055   5.278   7.163 -1.3508  0.4554  0.4303
   55MOL   C38230730   3.066   5.354   7.278  0.5534 -0.9036 -0.5801
   55MOL   O38330731   2.909   5.401   7.604 -0.2561  0.0359  0.3183
   55MOL   H38430732   2.814   5.197   7.458  0.7042  0.8439  0.9886
   55MOL   H38530733   2.821   5.055   7.277  0.0291  0.1138  1.3787
   55MOL   H38630734   2.875   5.040   6.867  3.3369  0.0629  0.5959
   55MOL   H38730735   2.929   5.336   6.877  1.1602  0.9913  1.6613
   55MOL   H38830736   2.809   5.543   6.924  0.5966  0.1199  1.5134
   55MOL   H38930737   2.574   5.642   7.002  0.6888 -0.3779  0.4911
   55MOL   H39030738   2.486   5.302   7.104 -2.3570  0.8670 -2.4507
   55MOL   H39130739   2.607   5.102   7.041 -1.5036  0.1832 -0.5798
   55MOL   H39230740   3.109   5.308   7.074 -2.2001 -0.2231 -0.3248
   55MOL   H39330741   3.135   5.437   7.283  0.0842 -0.4937 -0.8982
   55MOL   C39430742   2.518   5.589   7.177 -0.1127 -0.0268  0.1568
   55MOL   C39530743   2.436   5.709   7.204  0.0546  0.6600  0.7137
   55MOL   C39630744   2.379   5.730   7.328  0.0765 -0.1927  0.1297
   55MOL   C39730745   2.323   5.853   7.365 -0.2986  0.2534  0.4309
   55MOL   C39830746   2.303   5.950   7.265  1.0799 -0.4286 -0.8827
   55MOL   C39930747   2.251   6.089   7.297 -0.7121 -0.0748 -0.7820
   55MOL   N40030748   2.212   6.101   7.426 -0.0526  0.0786 -0.6101
   55MOL   C40130749   2.194   6.219   7.503 -0.4366  0.3532  0.2577
   55MOL   C40230750   2.227   6.215   7.638  0.9239  0.3855 -0.1268
   55MOL   C40330751   2.216   6.335   7.713 -0.0749  0.7049 -0.3292
   55MOL   C40430752   2.176   6.454   7.657 -0.2246  0.4373 -0.6026
   55MOL   N40530753   2.178   6.563   7.742  0.0842 -0.0573 -0.1464
   55MOL   C40630754   2.141   6.461   7.522  0.3418  0.0966  0.1327
   55MOL   C40730755   2.146   6.341   7.445 -0.4368  0.3497  0.4755
   55MOL   O40830756   2.253   6.180   7.210 -0.0868  0.1786 -1.0077
   55MOL   C40930757   2.332   5.920   7.127 -0.0510 -0.4706 -0.2446
   55MOL   C41030758   2.411   5.809   7.100 -0.0376  0.2537 -0.0308
   55MOL   O41130759   2.545   5.520   7.275  0.1599 -0.2316  0.0494
   55MOL   H41230760   2.396   5.661   7.409  0.1869  1.7492  1.8009
   55MOL   H41330761   2.313   5.884   7.468  2.1064  2.0500  0.1592
   55MOL   H41430762   2.217   6.016   7.480  2.7433 -0.1706 -1.1558
   55MOL   H41530763   2.251   6.125   7.693 -2.2248  0.8901  2.2392
   55MOL   H41630764   2.246   6.327   7.816 -2.8239  0.1304  0.4683
   55MOL   H41730765   2.227   6.532   7.825 -1.9207 -3.9265 -0.2725
   55MOL   H41830766   2.098   6.547   7.473 -0.6931 -0.7100 -0.3893
   55MOL   H41930767   2.142   6.341   7.337 -1.1214 -0.6743  0.4939
   55MOL   H42030768   2.301   5.985   7.046  1.3793  0.8576  0.2498
   55MOL   H42130769   2.448   5.782   7.003  0.8287 -2.3935  1.0115
   55MOL   C42230770   2.153   6.693   7.727  0.0103 -0.4325 -0.1534
   55MOL   C42330771   2.193   6.780   7.844  0.0723 -0.5994  0.4408
   55MOL   C42430772   2.126   6.902   7.866 -0.1511 -0.0905 -0.2333
   55MOL   C42530773   2.164   7.000   7.961 -0.0907 -0.5645  0.2690
   55MOL   C42630774   2.272   6.965   8.049  0.6489 -0.4214 -0.1462
   55MOL   C42730775   2.334   7.059   0.003  0.0507  0.2416 -0.0665
   55MOL   N42830776   2.282   7.184   0.009 -0.3790  0.0698 -0.5256
   55MOL   C42930777   2.304   7.291   0.099  0.1681 -0.0176  0.3742
   55MOL   C43030778   2.225   7.407   0.090  0.2734  0.6457 -0.5495
   55MOL   C43130779   2.230   7.516   0.181 -0.1026 -0.0905 -0.5130
   55MOL   C43230780   2.318   7.504   0.294  0.3552  0.6044  0.0642
   55MOL   N43330781   2.319   7.607   0.396 -0.1475  0.1370 -0.1697
   55MOL   C43430782   2.408   7.395   0.297  1.0275  0.7107 -0.0443
   55MOL   C43530783   2.399   7.289   0.205 -0.0840  0.1677  0.2266
   55MOL   O43630784   2.423   7.021   0.082  0.1611 -0.5495  0.5872
   55MOL   C43730785   2.341   6.841   8.028 -0.2747 -0.4979  0.2438
   55MOL   C43830786   2.302   6.755   7.926 -0.6574  0.1214  0.1031
   55MOL   O43930787   2.105   6.741   7.619  0.2976  0.2912 -0.0439
   55MOL   H44030788   2.043   6.922   7.800  0.3196 -0.9808 -1.1126
   55MOL   H44130789   2.120   7.098   7.968  4.1715  1.3809  1.6210
   55MOL   H44230790   2.225   7.200   8.074  0.0281  2.3496 -0.4131
   55MOL   H44330791   2.146   7.415   0.018 -1.0847  0.0087  0.8294
   55MOL   H44430792   2.164   7.601   0.176 -0.5724 -0.3993  0.3376
   55MOL   H44530793   2.349   7.695   0.357 -1.4101  0.5613 -0.1884
   55MOL   H44630794   2.490   7.398   0.367  0.2807 -0.0304  0.8874
   55MOL   H44730795   2.475   7.213   0.207  1.2045  1.3454 -1.8722
   55MOL   H44830796   2.426   6.816   8.091  1.0070  0.7265 -0.9711
   55MOL   H44930797   2.358   6.665   7.911 -1.3709 -0.3886  0.4671
   55MOL   C45030798   2.326   7.594   0.529 -0.4409  0.3628  0.6600
   55MOL   C45130799   2.365   7.714   0.600 -0.6879  0.1474 -0.2146
   55MOL   C45230800   2.309   7.746   0.726 -0.0823  0.5499  0.5941
   55MOL   C45330801   2.362   7.845   0.805  0.3336 -0.5937 -0.4185
   55MOL   C45430802   2.468   7.919   0.759  0.3796  0.1657 -0.0625
   55MOL   C45530803   2.517   8.027   0.845 -0.9596 -0.6386  0.5740
   55MOL   N45630804   2.441   8.132   0.887 -0.7257  0.4477 -0.6056
   55MOL   C45730805   2.471   0.094   0.975 -0.7941  0.6625  0.3521
   55MOL   C45830806   2.359   0.139   1.045 -0.9233  0.1927 -0.4837
   55MOL   C45930807   2.375   0.251   1.127  0.4180  0.2099  0.2638
   55MOL   C46030808   2.499   0.320   1.140 -0.0020 -0.1046 -0.4811
   55MOL   N46130809   2.515   0.437   1.215 -0.1229  0.4286 -0.4343
   55MOL   C46230810   2.610   0.266   1.073 -0.0046  0.1970  0.3741
   55MOL   C46330811   2.593   0.156   0.991  0.2871 -0.0023  0.2261
   55MOL   O46430812   2.642   8.025   0.857 -0.5262  0.1628 -0.3059
   55MOL   C46530813   2.533   7.891   0.637  0.2990  0.3753 -0.6993
   55MOL   C46630814   2.476   7.793   0.553 -0.4745 -0.4396  0.5021
   55MOL   O46730815   2.286   7.492   0.596 -0.0612  0.1324  0.4501
   55MOL   H46830816   2.224   7.691   0.764  0.5474 -0.8974 -0.0472
   55MOL   H46930817   2.296   7.873   0.886 -1.1243 -0.6717 -1.5576
   55MOL   H47030818   2.344   8.129   0.856 -0.4407  3.7380 -2.0769
   55MOL   H47130819   2.259   0.101   1.029  0.0150 -2.6551  0.0749
   55MOL   H47230820   2.290   0.293   1.179  0.3672  0.2218  0.1715
   55MOL   H47330821   2.566   0.431   1.301 -3.4128  1.0776  1.6448
   55MOL   H47430822   2.706   0.314   1.077  0.5120 -0.3151 -3.5946
   55MOL   H47530823   2.674   0.113   0.934  0.8273  0.4163  0.6709
   55MOL   H47630824   2.623   7.935   0.599  0.7551 -0.1508 -0.2341
   55MOL   H47730825   2.522   7.776   0.456  0.4215 -0.2344  0.8958
   55MOL   C47830826   2.518   0.563   1.167 -0.1657  0.1361  0.2772
   55MOL   C47930827   2.469   0.603   1.035 -0.5309  0.6505  0.1666
   55MOL   C48030828   2.372   0.705   1.028 -0.1610 -0.7206 -0.0079
   55MOL   C48130829   2.325   0.747   0.898  0.5782  0.3393  0.1760
   55MOL   C48230830   2.376   0.682   0.782 -0.6801  0.2382 -0.6533
   55MOL   C48330831   2.325   0.723   0.646  0.8445 -0.4699 -0.6573
   55MOL   N48430832   2.287   0.611   0.577  0.3255 -0.5192 -0.1339
   55MOL   C48530833   2.216   0.607   0.456 -0.4307 -0.4295  0.6086
   55MOL   C48630834   2.112   0.509   0.447 -0.3987 -0.2213 -0.2042
   55MOL   C48730835   2.048   0.493   0.318  0.5279 -0.3245  0.1391
   55MOL   C48830836   2.081   0.575   0.205  0.0337  0.0531  0.6117
   55MOL   N48930837   2.026   0.547   0.076 -0.4712  0.3461 -0.5436
   55MOL   C49030838   2.186   0.670   0.220 -0.2052 -0.5644  0.7749
   55MOL   C49130839   2.257   0.680   0.346 -0.2352 -1.0382  0.7843
   55MOL   O49230840   2.317   0.840   0.606 -0.1035  0.1378 -0.3800
   55MOL   C49330841   2.471   0.578   0.791  0.1257 -0.4380  0.1840
   55MOL   C49430842   2.507   0.536   0.919  0.4090  0.0846 -0.3033
   55MOL   O49530843   2.556   0.653   1.235  0.2846  0.3280 -0.0053
   55MOL   H49630844   2.344   0.751   1.122  1.4426  1.4075 -0.5175
   55MOL   H49730845   2.248   0.821   0.885 -0.7442 -1.1772 -0.8234
   55MOL   H49830846   2.279   0.528   0.634  1.3176 -0.8441 -0.4564
   55MOL   H49930847   2.092   0.435   0.522  1.5600 -0.1783  0.3599
   55MOL   H50030848   1.987   0.405   0.306 -0.3731  0.2859  0.2495
   55MOL   H50130849   2.093   0.553   0.001  1.8398  2.4651  1.5721
   55MOL   H50230850   2.208   0.735   0.137  2.8139 -1.4884  0.8011
   55MOL   H50330851   2.332   0.757   0.356  0.0726 -1.4462  1.6615
   55MOL   H50430852   2.515   0.540   0.701  0.6625  1.1280 -0.2421
   55MOL   H50530853   2.585   0.462   0.914  0.1864 -0.1075 -0.9370
   55MOL   C50630854   1.903   0.500   0.050 -0.2884  0.4534  0.3529
   55MOL   C50730855   1.882   0.442   8.067 -0.6286 -0.2070  0.7087
   55MOL   C50830856   1.968   0.466   7.959 -0.4042  0.2614  0.2543
   55MOL   C50930857   1.930   0.418   7.826 -0.1892 -1.4209 -0.4781
   55MOL   C51030858   1.808   0.352   7.800 -0.9180  0.0936  0.0467
   55MOL   C51130859   1.770   0.323   7.661 -0.8534  0.0157  1.1883
   55MOL   N51230860   1.696   0.212   7.643  0.2900  0.5330  0.6345
   55MOL   C51330861   1.649   0.137   7.531  0.4981  0.5734 -0.0952
   55MOL   C51430862   1.673   0.179   7.398  0.3917 -0.7097 -0.4290
   55MOL   C51530863   1.624   0.106   7.288  0.9585  0.0412 -0.2637
   55MOL   C51630864   1.563   8.126   7.313 -0.1553 -0.0912  0.5568
   55MOL   N51730865   1.518   8.033   7.215 -0.0203 -0.2329  0.1523
   55MOL   C51830866   1.539   8.086   7.447  0.5013  0.6569 -0.0234
   55MOL   C51930867   1.583   0.016   7.557 -0.0621  0.2987 -0.2088
   55MOL   O52030868   1.811   0.396   7.572  0.6420 -1.0147  0.1979
   55MOL   C52130869   1.732   0.310   7.910 -0.0452  0.4561 -0.5792
   55MOL   C52230870   1.771   0.350   8.042  0.6701 -0.2189  0.0670
   55MOL   O52330871   1.810   0.513   0.132  0.5351 -0.0118  0.4559
   55MOL   H52430872   2.054   0.528   7.978 -1.1556  0.8381  1.9189
   55MOL   H52530873   1.997   0.442   7.744  1.5352  1.6228  1.6942
   55MOL   H52630874   1.667   0.173   7.732  0.7542  2.8077  1.8179
   55MOL   H52730875   1.727   0.271   7.385  0.0191 -0.4364 -0.0487
   55MOL   H52830876   1.631   0.141   7.186 -1.5051  0.2462 -0.3963
   55MOL   H52930877   1.448   7.966   7.244 -0.3069 -0.7037 -1.5768
   55MOL   H53030878   1.488   7.995   7.471 -1.4732  1.0580 -2.4735
   55MOL   H53130879   1.560   8.133   7.658  1.4226  0.6275  0.2249
   55MOL   H53230880   1.641   0.252   7.901  0.2628 -0.3469  1.3607
   55MOL   H53330881   1.699   0.342   8.122  1.1181  2.5357  0.7882
   55MOL   C53430882   1.568   8.013   7.086  0.1632  0.2957 -0.1507
   55MOL   C53530883   1.497   7.913   6.990  0.0764  0.0727 -0.5779
   55MOL   C53630884   1.553   7.886   6.859  0.0297  1.0165 -0.1454
   55MOL   C53730885   1.480   7.803   6.770 -0.1317 -0.1134  0.1208
   55MOL   C53830886   1.360   7.739   6.806  0.3178  0.3310 -0.0747
   55MOL   C53930887   1.290   7.650   6.711  0.1521  0.1711 -0.1461
   55MOL   N54030888   1.154   7.649   6.709 -0.0953  0.3221  0.1995
   55MOL   C54130889   1.069   7.566   6.634 -0.3676 -0.8801  0.1973
   55MOL   C54230890   0.939   7.615   6.613  0.5462  0.5566  0.4520
   55MOL   C54330891   0.836   7.535   6.562 -0.0280 -0.5879  0.1030
   55MOL   C54430892   0.852   7.403   6.535  0.0140  0.2335  0.8083
   55MOL   N54530893   0.745   7.314   6.507 -0.4498 -0.7713  0.2382
   55MOL   C54630894   0.979   7.347   6.562  0.0695 -0.1819  0.4175
   55MOL   C54730895   1.092   7.431   6.602  0.3396  0.8594  0.0684
   55MOL   O54830896   1.360   7.581   6.636  0.8216  0.5734  0.4075
   55MOL   C54930897   1.302   7.774   6.929  0.1589  0.0273 -0.0706
   55MOL   C55030898   1.376   7.855   7.016  0.0641 -0.6687 -0.7120
   55MOL   O55130899   1.659   8.083   7.040  0.3156  0.4948 -0.0068
   55MOL   H55230900   1.653   7.920   6.841  0.1783  0.6082 -0.0947
   55MOL   H55330901   1.505   7.772   6.669 -2.7814 -1.8655 -0.0557
   55MOL   H55430902   1.106   7.723   6.758  0.6941  0.5373  0.6661
   55MOL   H55530903   0.899   7.710   6.644 -0.1299  0.5305 -0.3263
   55MOL   H55630904   0.739   7.580   6.545 -0.3221  0.1668  3.4116
   55MOL   H55730905   0.771   7.217   6.498 -0.7367 -0.8715  0.4771
   55MOL   H55830906   0.979   7.241   6.544 -0.0956  0.0424 -0.9509
   55MOL   H55930907   1.185   7.380   6.616 -0.7947 -1.4100 -0.4172
   55MOL   H56030908   1.219   7.721   6.975  1.4156 -1.3855  0.6085
   55MOL   H56130909   1.341   7.863   7.118 -0.3036  2.0488 -1.0176
   55MOL   H56230910   0.683   7.313   6.586 -1.1697  2.3614 -0.2303
   56MOL     C130911   5.570   7.228   5.508  0.2997 -0.3612  0.0328
   56MOL     C230912   5.540   7.130   5.398 -0.1893 -0.5832  0.5738
   56MOL     C330913   5.477   7.181   5.281  0.3938  0.3980  0.4225
   56MOL     C430914   5.445   7.093   5.177  0.1366 -0.5798 -0.0263
   56MOL     C530915   5.479   6.957   5.182  0.3941  0.3473 -0.2771
   56MOL     C630916   5.446   6.874   5.063 -0.4405  0.3277  0.6094
   56MOL     N730917   5.351   6.934   4.991  0.2582 -0.0411  0.7756
   56MOL     C830918   5.300   6.910   4.860 -0.1028  0.1388  0.4794
   56MOL     C930919   5.315   6.788   4.789 -0.0347  0.5764 -0.4381
   56MOL    C1030920   5.258   6.770   4.661 -0.0603  0.2694  0.0938
   56MOL    C1130921   5.193   6.877   4.608  0.4625 -0.5370  0.2469
   56MOL    N1230922   5.114   6.870   4.493 -0.0378  0.0576  0.5870
   56MOL    C1330923   5.186   7.003   4.664 -0.7645  0.0173  0.5950
   56MOL    C1430924   5.247   7.018   4.789 -0.0971  0.0101  0.4198
   56MOL    O1530925   5.507   6.771   5.043 -0.0250 -1.2383  0.6779
   56MOL    C1630926   5.546   6.903   5.296 -0.1430  0.4371  0.0006
   56MOL    C1730927   5.575   6.987   5.403 -0.1552  0.2086  0.0391
   56MOL    O1830928   5.622   7.191   5.616  0.4203 -0.8707  0.3538
   56MOL    H1930929   5.450   7.285   5.266 -1.9915 -0.2894 -0.3748
   56MOL    H2030930   5.397   7.136   5.091 -1.2514  1.5415  1.7600
   56MOL    H2130931   5.306   7.016   5.029 -0.1819  1.9372 -3.7308
   56MOL    H2230932   5.374   6.709   4.833  0.0319  1.3767  0.9552
   56MOL    H2330933   5.262   6.679   4.602 -3.2412 -0.1473  0.3946
   56MOL    H2430934   5.098   6.954   4.440  0.8702 -1.3447 -2.0193
   56MOL    H2530935   5.145   7.086   4.608 -2.2967 -0.9170  0.2779
   56MOL    H2630936   5.267   7.115   4.830  1.9684 -1.1216  2.2371
   56MOL    H2730937   5.577   6.800   5.309  2.3920  1.0687 -0.6469
   56MOL    H2830938   5.625   6.951   5.491  0.8855  2.9557  0.6069
   56MOL    H2930939   5.528   7.327   5.491 -0.9345 -1.5691 -4.7048
   56MOL    C3030940   5.055   6.770   4.428  0.3477 -0.0789  0.1095
   56MOL    C3130941   4.971   6.815   4.309 -0.8726 -0.3156  0.7873
   56MOL    C3230942   4.973   6.755   4.184  0.2066  0.5544  0.2446
   56MOL    C3330943   4.881   6.785   4.087 -0.2212 -0.0042 -0.1409
   56MOL    C3430944   4.774   6.872   4.119 -0.1040 -0.2400  0.5265
   56MOL    C3530945   4.677   6.915   4.015  0.7712  0.5626 -0.6594
   56MOL    N3630946   4.552   6.939   4.053 -0.1964  0.6381  0.0440
   56MOL    C3730947   4.430   6.941   3.973 -1.0035  0.0502  0.0150
   56MOL    C3830948   4.430   6.903   3.836 -0.3976  0.1632  0.6350
   56MOL    C3930949   4.310   6.883   3.764 -0.0088  0.1245 -0.5341
   56MOL    C4030950   4.189   6.921   3.826 -0.2633 -0.3848 -0.6588
   56MOL    N4130951   4.064   6.909   3.766  0.2954  0.6051  0.4783
   56MOL    C4230952   4.192   6.971   3.964  0.4763 -0.3942 -0.1881
   56MOL    C4330953   4.317   6.987   4.034  0.7991  0.1894 -0.6531
   56MOL    O4430954   4.718   6.944   3.903 -0.0808  0.4114 -0.1742
   56MOL    C4530955   4.786   6.944   4.242  0.3006 -0.2865  0.2255
   56MOL    C4630956   4.880   6.913   4.335 -0.1905 -1.0770  0.7436
   56MOL    O4730957   5.053   6.655   4.463  0.0038 -0.0356 -0.1066
   56MOL    H4830958   5.038   6.670   4.166  0.8391  0.4078  2.8619
   56MOL    H4930959   4.879   6.744   3.987  0.0181 -0.9707  0.2448
   56MOL    H5030960   4.535   6.949   4.152 -2.4762 -3.6227  0.2157
   56MOL    H5130961   4.520   6.857   3.799 -0.6189  0.5781 -0.4337
   56MOL    H5230962   4.311   6.831   3.669  0.6889 -0.8829  0.0125
   56MOL    H5330963   3.997   6.968   3.812  0.3772  2.0423 -1.2105
   56MOL    H5430964   4.101   6.985   4.021 -0.4006 -2.2719 -1.0699
   56MOL    H5530965   4.305   7.015   4.138 -1.0608  0.1987 -0.8562
   56MOL    H5630966   4.715   7.020   4.271  2.2798  1.2417  1.1310
   56MOL    H5730967   4.874   6.960   4.433  0.5444 -0.3603  0.4506
   56MOL    C5830968   4.030   6.853   3.648  0.0233 -0.3321  0.1558
   56MOL    C5930969   3.885   6.877   3.608 -0.4401  0.3337 -0.0676
   56MOL    C6030970   3.824   7.000   3.652  0.8579  0.0994  0.0066
   56MOL    C6130971   3.692   7.022   3.609  0.1580 -0.2725 -0.4362
   56MOL    C6230972   3.629   6.936   3.517 -0.2281  0.2727  0.0042
   56MOL    C6330973   3.489   6.965   3.476 -0.3853  0.4857  0.6529
   56MOL    N6430974   3.460   6.965   3.344 -0.4432  0.3054 -0.0314
   56MOL    C6530975   3.339   6.990   3.277 -0.2895 -0.5071 -0.5186
   56MOL    C6630976   3.353   6.998   3.135  0.1545 -0.2079  0.0952
   56MOL    C6730977   3.236   7.004   3.058  0.7441  0.0493  0.6662
   56MOL    C6830978   3.104   7.006   3.118  0.4674  0.1931 -0.1427
   56MOL    N6930979   2.991   7.031   3.034 -0.4147 -0.1616 -0.0948
   56MOL    C7030980   3.092   6.983   3.258  0.3198 -0.4206  0.3823
   56MOL    C7130981   3.206   6.978   3.338 -0.6984  0.1164  0.0106
   56MOL    O7230982   3.411   6.992   3.563 -0.5094  0.1201  0.4640
   56MOL    C7330983   3.701   6.830   3.466 -0.4298  0.5571 -0.6293
   56MOL    C7430984   3.828   6.799   3.510 -0.3573  0.4626  0.4506
   56MOL    O7530985   4.099   6.790   3.568 -0.2138  0.0805  0.4078
   56MOL    H7630986   3.870   7.075   3.714 -0.9625  0.2710  1.1873
   56MOL    H7730987   3.634   7.103   3.651  0.4266 -0.2537 -0.0985
   56MOL    H7830988   3.536   6.945   3.280 -0.5441 -0.7196  0.1652
   56MOL    H7930989   3.448   7.012   3.086  0.2477  0.4956  0.4681
   56MOL    H8030990   3.240   7.020   2.951 -3.1223  1.1281  0.6049
   56MOL    H8130991   3.009   7.098   2.961 -1.3768 -1.9227 -1.9859
   56MOL    H8230992   2.991   6.976   3.295  0.9588 -1.9724  1.9194
   56MOL    H8330993   3.196   6.955   3.443 -1.5626 -1.5366 -0.4256
   56MOL    H8430994   3.654   6.753   3.407  2.4218 -1.3610 -0.4663
   56MOL    H8530995   3.870   6.718   3.452 -3.2527  0.1982 -1.3959
   56MOL    C8630996   2.871   6.971   3.038 -0.0845  1.0883  0.0191
   56MOL    C8730997   2.765   7.020   2.941 -0.8626 -0.4153 -0.3998
   56MOL    C8830998   2.649   6.943   2.926  0.1210 -0.3405 -1.0816
   56MOL    C8930999   2.550   6.983   2.833  0.1417 -0.3609  0.4409
   56MOL    C9031000   2.569   7.099   2.757  0.7335 -0.2200  0.2137
   56MOL    C9131001   2.466   7.148   2.659 -0.4247  0.0602 -0.2821
   56MOL    N9231002   2.349   7.100   2.665  0.2429 -0.4382 -0.7717
   56MOL    C9331003   2.229   7.133   2.593  0.6593  0.2481  0.1464
   56MOL    C9431004   2.213   7.255   2.523 -1.2882  0.2294  0.1319
   56MOL    C9531005   2.091   7.280   2.467  0.6729  0.0404  0.4638
   56MOL    C9631006   1.980   7.191   2.484  0.2875  0.6885  0.0181
   56MOL    N9731007   1.856   7.216   2.417  0.6286  0.1001  0.6320
   56MOL    C9831008   2.000   7.063   2.549  0.5045 -0.8879 -0.5568
   56MOL    C9931009   2.123   7.037   2.603 -0.3430 -0.1764 -0.7590
   56MOL   O10031010   2.500   7.232   2.572 -0.1651  0.1206  0.0906
   56MOL   C10131011   2.688   7.174   2.768  0.4007 -0.4530 -0.3488
   56MOL   C10231012   2.788   7.141   2.867  0.2276  0.0438 -0.1491
   56MOL   O10331013   2.856   6.866   3.101 -0.1590  0.2529 -0.3886
   56MOL   H10431014   2.636   6.845   2.972 -0.5036  0.4231  0.4109
   56MOL   H10531015   2.469   6.912   2.829  3.2236 -4.0945  1.4249
   56MOL   H10631016   2.344   7.025   2.732 -0.4690  0.9044  0.7013
   56MOL   H10731017   2.289   7.333   2.519 -0.0784 -0.9015  0.7995
   56MOL   H10831018   2.082   7.379   2.425  0.3326  0.2384  0.9913
   56MOL   H10931019   1.802   7.134   2.394  2.0976 -1.0645  1.2615
   56MOL   H11031020   1.914   6.997   2.554  1.2373 -2.0090 -2.4262
   56MOL   H11131021   2.131   6.946   2.661  0.2401  0.7007  0.5740
   56MOL   H11231022   2.712   7.258   2.704  0.0949  0.0197  0.1555
   56MOL   H11331023   2.886   7.187   2.872  1.1729 -1.9430  0.4263
   56MOL   C11431024   1.800   7.335   2.379  0.1396  1.1961  0.2116
   56MOL   C11531025   1.668   7.324   2.305 -0.5184 -0.3942 -0.0868
   56MOL   C11631026   1.597   7.200   2.291 -0.1266 -0.2014  0.1474
   56MOL   C11731027   1.487   7.195   2.209  0.1171  0.3641  0.2381
   56MOL   C11831028   1.449   7.306   2.135 -0.5351 -0.1526  0.0612
   56MOL   C11931029   1.364   7.295   2.012  0.2187  0.1755  0.4250
   56MOL   N12031030   1.433   7.261   1.898 -0.5533 -0.1009  0.5932
   56MOL   C12131031   1.573   7.246   1.888 -0.2255 -0.4511  0.8335
   56MOL   C12231032   1.647   7.357   1.847 -0.4087  0.5896 -0.6152
   56MOL   C12331033   1.787   7.353   1.875 -0.2465 -0.4922  0.4199
   56MOL   C12431034   1.844   7.244   1.942 -0.5044  0.1333  0.2387
   56MOL   N12531035   1.988   7.254   1.977  0.2561 -0.3653 -0.7807
   56MOL   C12631036   1.765   7.134   1.977 -0.7058 -0.7402 -0.2790
   56MOL   C12731037   1.626   7.135   1.949 -0.1032  0.2727 -0.1153
   56MOL   O12831038   1.243   7.320   2.027  0.1993 -0.4773  0.4474
   56MOL   C12931039   1.508   7.429   2.168 -1.0942  0.1777  0.4602
   56MOL   C13031040   1.613   7.443   2.260 -0.1084  0.3726  0.1650
   56MOL   O13131041   1.852   7.444   2.399  0.1469  0.1631  0.6934
   56MOL   H13231042   1.633   7.105   2.329  0.2786 -0.5241 -1.0362
   56MOL   H13331043   1.462   7.092   2.187 -1.1563  0.6850  0.1321
   56MOL   H13431044   1.382   7.279   1.812 -0.0786  0.3630  0.4075
   56MOL   H13531045   1.609   7.451   1.809 -0.5679 -0.6957 -3.8245
   56MOL   H13631046   1.846   7.441   1.850  0.5205 -1.0961  0.0738
   56MOL   H13731047   2.024   7.170   2.019 -0.0494 -1.1851 -2.1339
   56MOL   H13831048   1.808   7.051   2.032  0.4273  0.7996  1.2260
   56MOL   H13931049   1.563   7.052   1.975  0.8947 -0.0073  1.4961
   56MOL   H14031050   1.473   7.520   2.121  1.9643  1.4625  0.4725
   56MOL   H14131051   1.657   7.538   2.286 -0.6076  0.7904 -0.4871
   56MOL   C14231052   2.085   7.344   1.949  0.1838 -0.1664 -0.3357
   56MOL   C14331053   2.223   7.313   2.002 -0.1400  0.0074  0.3921
   56MOL   C14431054   2.331   7.316   1.915 -0.1791 -0.4968 -0.5670
   56MOL   C14531055   2.456   7.284   1.968 -0.4823 -0.9642 -0.1204
   56MOL   C14631056   2.479   7.250   2.101 -0.7574  0.7964  0.0753
   56MOL   C14731057   2.607   7.182   2.142  0.2640  0.6656  0.0317
   56MOL   N14831058   2.654   7.204   2.266  0.8051 -0.1639 -0.1112
   56MOL   C14931059   2.762   7.152   2.342 -0.1748  1.0296 -1.0084
   56MOL   C15031060   2.839   7.038   2.306  1.2746  0.4843 -0.1628
   56MOL   C15131061   2.952   7.000   2.380 -0.0331 -0.4337  0.0152
   56MOL   C15231062   2.992   7.073   2.493 -0.1955 -0.0615 -0.0398
   56MOL   N15331063   3.117   7.045   2.546  0.2005  0.7319  0.2192
   56MOL   C15431064   2.929   7.195   2.527 -0.0601 -0.8091  0.4585
   56MOL   C15531065   2.807   7.227   2.463 -0.3324  0.6453 -0.0138
   56MOL   O15631066   2.660   7.107   2.059 -0.4103 -0.3801 -0.2955
   56MOL   C15731067   2.368   7.256   2.188  0.5305  0.4252  0.1510
   56MOL   C15831068   2.236   7.284   2.140  0.2140 -0.9329 -0.1578
   56MOL   O15931069   2.073   7.440   1.881  0.1611 -0.0006 -0.1307
   56MOL   H16031070   2.320   7.345   1.812  2.6592  1.1291 -0.4676
   56MOL   H16131071   2.537   7.276   1.897  0.1695  1.1590  0.3431
   56MOL   H16231072   2.600   7.268   2.323 -0.6841  0.9781 -2.6898
   56MOL   H16331073   2.810   6.979   2.220  2.0605 -0.6252  0.3383
   56MOL   H16431074   3.005   6.908   2.360  0.3674 -0.5548  1.5669
   56MOL   H16531075   3.189   7.009   2.484 -1.3720 -0.6132 -0.8807
   56MOL   H16631076   2.966   7.256   2.608 -0.3920 -0.0237  0.0210
   56MOL   H16731077   2.743   7.312   2.484 -2.3526 -0.8295 -0.1227
   56MOL   H16831078   2.368   7.223   2.291 -1.9483 -1.2057 -0.3329
   56MOL   H16931079   2.148   7.279   2.201  0.6720  2.9612  0.9220
   56MOL   C17031080   3.156   7.072   2.673  0.1225 -0.1173  0.7808
   56MOL   C17131081   3.299   7.069   2.698  0.1519  0.0935 -0.1629
   56MOL   C17231082   3.380   6.960   2.655  0.3130 -0.4733  0.3566
   56MOL   C17331083   3.519   6.965   2.673 -0.3958  0.1243  0.3278
   56MOL   C17431084   3.576   7.069   2.747 -0.3361 -0.3568  0.5153
   56MOL   C17531085   3.723   7.063   2.777  0.2726  0.3193 -0.8265
   56MOL   N17631086   3.774   7.177   2.825 -0.2183 -0.0006 -0.3687
   56MOL   C17731087   3.902   7.207   2.871 -0.1301  0.0560 -0.4228
   56MOL   C17831088   4.019   7.190   2.796  0.4098 -0.9851 -0.2616
   56MOL   C17931089   4.142   7.228   2.843  0.1334 -0.6410 -0.0109
   56MOL   C18031090   4.150   7.283   2.969  0.3745  0.0531 -0.3366
   56MOL   N18131091   4.272   7.328   3.027 -0.1742  0.0478  0.9799
   56MOL   C18231092   4.032   7.308   3.047  0.2571  0.0244 -0.4015
   56MOL   C18331093   3.910   7.261   3.001  0.4391 -0.9770 -0.7152
   56MOL   O18431094   3.798   6.968   2.755 -0.1281  0.1923 -0.1953
   56MOL   C18531095   3.497   7.169   2.800  0.9098 -0.3813 -0.2450
   56MOL   C18631096   3.360   7.172   2.776 -0.5356  0.2456 -0.2335
   56MOL   O18731097   3.078   7.098   2.761  0.3087 -0.3160 -0.3894
   56MOL   H18831098   3.339   6.871   2.609 -1.7083 -0.0279  1.2629
   56MOL   H18931099   3.573   6.877   2.642 -1.1545 -0.0446 -0.5260
   56MOL   H19031100   3.698   7.223   2.873  0.9199 -0.2442  1.7169
   56MOL   H19131101   4.011   7.142   2.699 -0.2588 -1.6083  0.0970
   56MOL   H19231102   4.224   7.212   2.774 -1.2816 -2.0944 -1.4207
   56MOL   H19331103   4.282   7.312   3.126  1.5450 -0.8572  0.6679
   56MOL   H19431104   4.030   7.333   3.152 -1.1361 -0.5091 -0.2893
   56MOL   H19531105   3.816   7.270   3.054  3.0726 -0.7626  4.1902
   56MOL   H19631106   3.539   7.243   2.867 -0.4103 -0.0278  0.2061
   56MOL   H19731107   3.299   7.253   2.812 -0.4632 -0.6738  2.0841
   56MOL   C19831108   4.372   7.393   2.964  0.1198 -0.3982 -0.1983
   56MOL   C19931109   4.451   7.477   3.065 -0.0012 -0.2286  0.4418
   56MOL   C20031110   4.401   7.523   3.189  0.8767 -0.0766 -0.7359
   56MOL   C20131111   4.482   7.593   3.278 -0.3489  0.5860 -0.2733
   56MOL   C20231112   4.614   7.632   3.242 -0.7814 -0.8197 -0.0594
   56MOL   C20331113   4.705   7.704   3.337 -0.7523 -0.1634  0.0952
   56MOL   N20431114   4.648   7.791   3.421 -0.6555 -0.1578  0.1208
   56MOL   C20531115   4.700   7.848   3.539 -0.1119 -0.7444 -0.1798
   56MOL   C20631116   4.623   7.855   3.656 -1.2342 -0.4692  0.2084
   56MOL   C20731117   4.667   7.932   3.766 -0.2221 -0.3580 -0.5419
   56MOL   C20831118   4.799   7.987   3.766  0.4525  0.1786 -0.1292
   56MOL   N20931119   4.843   8.048   3.884 -0.4357  0.2620 -1.0339
   56MOL   C21031120   4.879   7.974   3.650 -0.1476 -0.4302  0.2958
   56MOL   C21131121   4.828   7.910   3.533  0.2882 -0.8523  0.4471
   56MOL   O21231122   4.829   7.676   3.337  0.1908  0.0289  0.0170
   56MOL   C21331123   4.660   7.591   3.115 -0.4851 -0.0291  0.2651
   56MOL   C21431124   4.579   7.525   3.025 -0.3292  0.1147 -0.8229
   56MOL   O21531125   4.408   7.387   2.845 -0.2022 -0.1052 -0.0815
   56MOL   H21631126   4.304   7.494   3.228  1.0826 -1.5431 -1.2726
   56MOL   H21731127   4.435   7.609   3.373  1.5248 -1.9574  1.1492
   56MOL   H21831128   4.552   7.809   3.397 -0.9144 -0.6625  0.7754
   56MOL   H21931129   4.525   7.811   3.653 -1.9352  1.0912 -1.1923
   56MOL   H22031130   4.604   7.937   3.854 -1.4769 -0.3838 -1.4343
   56MOL   H22131131   4.880   8.142   3.882  1.4611 -0.4240 -0.0530
   56MOL   H22231132   4.979   8.014   3.649  0.5455 -2.1363 -0.1800
   56MOL   H22331133   4.891   7.906   3.445 -0.9002  1.0074 -0.5235
   56MOL   H22431134   4.757   7.630   3.091  0.3388 -0.9034  2.1003
   56MOL   H22531135   4.618   7.501   2.927 -1.2925 -0.8389 -0.9848
   56MOL   C22631136   4.850   7.989   4.004  0.5331  0.4191  0.7449
   56MOL   C22731137   4.865   8.085   4.123 -0.4182 -0.5457  0.0133
   56MOL   C22831138   4.832   8.029   4.248 -0.1712  0.0636  0.4551
   56MOL   C22931139   4.834   8.122   4.356  0.2523 -0.4333 -0.4931
   56MOL   C23031140   4.865   0.114   4.343 -0.7660  0.0314 -0.3756
   56MOL   C23131141   4.872   0.210   4.455 -0.0229  0.1092  0.7265
   56MOL   N23231142   4.834   0.342   4.435  0.6180  0.2079  0.0045
   56MOL   C23331143   4.729   0.387   4.362 -0.2427 -0.2933 -0.0246
   56MOL   C23431144   4.762   0.498   4.278  0.2440 -0.3654 -0.2943
   56MOL   C23531145   4.661   0.551   4.190 -0.1969 -0.2304 -0.3171
   56MOL   C23631146   4.541   0.483   4.176  0.4566 -0.2161  0.3306
   56MOL   N23731147   4.452   0.511   4.074  0.7571 -0.6539  0.2680
   56MOL   C23831148   4.508   0.382   4.268 -0.5608  0.3313  0.2169
   56MOL   C23931149   4.598   0.332   4.359 -0.3977 -0.1708  0.5137
   56MOL   O24031150   4.902   0.163   4.565  0.0071  0.3180 -0.1341
   56MOL   C24131151   4.889   0.159   4.214 -0.8354 -0.0522  0.7350
   56MOL   C24231152   4.905   0.074   4.108  0.5720  0.2934  0.4798
   56MOL   O24331153   4.841   7.865   4.017  0.0626 -0.2602  0.1805
   56MOL   H24431154   4.814   7.925   4.272 -2.9673 -0.1041 -2.0021
   56MOL   H24531155   4.808   8.083   4.453  0.0997  0.6520 -0.0916
   56MOL   H24631156   4.881   0.415   4.487  0.7707  0.2320 -0.1668
   56MOL   H24731157   4.859   0.546   4.274 -1.3634  2.9796 -1.1756
   56MOL   H24831158   4.677   0.633   4.121  0.9553 -1.7815 -1.9426
   56MOL   H24931159   4.369   0.454   4.078 -0.3589  0.9321  0.1192
   56MOL   H25031160   4.409   0.340   4.269  0.3219 -1.8400  2.9293
   56MOL   H25131161   4.560   0.253   4.423 -0.4270 -1.6951 -1.3331
   56MOL   H25231162   4.919   0.261   4.193 -1.1209  0.4861  2.7845
   56MOL   H25331163   4.941   0.103   4.010  2.2550  3.7738  2.0493
   56MOL   C25431164   4.476   0.542   3.944  0.1457 -0.4144  0.0598
   56MOL   C25531165   4.377   0.471   3.853  0.0710  0.0732  0.5661
   56MOL   C25631166   4.341   0.527   3.730  0.2839  0.0327  0.5577
   56MOL   C25731167   4.248   0.466   3.649  0.0724  0.2029 -0.1107
   56MOL   C25831168   4.192   0.339   3.680  0.6786 -0.0322 -0.3182
   56MOL   C25931169   4.103   0.257   3.585  0.1840  0.4677  0.4241
   56MOL   N26031170   4.143   0.264   3.461  0.2882 -0.4193 -0.3461
   56MOL   C26131171   4.104   0.200   3.343 -0.5584  0.3830  0.8011
   56MOL   C26231172   4.059   0.065   3.339 -0.0220  0.1042 -1.2938
   56MOL   C26331173   4.041   8.137   3.213  0.3965 -0.1524 -0.0345
   56MOL   C26431174   4.086   0.052   3.099 -0.1017  0.0063 -0.7576
   56MOL   N26531175   4.076   8.129   2.974  0.1947  0.4509 -0.8065
   56MOL   C26631176   4.133   0.189   3.107  0.5877  0.2082  0.2601
   56MOL   C26731177   4.147   0.257   3.219 -0.7601 -0.0504 -0.3642
   56MOL   O26831178   3.995   0.202   3.616  0.1957 -0.1589  0.2685
   56MOL   C26931179   4.228   0.287   3.804 -0.0850 -0.9657 -0.4360
   56MOL   C27031180   4.319   0.350   3.890  0.3971  0.1845  0.0061
   56MOL   O27131181   4.567   0.611   3.899  0.0913  0.1213 -0.9064
   56MOL   H27231182   4.375   0.625   3.699 -0.8112 -0.1659 -1.3819
   56MOL   H27331183   4.227   0.516   3.556  2.2674  2.5666  0.5983
   56MOL   H27431184   4.228   0.318   3.450 -0.0876  0.2150 -0.1388
   56MOL   H27531185   4.044   0.006   3.429 -0.5744  1.0409 -0.7608
   56MOL   H27631186   4.010   8.034   3.216 -3.3768  0.8646 -1.5935
   56MOL   H27731187   4.058   8.030   2.978  0.4545  0.3531 -1.8352
   56MOL   H27831188   4.161   0.249   3.021  1.2390  0.4801  0.6581
   56MOL   H27931189   4.197   0.352   3.211  0.8018 -0.8728 -0.4786
   56MOL   H28031190   4.190   0.192   3.837  0.7138 -1.2294 -0.2742
   56MOL   H28131191   4.339   0.295   3.981  1.1916  1.5712  0.7048
   56MOL   C28231192   4.126   0.015   2.855 -0.0475 -0.3301 -0.4979
   56MOL   C28331193   4.115   8.049   2.751 -0.2623 -0.4302 -0.0299
   56MOL   C28431194   4.231   8.016   2.672  0.0047  0.0025  0.5480
   56MOL   C28531195   4.223   7.920   2.573 -0.1645  0.0955  0.3195
   56MOL   C28631196   4.104   7.841   2.560 -0.0400 -0.0802 -0.3632
   56MOL   C28731197   4.113   7.723   2.466  1.0270 -0.2694 -0.5629
   56MOL   N28831198   4.199   7.738   2.363  0.1316 -0.2044 -0.1535
   56MOL   C28931199   4.245   7.660   2.256  0.4074  0.1864  0.5086
   56MOL   C29031200   4.347   7.710   2.174 -0.5774  0.1276 -0.1981
   56MOL   C29131201   4.385   7.635   2.064 -0.1398  0.4795  0.8046
   56MOL   C29231202   4.327   7.512   2.033  0.0871 -0.0002  0.7150
   56MOL   N29331203   4.370   7.434   1.918  0.1742 -0.0177 -0.0399
   56MOL   C29431204   4.238   7.460   2.123  0.4063 -0.4190 -0.5428
   56MOL   C29531205   4.192   7.531   2.233 -0.3072 -0.6665  1.0278
   56MOL   O29631206   4.027   7.631   2.479 -0.1904  0.0800  0.2264
   56MOL   C29731207   3.987   7.870   2.640 -0.6243  0.8887 -0.8810
   56MOL   C29831208   3.996   7.971   2.737  0.6763  0.2460  0.5416
   56MOL   O29931209   4.179   0.121   2.825 -0.7183  0.2600  0.2324
   56MOL   H30031210   4.317   8.080   2.687 -1.4539  2.5386 -1.5365
   56MOL   H30131211   4.316   7.903   2.521 -1.1378  1.5002 -1.9532
   56MOL   H30231212   4.250   7.825   2.368 -1.7685  0.9839 -0.8683
   56MOL   H30331213   4.393   7.804   2.199  0.7695 -0.9913  1.6727
   56MOL   H30431214   4.459   7.684   2.001  0.8212 -1.3318  0.4941
   56MOL   H30531215   4.371   7.333   1.920 -0.1853 -0.0093  0.9887
   56MOL   H30631216   4.213   7.355   2.112  0.4015 -0.6943  1.8607
   56MOL   H30731217   4.115   7.491   2.298  0.0061 -1.1219  1.1246
   56MOL   H30831218   3.897   7.813   2.622 -1.2905  1.8396 -0.6425
   56MOL   H30931219   3.914   7.998   2.801  0.4612 -0.7423  0.6911
   56MOL   C31031220   4.414   7.482   1.803  0.1735 -0.5357 -0.5840
   56MOL   C31131221   4.475   7.391   1.705  0.5159  0.0171 -0.2523
   56MOL   C31231222   4.404   7.283   1.650  0.5064 -0.3260 -0.6327
   56MOL   C31331223   4.453   7.213   1.536  0.5126  0.0077  0.2465
   56MOL   C31431224   4.569   7.252   1.460  0.2703  0.1804  0.2473
   56MOL   C31531225   4.613   7.193   1.328  0.4507 -0.5651  0.1833
   56MOL   N31631226   4.514   7.156   1.246 -0.8916 -0.0518 -0.5104
   56MOL   C31731227   4.521   7.094   1.115  0.1127 -0.5779  0.4189
   56MOL   C31831228   4.632   7.026   1.060  0.5296  0.6886  0.4099
   56MOL   C31931229   4.619   6.964   0.937  0.2399  0.0107  0.0787
   56MOL   C32031230   4.500   6.973   0.864  0.1783 -0.2655  0.3005
   56MOL   N32131231   4.487   6.917   0.736 -0.4656  0.3978  0.0024
   56MOL   C32231232   4.392   7.051   0.912  0.0963  0.3633 -0.2629
   56MOL   C32331233   4.402   7.108   1.038 -0.1988  0.6864  0.4962
   56MOL   O32431234   4.734   7.192   1.296 -0.3401 -0.1842  0.0810
   56MOL   C32531235   4.642   7.361   1.519 -0.3392  0.3843 -0.0278
   56MOL   C32631236   4.592   7.437   1.631  0.1622  0.5359  0.6509
   56MOL   O32731237   4.419   7.608   1.779  0.4329  0.4388  0.7129
   56MOL   H32831238   4.314   7.244   1.695 -0.5060  0.7524 -1.6964
   56MOL   H32931239   4.398   7.135   1.485 -0.5697  1.6116 -1.0785
   56MOL   H33031240   4.421   7.170   1.282 -0.6328  1.8807 -0.5100
   56MOL   H33131241   4.724   7.021   1.117  0.6745  0.2096  0.1402
   56MOL   H33231242   4.704   6.915   0.891  1.4608  0.6694  1.5787
   56MOL   H33331243   4.420   6.972   0.684 -1.6478 -1.3502 -0.3388
   56MOL   H33431244   4.301   7.069   0.856 -0.5474  0.2046  0.7286
   56MOL   H33531245   4.321   7.163   1.083 -1.5096  0.2346 -1.2702
   56MOL   H33631246   4.727   7.397   1.463 -1.7306  1.4581 -1.5204
   56MOL   H33731247   4.639   7.530   1.656  0.3109  1.4986 -2.8245
   56MOL   C33831248   4.536   6.808   0.684  0.4042 -0.1485  0.6541
   56MOL   C33931249   4.459   6.759   0.563 -0.2024  0.0542  0.7456
   56MOL   C34031250   4.528   6.676   0.470  0.2858 -0.3371  0.2938
   56MOL   C34131251   4.454   6.620   0.365 -0.0938  2.1773  0.3548
   56MOL   C34231252   4.325   6.660   0.341  0.1940 -0.5685  1.0292
   56MOL   C34331253   4.264   6.616   0.210 -0.4148  0.2473 -0.2686
   56MOL   N34431254   4.172   6.704   0.158  0.1323 -0.1840  0.1626
   56MOL   C34531255   4.112   6.704   0.024  0.0261 -0.3630 -1.1227
   56MOL   C34631256   4.008   6.796   8.146 -0.3042  0.9366  0.2915
   56MOL   C34731257   3.948   6.794   8.016 -0.3210 -0.4651  1.1463
   56MOL   C34831258   4.003   6.718   7.906  0.6290  0.1830  0.4086
   56MOL   N34931259   3.942   6.728   7.777  0.9143 -0.1180 -0.7213
   56MOL   C35031260   4.119   6.645   7.931  0.0775 -0.0849  0.0017
   56MOL   C35131261   4.169   6.637   8.061 -0.1704  0.2384 -0.1319
   56MOL   O35231262   4.294   6.503   0.158  0.0779  0.4062  0.1624
   56MOL   C35331263   4.250   6.725   0.442  0.3150  0.3707 -0.1474
   56MOL   C35431264   4.320   6.775   0.554  0.7002  0.6602  0.5439
   56MOL   O35531265   4.631   6.747   0.732  0.2164 -0.3190 -0.1285
   56MOL   H35631266   4.633   6.649   0.475  0.8387  1.7806  0.5731
   56MOL   H35731267   4.502   6.574   0.280  1.0836  1.4633  1.3900
   56MOL   H35831268   4.166   6.794   0.203  1.3354 -0.3716  0.7244
   56MOL   H35931269   3.953   6.841   0.082 -0.4040 -0.9578  1.2969
   56MOL   H36031270   3.856   6.846   7.994 -0.1031 -0.8572 -0.7282
   56MOL   H36131271   3.896   6.816   7.756  1.4801  0.5858  0.8948
   56MOL   H36231272   4.162   6.585   7.852  0.6125  1.4454 -0.8921
   56MOL   H36331273   4.253   6.573   8.081  0.8595  1.4539 -0.5362
   56MOL   H36431274   4.147   6.753   0.421  0.2860 -1.5677 -2.9013
   56MOL   H36531275   4.259   6.821   0.631 -0.9172  0.4058 -0.5578
   56MOL   C36631276   3.958   6.644   7.676  0.3606  0.0671  0.4960
   56MOL   C36731277   3.918   6.682   7.538 -0.3305 -0.0882  0.0177
   56MOL   C36831278   3.914   6.591   7.437 -0.0043 -0.3628 -0.2655
   56MOL   C36931279   3.887   6.629   7.305 -0.8676 -0.2565  0.3750
   56MOL   C37031280   3.865   6.758   7.273  0.8654 -0.3649 -0.1330
   56MOL   C37131281   3.853   6.795   7.129  0.1256  0.1929  0.0314
   56MOL   N37231282   3.975   6.797   7.072  0.1598 -1.4294 -0.5366
   56MOL   C37331283   4.010   6.791   6.933 -0.2399  0.1979  0.6571
   56MOL   C37431284   4.141   6.833   6.890  0.4021 -0.5528  0.2022
   56MOL   C37531285   4.178   6.830   6.756  0.1732  0.5979  1.1280
   56MOL   C37631286   4.085   6.787   6.658  0.3847 -0.7523  1.1494
   56MOL   N37731287   4.126   6.778   6.519  0.3749 -0.2234 -0.3735
   56MOL   C37831288   3.961   6.738   6.697 -0.9921  0.2330 -0.0685
   56MOL   C37931289   3.919   6.746   6.832 -0.0780  0.6409 -0.0115
   56MOL   O38031290   3.749   6.819   7.066  0.1254 -0.2569  0.4359
   56MOL   C38131291   3.854   6.854   7.376 -0.0626  0.1975  0.6368
   56MOL   C38231292   3.883   6.819   7.509 -0.3430 -0.0041  0.2095
   56MOL   O38331293   3.989   6.527   7.693  0.1003  0.5265  0.5493
   56MOL   H38431294   3.929   6.488   7.468 -1.9146 -0.2546  1.1265
   56MOL   H38531295   3.885   6.549   7.233 -0.8913 -0.0557  0.1552
   56MOL   H38631296   4.049   6.802   7.140  0.8277 -0.8261 -1.3016
   56MOL   H38731297   4.216   6.855   6.964  0.4241 -1.4158  0.4416
   56MOL   H38831298   4.278   6.860   6.729 -0.0547 -1.8776 -2.9109
   56MOL   H38931299   4.224   6.759   6.504  0.4686 -0.5404  0.6405
   56MOL   H39031300   3.904   6.698   6.614 -0.5087  0.9656 -0.7516
   56MOL   H39131301   3.819   6.715   6.860  0.4993 -0.6596  0.6741
   56MOL   H39231302   3.823   6.956   7.355 -2.7175 -0.2640  2.1969
   56MOL   H39331303   3.876   6.891   7.588 -0.1051  1.0243 -0.6927
   56MOL   C39431304   4.051   6.810   6.410  0.5976  0.3319 -0.9964
   56MOL   C39531305   4.125   6.789   6.280 -0.5519  0.1974  0.4389
   56MOL   C39631306   4.058   6.784   6.156  0.2097 -0.7894 -0.1751
   56MOL   C39731307   4.114   6.758   6.031 -0.1299 -0.2886 -0.6774
   56MOL   C39831308   4.253   6.736   6.027  0.1786  0.7214 -0.6318
   56MOL   C39931309   4.329   6.700   5.901  0.4756 -0.4980  0.0076
   56MOL   N40031310   4.260   6.730   5.789 -0.9551  0.3269 -0.0877
   56MOL   C40131311   4.307   6.719   5.655 -0.2648  0.5211 -0.6997
   56MOL   C40231312   4.439   6.753   5.615 -0.4562 -0.3143  0.2939
   56MOL   C40331313   4.473   6.750   5.477  0.1916 -0.2457 -0.3128
   56MOL   C40431314   4.382   6.704   5.385 -0.6961  0.3977  0.7207
   56MOL   N40531315   4.428   6.703   5.246 -0.0260  0.2771 -0.8653
   56MOL   C40631316   4.256   6.658   5.430 -0.0405 -0.2516 -0.5207
   56MOL   C40731317   4.212   6.673   5.563 -0.8596  0.1869 -0.7103
   56MOL   O40831318   4.444   6.655   5.902 -0.0303 -0.3059 -0.1597
   56MOL   C40931319   4.332   6.746   6.146  0.4021  0.3571 -0.1578
   56MOL   C41031320   4.268   6.767   6.271  1.0619  0.1478  0.4471
   56MOL   O41131321   3.932   6.837   6.408 -0.3035 -0.1008 -0.5631
   56MOL   H41231322   3.950   6.782   6.162  0.1242 -0.3078 -1.4261
   56MOL   H41331323   4.052   6.751   5.942  0.9072 -2.6737 -1.2550
   56MOL   H41431324   4.164   6.760   5.799 -1.0566  0.2731 -0.8867
   56MOL   H41531325   4.516   6.770   5.689 -1.6218 -2.1819  2.0015
   56MOL   H41631326   4.569   6.792   5.452  1.5309 -1.0883  3.1539
   56MOL   H41731327   4.527   6.688   5.237 -0.2248 -1.3282 -0.5161
   56MOL   H41831328   4.186   6.626   5.353  1.7518 -3.1604 -0.9974
   56MOL   H41931329   4.110   6.652   5.592 -1.0734  0.7311 -1.0561
   56MOL   H42031330   4.438   6.729   6.136  0.5355  0.5683  0.7627
   56MOL   H42131331   4.328   6.763   6.361 -4.5580 -0.0170  4.5167
   56MOL   C42231332   4.365   6.741   5.134 -0.2278  1.2005 -0.1243
   56MOL   C42331333   4.449   6.727   5.009  0.0099 -0.3599  0.3600
   56MOL   C42431334   4.543   6.617   5.003 -0.4089  0.3641  0.8151
   56MOL   C42531335   4.641   6.615   4.899 -0.1949 -0.2257  0.0176
   56MOL   C42631336   4.651   6.716   4.803 -0.6273  0.2689 -0.1914
   56MOL   C42731337   4.770   6.722   4.708 -0.2968 -0.2851 -0.2772
   56MOL   N42831338   4.894   6.714   4.759  0.5411 -0.1120  0.4000
   56MOL   C42931339   4.928   6.725   4.895  0.2073  0.1238  0.2531
   56MOL   C43031340   4.894   6.841   4.963  0.1738 -0.5849 -0.3370
   56MOL   C43131341   4.906   6.843   5.100  0.5147 -0.0603 -0.3523
   56MOL   C43231342   4.944   6.727   5.169  1.1642  0.0899  0.1172
   56MOL   N43331343   4.927   6.718   5.304 -0.1300  0.1048 -0.1197
   56MOL   C43431344   4.988   6.610   5.104  0.1675  0.0745 -0.0090
   56MOL   C43531345   4.974   6.610   4.964  0.2445  0.3650 -0.6890
   56MOL   O43631346   4.760   6.755   4.592  0.2300 -0.1574 -0.0965
   56MOL   C43731347   4.551   6.819   4.806 -0.6138 -0.0830 -0.1104
   56MOL   C43831348   4.453   6.827   4.908  0.7188 -0.0894  0.5313
   56MOL   O43931349   4.252   6.789   5.126 -0.4393 -0.1391 -0.6617
   56MOL   H44031350   4.546   6.534   5.072  0.2872 -2.1526 -2.0978
   56MOL   H44131351   4.706   6.531   4.917  0.1186 -0.1049 -0.5367
   56MOL   H44231352   4.968   6.737   4.694  0.4641 -0.1071  0.3144
   56MOL   H44331353   4.853   6.925   4.910  0.3911  0.7589  1.5577
   56MOL   H44431354   4.868   6.922   5.163 -0.2585  0.1018 -1.0050
   56MOL   H44531355   4.999   6.719   5.375 -1.3926 -2.9542  1.2910
   56MOL   H44631356   5.019   6.521   5.156 -0.6169 -1.0411 -1.4036
   56MOL   H44731357   5.009   6.519   4.917  0.2948  0.6467 -1.2084
   56MOL   H44831358   4.561   6.899   4.734 -1.4421 -0.1672 -0.3257
   56MOL   H44931359   4.382   6.909   4.911 -1.7585 -2.1319 -0.2857
   56MOL   C45031360   4.808   6.687   5.358 -0.5423  0.3318 -0.0352
   56MOL   C45131361   4.804   6.671   5.508 -0.1062  0.5348  0.6311
   56MOL   C45231362   4.731   6.567   5.566  0.0968 -0.3675 -0.0751
   56MOL   C45331363   4.729   6.550   5.710 -0.0330  0.4061  0.3274
   56MOL   C45431364   4.802   6.643   5.789  0.1452 -0.1493  0.4707
   56MOL   C45531365   4.814   6.625   5.936  0.6780 -0.1650 -0.2534
   56MOL   N45631366   4.704   6.591   6.002  0.4937 -0.0333  0.1745
   56MOL   C45731367   4.684   6.597   6.147 -0.2304  0.0794  0.6810
   56MOL   C45831368   4.575   6.522   6.196 -0.1126 -0.0767 -0.3316
   56MOL   C45931369   4.552   6.520   6.335 -0.4150 -0.3608 -0.1970
   56MOL   C46031370   4.633   6.600   6.424 -0.5075  0.0242 -0.4624
   56MOL   N46131371   4.618   6.598   6.561 -0.2201 -0.0724  0.2328
   56MOL   C46231372   4.742   6.668   6.369 -0.3055 -0.1704  0.1332
   56MOL   C46331373   4.763   6.678   6.231 -0.0898  0.7204 -0.1470
   56MOL   O46431374   4.928   6.640   5.983  0.4760  0.5133 -0.7281
   56MOL   C46531375   4.873   6.749   5.734 -0.3067 -0.2359  0.4268
   56MOL   C46631376   4.867   6.763   5.592  0.4432  0.7929  0.4241
   56MOL   O46731377   4.706   6.668   5.291 -0.2480 -0.0122 -0.5851
   56MOL   H46831378   4.675   6.495   5.508  0.1208 -0.1062 -0.4215
   56MOL   H46931379   4.677   6.465   5.752  1.1540 -0.8228 -0.6429
   56MOL   H47031380   4.618   6.596   5.948  0.8009  0.3495 -0.2848
   56MOL   H47131381   4.518   6.460   6.129  1.8577 -2.3241  0.0239
   56MOL   H47231382   4.470   6.460   6.372 -0.1303 -0.3240  0.5047
   56MOL   H47331383   4.703   6.585   6.613  0.6495  1.2421 -0.8367
   56MOL   H47431384   4.805   6.724   6.436 -2.8707  1.3663  1.3529
   56MOL   H47531385   4.836   6.740   6.181  0.1813  0.0330 -0.6056
   56MOL   H47631386   4.927   6.820   5.795  2.8806 -1.5797 -0.7264
   56MOL   H47731387   4.911   6.851   5.547  1.1546  1.6568  2.7356
   56MOL   C47831388   4.506   6.607   6.636  0.3083  0.7265  0.1147
   56MOL   C47931389   4.532   6.610   6.785  0.3283 -0.3475  0.1845
   56MOL   C48031390   4.421   6.612   6.870  0.0399 -0.2914  0.3707
   56MOL   C48131391   4.434   6.622   7.008 -0.1912  0.5541  0.2317
   56MOL   C48231392   4.568   6.625   7.068 -0.4413  0.2107  0.2522
   56MOL   C48331393   4.589   6.632   7.213  0.1311  0.1787  0.2415
   56MOL   N48431394   4.711   6.690   7.250  0.1727  0.3938 -0.3489
   56MOL   C48531395   4.750   6.738   7.379  0.0003 -0.0275 -0.4131
   56MOL   C48631396   4.803   6.865   7.395 -0.8255  0.3859 -0.2311
   56MOL   C48731397   4.828   6.918   7.523 -0.4764  0.2539 -0.6228
   56MOL   C48831398   4.793   6.838   7.639  0.4955  0.2040 -0.5669
   56MOL   N48931399   4.798   6.894   7.766 -0.6294  0.6753  0.2619
   56MOL   C49031400   4.747   6.699   7.621 -0.5240  0.8622  0.2737
   56MOL   C49131401   4.730   6.651   7.489 -0.1084  0.1755 -0.1531
   56MOL   O49231402   4.492   6.613   7.283 -0.3772  0.7770 -0.2040
   56MOL   C49331403   4.675   6.614   6.971 -0.2108 -0.1068  0.0121
   56MOL   C49431404   4.664   6.612   6.832  0.0151  0.6884 -0.3622
   56MOL   O49531405   4.392   6.607   6.590  0.1433  0.3133 -0.6188
   56MOL   H49631406   4.319   6.605   6.836 -0.3336 -0.2099  1.4492
   56MOL   H49731407   4.344   6.630   7.067 -0.6560 -1.6036 -0.1611
   56MOL   H49831408   4.768   6.726   7.175  1.1712 -0.4511 -0.0059
   56MOL   H49931409   4.807   6.929   7.308  0.4620  1.3772  0.5444
   56MOL   H50031410   4.867   7.018   7.537 -0.0514  0.6907 -4.5386
   56MOL   H50131411   4.812   6.994   7.764  0.7612  0.4830 -0.5947
   56MOL   H50231412   4.719   6.638   7.705 -2.2698  0.3716 -0.6471
   56MOL   H50331413   4.686   6.553   7.473  0.4783 -0.3681  1.4178
   56MOL   H50431414   4.774   6.604   7.012 -0.1588 -0.2715 -0.1580
   56MOL   H50531415   4.748   6.588   6.769 -2.2426 -0.1266 -3.1953
   56MOL   C50631416   4.806   6.832   7.886 -0.4574  0.4612 -0.2953
   56MOL   C50731417   4.821   6.932   7.999 -0.2248 -0.1631  0.6058
   56MOL   C50831418   4.740   7.043   8.007 -0.2801  0.9423 -0.0238
   56MOL   C50931419   4.754   7.138   8.117  0.5098 -0.7015 -0.5243
   56MOL   C51031420   4.833   7.102   0.084 -0.6516  0.2727  1.0104
   56MOL   C51131421   4.847   7.190   0.206  0.3055  0.4453  0.0260
   56MOL   N51231422   4.762   7.296   0.215  0.9727 -0.2603 -0.2139
   56MOL   C51331423   4.750   7.387   0.328 -0.2147  0.1974  0.7398
   56MOL   C51431424   4.623   7.451   0.348 -0.7913 -0.8097  0.3552
   56MOL   C51531425   4.605   7.542   0.453 -0.0901  0.1632  0.4566
   56MOL   C51631426   4.716   7.577   0.535  0.6843  0.3680 -0.0393
   56MOL   N51731427   4.719   7.679   0.638  0.0752  0.1067 -0.4930
   56MOL   C51831428   4.835   7.511   0.515 -0.5003  0.2497  0.8871
   56MOL   C51931429   4.854   7.417   0.418 -0.3278  0.7730  0.7405
   56MOL   O52031430   4.929   7.155   0.293 -0.3485 -0.2573  0.2464
   56MOL   C52131431   4.910   6.988   0.076 -0.0701  0.0117 -0.1099
   56MOL   C52231432   4.898   6.902   8.111  0.2685 -0.0563 -0.2249
   56MOL   O52331433   4.796   6.711   7.909  0.7764 -0.0236  0.4860
   56MOL   H52431434   4.669   7.069   7.929  0.1615  1.2774 -0.3146
   56MOL   H52531435   4.695   7.228   8.105 -0.6044 -1.5149 -1.2069
   56MOL   H52631436   4.693   7.310   0.143  0.0671 -0.9594  0.5157
   56MOL   H52731437   4.546   7.424   0.277 -0.2450  1.3087 -1.0814
   56MOL   H52831438   4.516   7.601   0.467  1.6169  3.1501 -0.8217
   56MOL   H52931439   4.814   7.703   0.663  0.1764  1.5988 -2.1955
   56MOL   H53031440   4.918   7.531   0.582  1.3375  0.2002 -1.3015
   56MOL   H53131441   4.950   7.369   0.407 -0.2283  0.7635  1.5940
   56MOL   H53231442   4.985   6.962   0.148  1.1092  1.8395 -0.6475
   56MOL   H53331443   4.959   6.814   8.098 -1.4227 -1.3179  0.1966
   56MOL   C53431444   4.622   7.728   0.720  0.6710 -0.2151 -0.1422
   56MOL   C53531445   4.666   7.816   0.829 -0.0116 -0.0644 -0.6488
   56MOL   C53631446   4.798   7.813   0.883  0.8051 -0.2102 -0.1692
   56MOL   C53731447   4.841   7.892   0.993  0.2173 -0.2901  0.1455
   56MOL   C53831448   4.747   7.988   1.051  0.5093 -0.1581  0.6761
   56MOL   C53931449   4.796   8.074   1.168 -0.1167 -0.4344  0.3292
   56MOL   N54031450   4.718   0.032   1.204  0.5649  1.0184 -0.2436
   56MOL   C54131451   4.720   0.108   1.319  0.6193  0.0971  0.1521
   56MOL   C54231452   4.605   0.176   1.367 -0.1634 -0.1778 -0.1838
   56MOL   C54331453   4.607   0.260   1.478  0.2569 -0.0199  0.6217
   56MOL   C54431454   4.730   0.279   1.547 -0.5746 -1.0496  0.0112
   56MOL   N54531455   4.738   0.346   1.669  0.1800 -0.3590 -0.1842
   56MOL   C54631456   4.845   0.217   1.499  0.1646 -0.2601 -1.2817
   56MOL   C54731457   4.844   0.127   1.395 -0.0036 -0.2533 -0.0310
   56MOL   O54831458   4.899   8.034   1.226 -0.1749 -0.1160 -0.5027
   56MOL   C54931459   4.614   7.984   1.008  0.2373  0.2900 -0.1869
   56MOL   C55031460   4.575   7.899   0.902  0.2239  0.3509  0.5007
   56MOL   O55131461   4.499   7.706   0.707  0.2677  0.3586  0.2696
   56MOL   H55231462   4.867   7.739   0.843 -0.1977 -0.6187 -1.1818
   56MOL   H55331463   4.943   7.905   1.025 -0.0733  0.5759  0.7534
   56MOL   H55431464   4.637   0.033   1.144  0.7499 -2.0065 -0.6105
   56MOL   H55531465   4.517   0.173   1.304 -0.2951  1.1471 -0.0732
   56MOL   H55631466   4.525   0.324   1.508 -0.8146 -0.2894 -1.6229
   56MOL   H55731467   4.688   0.433   1.677  0.8058  0.2584 -2.5539
   56MOL   H55831468   4.936   0.244   1.551 -1.1623  3.3532 -0.6860
   56MOL   H55931469   4.936   0.086   1.358  0.2739 -0.0955  0.4687
   56MOL   H56031470   4.545   8.053   1.055  0.4617  0.0262  0.5402
   56MOL   H56131471   4.472   7.901   0.869  0.7134 -0.2662 -1.1568
   56MOL   H56231472   4.835   0.354   1.695 -0.2576  3.0423  0.5988
   57MOL     C131473   0.954   4.917   1.275  0.4666 -0.4574 -0.2209
   57MOL     C231474   0.842   4.861   1.201  0.7221  0.7343 -0.6880
   57MOL     C331475   0.825   4.887   1.067  0.6597  0.3919 -0.0941
   57MOL     C431476   0.710   4.841   0.997  0.3891 -0.0996 -0.0051
   57MOL     C531477   0.608   4.779   1.064 -0.3009  0.3112 -0.0937
   57MOL     C631478   0.492   4.716   1.000  0.6327  0.4041  0.1047
   57MOL     N731479   0.509   4.671   0.874 -0.3109 -0.6250 -0.4612
   57MOL     C831480   0.411   4.620   0.786 -0.1159  0.1247 -0.0721
   57MOL     C931481   0.451   4.520   0.698  0.6038 -0.3470  0.6235
   57MOL    C1031482   0.354   4.462   0.611 -0.1518  0.8185 -1.2957
   57MOL    C1131483   0.222   4.517   0.606 -0.8597  0.7635  0.2215
   57MOL    N1231484   0.130   4.445   0.527  1.2843 -0.1660 -0.2720
   57MOL    C1331485   0.190   4.618   0.695  0.2297  0.8770  0.5033
   57MOL    C1431486   0.280   4.676   0.783  0.3944  0.5692  0.0025
   57MOL    O1531487   0.389   4.693   1.060  0.7534 -0.5455 -0.8247
   57MOL    C1631488   0.611   4.768   1.201 -0.2978 -1.0182  0.7479
   57MOL    C1731489   0.728   4.809   1.274 -0.7938 -0.2477  0.3017
   57MOL    O1831490   0.995   5.032   1.254  0.6024 -0.3411  0.7762
   57MOL    H1931491   0.906   4.933   1.012 -0.1633  0.4843 -1.2448
   57MOL    H2031492   0.703   4.847   0.890 -0.2910 -1.1223 -0.0181
   57MOL    H2131493   0.603   4.681   0.838  0.0786 -0.3844  0.6303
   57MOL    H2231494   0.554   4.486   0.694  0.6496 -0.2373  0.8618
   57MOL    H2331495   0.386   4.369   0.565  0.0459  0.2903 -0.1266
   57MOL    H2431496   0.172   4.415   0.440  0.4666 -0.6936 -0.4975
   57MOL    H2531497   0.087   4.648   0.711  0.4309  1.3882  0.8853
   57MOL    H2631498   0.237   4.748   0.851 -2.8149  0.2418 -1.6049
   57MOL    H2731499   0.534   4.720   1.261 -2.4945  0.7278 -0.5915
   57MOL    H2831500   0.735   4.789   1.380 -2.3301 -2.4636  0.0167
   57MOL    H2931501   0.997   4.855   1.353 -0.1465 -1.5154 -0.7186
   57MOL    C3031502   0.005   4.399   0.564 -0.6734  0.3733  0.2777
   57MOL    C3131503   8.086   4.315   0.463 -0.2979  0.1296 -0.2329
   57MOL    C3231504   8.142   4.193   0.420 -0.0002  0.0440 -0.3139
   57MOL    C3331505   8.085   4.140   0.301 -0.2957  0.4740 -0.3283
   57MOL    C3431506   7.963   4.189   0.248  0.7180  0.5845 -0.2974
   57MOL    C3531507   7.913   4.133   0.117  0.0182 -0.6572  0.6458
   57MOL    N3631508   7.781   4.117   0.112  0.5457 -0.3377 -0.4039
   57MOL    C3731509   7.696   4.062   0.011 -0.7545  0.1283 -0.1135
   57MOL    C3831510   7.564   4.113   8.145  0.4579  0.3429 -0.2406
   57MOL    C3931511   7.477   4.077   8.042 -0.4733 -0.0368 -0.3029
   57MOL    C4031512   7.522   3.976   7.956 -1.2554  0.0714  0.0264
   57MOL    N4131513   7.445   3.924   7.849 -0.3232 -0.4338  0.9599
   57MOL    C4231514   7.653   3.921   7.968 -0.3027 -0.5217  0.2795
   57MOL    C4331515   7.740   3.959   8.070  0.1239 -1.0918  0.1608
   57MOL    O4431516   7.994   4.089   0.038 -0.1213 -0.2074 -0.4773
   57MOL    C4531517   7.893   4.280   0.318 -0.0438 -0.2485  0.7800
   57MOL    C4631518   7.964   4.355   0.412  0.2741 -0.3245 -0.7760
   57MOL    O4731519   8.094   4.438   0.663 -0.4416  0.2415 -0.1211
   57MOL    H4831520   0.090   4.155   0.459  0.8132  1.2421 -1.0593
   57MOL    H4931521   8.123   4.055   0.246 -1.0162 -1.3196  1.8490
   57MOL    H5031522   7.741   4.157   0.195  1.2533  0.1475 -0.2930
   57MOL    H5131523   7.520   4.181   0.070 -2.3587  0.0801 -1.6466
   57MOL    H5231524   7.376   4.110   8.055 -0.1592  0.7555  0.1697
   57MOL    H5331525   7.482   3.836   7.817  1.1079  0.0998  1.0898
   57MOL    H5431526   7.679   3.833   7.912 -0.0344  0.4238 -1.1018
   57MOL    H5531527   7.837   3.912   8.074  0.4001 -0.5545 -0.1262
   57MOL    H5631528   7.800   4.316   0.275  1.6168  4.4470  0.7802
   57MOL    H5731529   7.927   4.445   0.459 -0.4830 -1.5954  1.0613
   57MOL    C5831530   7.347   3.977   7.782 -0.5235  0.3255 -0.6032
   57MOL    C5931531   7.289   3.885   7.678  0.5214  0.5228 -0.8126
   57MOL    C6031532   7.206   3.935   7.579 -0.3959 -0.0468  0.1419
   57MOL    C6131533   7.158   3.850   7.476  0.2334  0.5770 -0.0854
   57MOL    C6231534   7.189   3.710   7.471 -0.4123  0.5317 -0.3605
   57MOL    C6331535   7.113   3.613   7.384 -0.2157  0.0877  0.2647
   57MOL    N6431536   7.164   3.494   7.384  0.2841 -0.3934 -1.0001
   57MOL    C6531537   7.112   3.367   7.356  0.0729  0.4722 -0.1507
   57MOL    C6631538   7.205   3.262   7.339  0.4577  0.3354  0.4182
   57MOL    C6731539   7.164   3.125   7.328 -0.5549 -0.4509  0.1618
   57MOL    C6831540   7.029   3.093   7.329  0.1398  0.0390 -0.4506
   57MOL    N6931541   6.993   2.955   7.326  0.4382  0.0577 -0.2359
   57MOL    C7031542   6.934   3.201   7.332 -0.6050  0.6665 -0.5021
   57MOL    C7131543   6.970   3.335   7.352 -0.3097 -0.5195 -0.4883
   57MOL    O7231544   7.022   3.651   7.313  0.4211  0.3006 -0.1624
   57MOL    C7331545   7.268   3.658   7.580 -0.6679 -0.9278 -0.2007
   57MOL    C7431546   7.317   3.747   7.679  0.5680  0.3653 -0.4532
   57MOL    O7531547   7.296   4.083   7.805  0.0992  0.6180  0.2511
   57MOL    H7631548   7.182   4.039   7.567 -3.0335 -0.4793  1.3841
   57MOL    H7731549   7.100   3.884   7.392 -0.5804 -0.2546  0.1329
   57MOL    H7831550   7.260   3.494   7.415 -0.3670  1.4026  1.0947
   57MOL    H7931551   7.309   3.289   7.341  0.8774 -1.0862 -1.5242
   57MOL    H8031552   7.247   3.055   7.329  1.0499  1.3882  2.7627
   57MOL    H8131553   7.068   2.888   7.321  0.7542  0.4921 -1.3713
   57MOL    H8231554   6.830   3.175   7.342 -0.6385  1.0193  0.0804
   57MOL    H8331555   6.899   3.416   7.362 -0.3270  0.2091 -5.3259
   57MOL    H8431556   7.298   3.554   7.585 -0.9960 -1.0705 -1.0086
   57MOL    H8531557   7.365   3.699   7.762 -1.4131  1.1037  1.1570
   57MOL    C8631558   6.871   2.898   7.335 -0.2089  0.8200 -0.0199
   57MOL    C8731559   6.885   2.753   7.367  0.5053  0.3183  0.6967
   57MOL    C8831560   6.790   2.691   7.453  0.5188  0.8637 -0.1178
   57MOL    C8931561   6.810   2.561   7.495 -0.2594 -0.7578  0.3240
   57MOL    C9031562   6.917   2.481   7.446 -0.5171  0.0557  0.5906
   57MOL    C9131563   6.923   2.338   7.490 -0.3073  0.2783  0.4564
   57MOL    N9231564   6.906   2.320   7.620  0.1242  0.9206 -0.2828
   57MOL    C9331565   6.879   2.203   7.693 -0.7279  0.1947  0.8866
   57MOL    C9431566   6.881   2.216   7.832 -0.0749  0.2665 -0.1817
   57MOL    C9531567   6.853   2.106   7.917 -0.9456  0.2272 -0.4045
   57MOL    C9631568   6.837   1.977   7.857  0.2680 -0.4120 -0.1420
   57MOL    N9731569   6.809   1.870   7.952  0.1861 -0.3995 -0.3920
   57MOL    C9831570   6.841   1.960   7.719 -0.1942  0.2133  0.3655
   57MOL    C9931571   6.857   2.074   7.634  0.0904  0.4793 -0.1052
   57MOL   O10031572   6.959   2.260   7.409 -0.6031  0.0294 -0.6673
   57MOL   C10131573   7.010   2.532   7.357 -0.1141 -0.6342  0.0025
   57MOL   C10231574   6.994   2.669   7.322  0.8256  0.6109 -0.3025
   57MOL   O10331575   6.762   2.948   7.350 -0.2586  0.3211 -0.1202
   57MOL   H10431576   6.700   2.741   7.486  1.7245  1.8757  1.7146
   57MOL   H10531577   6.736   2.521   7.563  0.0421  0.0511  1.1408
   57MOL   H10631578   6.884   2.402   7.674 -3.1838 -1.9502  3.0316
   57MOL   H10731579   6.912   2.307   7.881  1.8756 -0.2430 -0.4264
   57MOL   H10831580   6.863   2.130   8.022 -1.0231 -1.1981 -0.0667
   57MOL   H10931581   6.743   1.893   8.025  0.4212 -2.2209  0.4314
   57MOL   H11031582   6.830   1.863   7.672 -2.0692  0.1768  0.8224
   57MOL   H11131583   6.870   2.053   7.529  2.0737 -0.4087  0.3036
   57MOL   H11231584   7.078   2.457   7.318 -0.5330 -0.3914 -1.2017
   57MOL   H11331585   7.070   2.712   7.258 -0.1123  0.5532 -1.4811
   57MOL   C11431586   6.853   1.746   7.936 -0.2986  0.7552 -0.3546
   57MOL   C11531587   6.782   1.645   8.020  0.1914  0.3475 -0.2975
   57MOL   C11631588   6.844   1.522   8.059  1.4499  0.3367  0.9535
   57MOL   C11731589   6.769   1.414   8.108 -0.1780 -0.2202  0.0194
   57MOL   C11831590   6.630   1.420   8.121  0.5057 -1.3450 -0.5889
   57MOL   C11931591   6.541   1.307   0.016  0.2822  0.1441 -0.4611
   57MOL   N12031592   6.461   1.332   0.127 -0.5052  0.2347  0.5203
   57MOL   C12131593   6.330   1.283   0.152  0.1863 -0.4947 -0.0311
   57MOL   C12231594   6.251   1.363   0.238 -0.6298 -0.1987  0.9987
   57MOL   C12331595   6.119   1.325   0.272 -0.1011  0.1018 -0.0320
   57MOL   C12431596   6.067   1.210   0.218 -0.1489  0.2127 -1.1315
   57MOL   N12531597   5.937   1.171   0.256 -0.2593 -0.1419 -0.9085
   57MOL   C12631598   6.140   1.135   0.128  0.3163  0.7057  0.1858
   57MOL   C12731599   6.268   1.174   0.088  0.4717  0.6723 -0.7364
   57MOL   O12831600   6.544   1.204   8.093  0.1078  0.5875  0.6184
   57MOL   C12931601   6.568   1.548   8.098  0.2250  0.1305  0.0324
   57MOL   C13031602   6.645   1.657   8.048 -0.0865 -0.9466 -0.1012
   57MOL   O13131603   6.944   1.717   7.861  0.3002  0.3738  0.9927
   57MOL   H13231604   6.952   1.512   8.057  1.3858 -0.2555 -2.6466
   57MOL   H13331605   6.818   1.323   8.138 -1.2469 -0.8986 -0.2462
   57MOL   H13431606   6.477   1.422   0.170 -0.5645  0.5390 -0.0827
   57MOL   H13531607   6.302   1.451   0.276  2.5552 -2.9593  3.4431
   57MOL   H13631608   6.057   1.396   0.325 -1.4215  1.0630 -2.7555
   57MOL   H13731609   5.864   1.226   0.213 -1.7278 -1.0597  0.3620
   57MOL   H13831610   6.100   1.047   0.079  0.5302  0.7362 -0.0466
   57MOL   H13931611   6.323   1.109   0.022  0.3202  1.8041 -1.9903
   57MOL   H14031612   6.461   1.556   8.108  0.0608 -0.9182 -0.8196
   57MOL   H14131613   6.598   1.749   8.015  1.3869 -0.4427 -0.8342
   57MOL   C14231614   5.913   1.085   0.357 -0.4001 -1.0336 -0.8167
   57MOL   C14331615   6.033   1.052   0.443  0.7859  0.2375  0.2466
   57MOL   C14431616   6.120   0.942   0.407 -0.9063  0.1463  0.8228
   57MOL   C14531617   6.246   0.932   0.468 -0.1761  0.1468  0.5998
   57MOL   C14631618   6.285   1.025   0.563 -0.6466  0.2318  0.3541
   57MOL   C14731619   6.427   1.025   0.615 -0.0187  0.8424  0.2181
   57MOL   N14831620   6.512   0.982   0.526  0.0130 -0.5283  0.0567
   57MOL   C14931621   6.650   0.951   0.553  0.0552 -0.3157 -0.4886
   57MOL   C15031622   6.731   0.968   0.435 -0.1117  0.7357  0.6294
   57MOL   C15131623   6.870   0.944   0.444 -0.2081 -0.0428  0.5323
   57MOL   C15231624   6.922   0.903   0.568  0.4889  0.1438  0.1115
   57MOL   N15331625   7.059   0.868   0.573  0.3474 -0.1889 -0.5455
   57MOL   C15431626   6.845   0.910   0.683  0.0359 -0.2018  0.3090
   57MOL   C15531627   6.704   0.927   0.680 -0.8947  1.3083  0.8434
   57MOL   O15631628   6.449   1.072   0.729 -0.1752  0.1914  0.2952
   57MOL   C15731629   6.188   1.114   0.622 -0.1925  0.2749  0.1759
   57MOL   C15831630   6.065   1.135   0.556 -1.1622 -0.0073  0.8240
   57MOL   O15931631   5.801   1.046   0.392  0.4773  0.8028  0.0551
   57MOL   H16031632   6.100   0.882   0.319 -1.5629  0.0128  1.0538
   57MOL   H16131633   6.310   0.849   0.441 -0.7051  0.1007 -0.5154
   57MOL   H16231634   6.479   0.956   0.434 -2.1679 -0.8552  0.8889
   57MOL   H16331635   6.690   0.996   0.339 -1.1910 -0.8002  0.6278
   57MOL   H16431636   6.926   0.937   0.352 -0.3191 -0.7859  0.5170
   57MOL   H16531637   7.097   0.826   0.489 -1.8342 -0.7349 -1.2908
   57MOL   H16631638   6.885   0.875   0.777 -2.0343 -1.3081  0.7980
   57MOL   H16731639   6.646   0.919   0.771 -0.9335  0.0799  0.7178
   57MOL   H16831640   6.216   1.181   0.702 -3.8728  0.3547  1.4835
   57MOL   H16931641   6.000   1.221   0.569 -1.4065  0.9008 -4.9990
   57MOL   C17031642   7.149   0.886   0.669 -0.0546  0.0528  0.1289
   57MOL   C17131643   7.288   0.842   0.624  0.9273 -0.1172 -0.4349
   57MOL   C17231644   7.393   0.937   0.622  0.3539 -0.2677  0.0525
   57MOL   C17331645   7.523   0.896   0.575  0.0109 -0.7487 -0.7395
   57MOL   C17431646   7.548   0.767   0.537 -0.0564 -0.4596 -0.6776
   57MOL   C17531647   7.684   0.729   0.493 -0.0493 -0.0315 -0.5805
   57MOL   N17631648   7.789   0.800   0.534  0.1718 -0.6165 -0.1976
   57MOL   C17731649   7.928   0.778   0.510  0.7317 -0.4979  0.5316
   57MOL   C17831650   7.981   0.690   0.409 -0.0272 -0.8667 -1.1226
   57MOL   C17931651   8.115   0.664   0.387 -0.4638 -0.6202 -0.6121
   57MOL   C18031652   0.065   0.731   0.470  0.3634 -1.0589 -0.8167
   57MOL   N18131653   0.207   0.730   0.448 -0.0208  0.0631  0.0791
   57MOL   C18231654   0.014   0.822   0.565 -0.4105 -0.4222 -0.6234
   57MOL   C18331655   8.024   0.850   0.586  0.3030  0.2911  0.1023
   57MOL   O18431656   7.701   0.632   0.418  0.6706 -0.2323 -0.1582
   57MOL   C18531657   7.441   0.675   0.534  0.6502 -0.5388 -0.0782
   57MOL   C18631658   7.315   0.712   0.576 -0.1494  0.1181 -0.1789
   57MOL   O18731659   7.131   0.947   0.776 -0.9845  0.8847  0.0576
   57MOL   H18831660   7.367   1.036   0.658 -1.9856 -0.9291  0.2728
   57MOL   H18931661   7.597   0.973   0.587  0.3118 -1.3117  1.3169
   57MOL   H19031662   7.761   0.872   0.599  1.6401  0.5061 -0.7924
   57MOL   H19131663   7.918   0.637   0.339 -0.5808 -1.7995  0.0636
   57MOL   H19231664   0.001   0.599   0.307  0.8260 -0.3714 -0.3135
   57MOL   H19331665   0.258   0.811   0.481 -1.5626  2.1021 -2.3420
   57MOL   H19431666   0.097   0.869   0.617  0.2357 -1.1591 -0.9782
   57MOL   H19531667   8.001   0.938   0.645  1.7028 -1.0135  2.6817
   57MOL   H19631668   7.443   0.571   0.506  1.4438 -0.9777  1.5384
   57MOL   H19731669   7.241   0.634   0.569  0.0672  0.0861 -2.5449
   57MOL   C19831670   0.296   0.632   0.420 -0.1127 -0.6462  0.4954
   57MOL   C19931671   0.245   0.494   0.393 -0.1878 -0.3790  0.0440
   57MOL   C20031672   0.241   0.401   0.498  0.3878  0.6975 -0.1274
   57MOL   C20131673   0.203   0.268   0.472  0.2566 -0.1351 -0.0698
   57MOL   C20231674   0.165   0.222   0.341 -0.5439 -0.3485  0.3784
   57MOL   C20331675   0.119   0.082   0.315 -0.2626 -0.0591 -0.3636
   57MOL   N20431676   8.145   0.071   0.255  0.8917  0.0671  0.2172
   57MOL   C20531677   8.025   0.147   0.275  0.3210 -0.9197  0.4973
   57MOL   C20631678   8.005   0.256   0.368  0.2678  0.3092  0.2985
   57MOL   C20731679   7.872   0.301   0.390 -0.9655  0.0000 -0.2786
   57MOL   C20831680   7.762   0.245   0.320  0.7690  0.4390  0.1189
   57MOL   N20931681   7.629   0.284   0.363  0.4705 -0.4434  0.2761
   57MOL   C21031682   7.783   0.133   0.233  0.0678 -0.2442 -0.1138
   57MOL   C21131683   7.915   0.087   0.211  0.4680  0.0621  0.3223
   57MOL   O21231684   0.184   8.132   0.355 -0.3496  0.3090  0.0190
   57MOL   C21331685   0.177   0.319   0.240  0.1550  0.3588 -0.0028
   57MOL   C21431686   0.215   0.450   0.261  0.5159  0.3944  0.3289
   57MOL   O21531687   0.413   0.662   0.405 -0.1407 -0.4232  0.3610
   57MOL   H21631688   0.275   0.427   0.597  3.2615 -0.7352 -0.7018
   57MOL   H21731689   0.220   0.199   0.554 -0.3100 -1.1094 -0.7590
   57MOL   H21831690   8.125   8.123   0.221  0.1539  0.8377 -1.5503
   57MOL   H21931691   8.080   0.308   0.427 -2.2964  1.1968  2.9010
   57MOL   H22031692   7.868   0.378   0.465 -0.8508 -0.8894  0.6544
   57MOL   H22131693   7.628   0.365   0.422  2.0172  0.4155 -0.8484
   57MOL   H22231694   7.703   0.074   0.190 -0.9351  2.6669 -2.4136
   57MOL   H22331695   7.930   8.141   0.157  1.7039  2.2000 -3.1862
   57MOL   H22431696   0.148   0.278   0.144  1.6814 -1.2050  0.1787
   57MOL   H22531697   0.224   0.519   0.179  0.1595 -0.1529 -0.1668
   57MOL   C22631698   7.513   0.212   0.357 -0.7408  0.8982 -0.2001
   57MOL   C22731699   7.408   0.266   0.447  0.3942  0.3588 -0.3120
   57MOL   C22831700   7.272   0.274   0.403  0.0542  0.4984  0.6598
   57MOL   C22931701   7.174   0.317   0.490  0.3140 -0.5081 -0.0126
   57MOL   C23031702   7.205   0.349   0.620  0.2366  0.2029  0.3355
   57MOL   C23131703   7.105   0.417   0.711 -0.9288  0.5781 -0.0625
   57MOL   N23231704   6.972   0.390   0.709  0.4791  0.4810 -0.1421
   57MOL   C23331705   6.861   0.439   0.780  0.7946 -0.7597 -0.3498
   57MOL   C23431706   6.851   0.573   0.832 -0.7341 -0.3788 -0.0400
   57MOL   C23531707   6.732   0.620   0.897 -0.9206 -0.1669  0.5747
   57MOL   C23631708   6.618   0.537   0.891  0.0399  0.0969  0.0027
   57MOL   N23731709   6.488   0.582   0.937  0.0749 -0.1258  0.0282
   57MOL   C23831710   6.628   0.398   0.857 -0.2907  0.0494  0.6556
   57MOL   C23931711   6.751   0.354   0.795  0.4829 -0.0246 -0.0264
   57MOL   O24031712   7.155   0.491   0.794  0.0766  0.0250 -0.4702
   57MOL   C24131713   7.337   0.346   0.662  0.3041  0.0223  0.2025
   57MOL   C24231714   7.442   0.317   0.574 -0.2311  0.0927  0.0154
   57MOL   O24331715   7.488   0.121   0.281 -0.4137 -0.1795 -0.4036
   57MOL   H24431716   7.244   0.248   0.303 -1.9777 -1.2702  1.6513
   57MOL   H24531717   7.074   0.313   0.449  0.3679 -0.9705 -0.1055
   57MOL   H24631718   6.936   0.336   0.632 -1.8548  2.2659 -0.3687
   57MOL   H24731719   6.939   0.636   0.831 -1.1642  0.2448  0.6702
   57MOL   H24831720   6.738   0.714   0.950 -0.5891 -0.8599  1.7869
   57MOL   H24931721   6.439   0.540   1.015 -0.5364  0.2035 -0.1728
   57MOL   H25031722   6.537   0.340   0.859  0.2411 -1.0201 -2.2888
   57MOL   H25131723   6.750   0.256   0.750 -1.1081 -0.4186  0.8330
   57MOL   H25231724   7.357   0.378   0.764 -0.8627  1.2237  0.0734
   57MOL   H25331725   7.547   0.328   0.597 -0.4535  0.3184  0.9418
   57MOL   C25431726   6.415   0.674   0.867  0.0572 -0.0581  0.5037
   57MOL   C25531727   6.280   0.709   0.924  0.4816  0.0126  1.0321
   57MOL   C25631728   6.195   0.605   0.970  0.3917  0.4347 -0.2309
   57MOL   C25731729   6.062   0.645   1.007  0.8061  0.6745  0.8586
   57MOL   C25831730   6.010   0.776   0.988 -0.4077  0.3569 -0.4947
   57MOL   C25931731   5.866   0.807   1.026  0.1006 -0.7245 -0.7132
   57MOL   N26031732   5.788   0.709   1.068  0.1584  0.7002 -0.3921
   57MOL   C26131733   5.649   0.696   1.071 -0.0032 -0.2014  0.0043
   57MOL   C26231734   5.561   0.800   1.024  0.6392  0.4281 -0.0464
   57MOL   C26331735   5.426   0.764   0.992 -0.6535 -0.0860 -0.1382
   57MOL   C26431736   5.373   0.638   1.025  0.0121 -0.1254  0.2535
   57MOL   N26531737   5.239   0.591   0.998 -0.4819 -0.3914  0.0837
   57MOL   C26631738   5.453   0.552   1.101 -0.5363 -0.6668 -0.2305
   57MOL   C26731739   5.591   0.576   1.123 -1.0768  0.0089 -0.0344
   57MOL   O26831740   5.821   0.922   1.016 -0.2330  0.7881 -0.3862
   57MOL   C26931741   6.095   0.872   0.925  0.2227 -0.0722  0.3253
   57MOL   C27031742   6.221   0.835   0.894 -0.9761 -0.2698 -0.3502
   57MOL   O27131743   6.454   0.732   0.764 -0.3102  0.0574  0.1751
   57MOL   H27231744   6.233   0.504   0.977 -1.9310 -0.3387  1.8655
   57MOL   H27331745   5.991   0.572   1.043  2.7008 -1.5482  0.2185
   57MOL   H27431746   5.836   0.621   1.083  1.1212  1.3460  0.4314
   57MOL   H27531747   5.598   0.894   0.987  1.1116 -0.4708 -1.8837
   57MOL   H27631748   5.367   0.834   0.934  1.6941  1.2582 -0.9860
   57MOL   H27731749   5.171   0.662   1.023  1.0777  0.7866  1.1122
   57MOL   H27831750   5.399   0.460   1.124 -1.2553  0.0196  0.8799
   57MOL   H27931751   5.654   0.496   1.160  0.7961  2.4185  2.1529
   57MOL   H28031752   6.055   0.969   0.899 -1.5679 -0.6092  0.9986
   57MOL   H28131753   6.278   0.912   0.844 -0.5860  0.4306  1.1703
   57MOL   C28231754   5.200   0.489   0.923 -0.5678  0.0308 -0.2781
   57MOL   C28331755   5.308   0.408   0.853  0.9278 -0.4177 -0.1055
   57MOL   C28431756   5.392   0.468   0.759  0.1368 -0.2834  0.0328
   57MOL   C28531757   5.477   0.387   0.685  0.1109 -0.0008  0.1487
   57MOL   C28631758   5.477   0.251   0.695 -0.2273  0.7462  0.5901
   57MOL   C28731759   5.578   0.165   0.625 -0.3334 -0.3609  0.5105
   57MOL   N28831760   5.576   0.177   0.493  0.0839 -0.1560 -0.4704
   57MOL   C28931761   5.649   0.092   0.404  0.4520  0.1985  0.3702
   57MOL   C29031762   5.778   0.050   0.431 -0.5167 -0.1762  0.1485
   57MOL   C29131763   5.845   8.106   0.337 -0.3794 -0.7811 -0.1259
   57MOL   C29231764   5.787   8.068   0.213 -0.2759 -0.5338  0.2263
   57MOL   N29331765   5.857   7.970   0.127 -0.2308 -0.0188  0.2109
   57MOL   C29431766   5.657   8.126   0.174  0.3756  0.4286  0.2568
   57MOL   C29531767   5.593   0.057   0.271  0.1970  0.0852 -0.2184
   57MOL   O29631768   5.638   0.075   0.679 -0.2723  0.1844 -0.4805
   57MOL   C29731769   5.385   0.188   0.787 -0.1024  0.5433 -0.0281
   57MOL   C29831770   5.300   0.266   0.873  0.2552  0.5496  0.1856
   57MOL   O29931771   5.087   0.478   0.881 -0.4656  0.0617  0.2817
   57MOL   H30031772   5.397   0.575   0.745  2.8039 -0.3042  0.6255
   57MOL   H30131773   5.547   0.448   0.630  1.4327 -0.6954  1.0395
   57MOL   H30231774   5.509   0.243   0.456  0.3520 -0.3404 -1.2955
   57MOL   H30331775   5.827   0.086   0.520  1.1547  0.4454 -0.9866
   57MOL   H30431776   5.944   8.070   0.360 -0.3108  1.1288  2.9020
   57MOL   H30531777   5.925   7.904   0.163  1.7742  2.2017  0.5945
   57MOL   H30631778   5.602   8.093   0.087 -0.2664 -1.1900  1.2613
   57MOL   H30731779   5.494   0.093   0.249 -0.4859 -0.8854  1.1903
   57MOL   H30831780   5.394   0.082   0.806 -1.0997  0.7980  1.9947
   57MOL   H30931781   5.241   0.216   0.948  1.5366  2.0420  2.2489
   57MOL   C31031782   5.849   7.961   8.138 -0.0420  1.1629 -0.0203
   57MOL   C31131783   5.943   7.870   8.070  0.2712  0.5226  0.5285
   57MOL   C31231784   5.942   7.848   7.931  0.9776 -0.6536 -0.5559
   57MOL   C31331785   6.021   7.753   7.864 -0.1548  0.4012 -0.3002
   57MOL   C31431786   6.114   7.677   7.939  0.3130  0.2154 -0.0679
   57MOL   C31531787   6.203   7.570   7.867  0.0195  0.5568 -0.7974
   57MOL   N31631788   6.212   7.589   7.733 -0.4976 -0.4041 -0.1010
   57MOL   C31731789   6.287   7.498   7.648  0.5139 -0.4508  0.0632
   57MOL   C31831790   6.409   7.442   7.693 -0.3612 -0.4831 -0.0164
   57MOL   C31931791   6.479   7.346   7.613  0.0988 -0.0125  0.6769
   57MOL   C32031792   6.433   7.322   7.479 -0.0902  0.0934 -0.7450
   57MOL   N32131793   6.507   7.230   7.396  0.2655  0.6005  0.1033
   57MOL   C32231794   6.321   7.397   7.429 -0.1410  0.6734 -0.3434
   57MOL   C32331795   6.248   7.482   7.517  0.1179 -0.7808  0.5453
   57MOL   O32431796   6.256   7.476   7.930  0.0972 -0.2629 -0.0600
   57MOL   C32531797   6.120   7.699   8.080  1.0687 -0.0060  0.2110
   57MOL   C32631798   6.030   7.789   8.141 -0.0472 -0.8113  0.9182
   57MOL   O32731799   5.777   8.033   8.070  0.0258 -0.1442  0.3639
   57MOL   H32831800   5.877   7.908   7.868 -0.0108 -0.1954  0.8691
   57MOL   H32931801   6.016   7.741   7.757  0.8287  0.2135 -0.3337
   57MOL   H33031802   6.166   7.671   7.696  0.5741 -1.0874 -3.0845
   57MOL   H33131803   6.456   7.462   7.788 -2.3036 -0.0266  0.8628
   57MOL   H33231804   6.565   7.298   7.656  0.0467 -1.6835 -1.0486
   57MOL   H33331805   6.594   7.205   7.440 -0.6713 -0.2648  1.5067
   57MOL   H33431806   6.283   7.393   7.328 -0.7487  0.9910 -0.1264
   57MOL   H33531807   6.160   7.526   7.473  1.8150  0.9049 -1.3012
   57MOL   H33631808   6.175   7.629   8.140 -0.4080 -1.3377  0.0324
   57MOL   H33731809   6.034   7.803   0.102  0.9698 -1.6063  0.9856
   57MOL   C33831810   6.461   7.166   7.287 -0.1734  0.5507  0.6734
   57MOL   C33931811   6.559   7.068   7.225 -0.1197  0.3292  0.2533
   57MOL   C34031812   6.524   6.980   7.124  0.4528  0.4616 -0.4904
   57MOL   C34131813   6.622   6.897   7.062  0.4614  0.0965  0.3250
   57MOL   C34231814   6.761   6.913   7.095 -0.1755 -0.2253  0.0414
   57MOL   C34331815   6.868   6.835   7.028  0.3528 -0.5216  0.3795
   57MOL   N34431816   6.837   6.792   6.904 -0.0638  0.6637 -0.4484
   57MOL   C34531817   6.911   6.724   6.808 -0.3442 -0.4703  0.4054
   57MOL   C34631818   6.858   6.703   6.681 -0.2605 -0.2508 -0.5330
   57MOL   C34731819   6.919   6.620   6.590  0.1056 -0.5706  0.2604
   57MOL   C34831820   7.046   6.575   6.614 -0.5211  0.0636 -0.2461
   57MOL   N34931821   7.113   6.513   6.504  0.1524 -0.3511 -0.0862
   57MOL   C35031822   7.111   6.603   6.740  0.2374 -0.0384  0.6249
   57MOL   C35131823   7.039   6.678   6.838 -0.5242 -0.0396  0.0373
   57MOL   O35231824   6.970   6.800   7.085 -0.7607 -0.2183  0.6064
   57MOL   C35331825   6.799   7.006   7.193  0.5484 -0.3400  0.0352
   57MOL   C35431826   6.698   7.082   7.261  0.1345 -0.4045  0.0744
   57MOL   O35531827   6.356   7.191   7.233  0.4809 -0.3144 -0.1815
   57MOL   H35631828   6.421   6.972   7.094  0.6431 -0.5631 -0.8783
   57MOL   H35731829   6.584   6.821   6.995  1.3491 -0.0580 -0.0052
   57MOL   H35831830   6.753   6.836   6.870 -0.7246  0.5001  0.9600
   57MOL   H35931831   6.765   6.755   6.664 -1.1077 -1.5158  0.1583
   57MOL   H36031832   6.879   6.602   6.492 -2.1521 -0.0737  1.0720
   57MOL   H36131833   7.062   6.474   6.426  0.0225 -1.1917  0.4163
   57MOL   H36231834   7.205   6.564   6.774  0.9671  0.6809 -0.5475
   57MOL   H36331835   7.084   6.680   6.935 -0.8511  0.9625  0.1734
   57MOL   H36431836   6.899   7.023   7.230  1.0410 -2.5333 -0.2665
   57MOL   H36531837   6.734   7.148   7.338 -0.7728 -0.6864  0.7532
   57MOL   C36631838   7.239   6.526   6.475 -0.1205  0.5903  0.6403
   57MOL   C36731839   7.288   6.452   6.357  0.1851  0.4116  0.2168
   57MOL   C36831840   7.215   6.342   6.303 -0.6529 -0.3023 -0.0583
   57MOL   C36931841   7.264   6.269   6.193 -0.0029 -0.1303 -0.9878
   57MOL   C37031842   7.380   6.311   6.126 -0.1550  0.3588 -0.0803
   57MOL   C37131843   7.418   6.253   5.998 -0.0225  0.4745 -0.1056
   57MOL   N37231844   7.396   6.329   5.888  0.8583  0.2094 -0.3578
   57MOL   C37331845   7.347   6.464   5.872  0.1304  0.6095 -0.0129
   57MOL   C37431846   7.258   6.530   5.959 -0.2600 -0.3259 -0.4949
   57MOL   C37531847   7.224   6.667   5.930 -0.2332 -0.0205 -0.3385
   57MOL   C37631848   7.269   6.728   5.811 -0.6682 -0.1724  0.2563
   57MOL   N37731849   7.231   6.863   5.787  0.2646  0.3345 -0.3755
   57MOL   C37831850   7.347   6.653   5.716  0.2340 -0.2377  0.0577
   57MOL   C37931851   7.384   6.524   5.751  0.9326  0.4178 -0.1042
   57MOL   O38031852   7.455   6.143   5.993  0.0678  0.5232 -0.1030
   57MOL   C38131853   7.461   6.414   6.187 -0.6923  0.2263 -0.1845
   57MOL   C38231854   7.414   6.484   6.301 -0.0204 -0.2764 -0.2815
   57MOL   O38331855   7.314   6.606   6.535  0.8528 -0.1265 -0.3109
   57MOL   H38431856   7.122   6.311   6.348  0.7694 -3.6618  0.7557
   57MOL   H38531857   7.197   6.191   6.161  0.9668 -1.1867 -0.4411
   57MOL   H38631858   7.425   6.280   5.805  0.8959 -0.4837  0.0559
   57MOL   H38731859   7.211   6.471   6.037  2.8296  1.5141  2.9122
   57MOL   H38831860   7.157   6.731   5.986  0.9246 -0.0752  1.1310
   57MOL   H38931861   7.158   6.893   5.850  0.8604 -1.4360  1.2020
   57MOL   H39031862   7.377   6.695   5.621 -1.3054  0.4738 -0.1267
   57MOL   H39131863   7.453   6.486   5.678  0.4183  2.0348 -1.4734
   57MOL   H39231864   7.551   6.442   6.133  0.2630 -0.7000  0.9100
   57MOL   H39331865   7.478   6.553   6.354 -0.5092 -0.6936  0.8589
   57MOL   C39431866   7.285   6.956   5.706 -0.4297  0.4404  0.3212
   57MOL   C39531867   7.217   7.091   5.715  0.2323  0.0128  0.4278
   57MOL   C39631868   7.104   7.115   5.794  0.5085 -0.2978 -0.3120
   57MOL   C39731869   7.038   7.243   5.781 -0.9207 -0.1417  0.4235
   57MOL   C39831870   7.099   7.347   5.707  0.0686  0.1590 -0.1688
   57MOL   C39931871   7.032   7.481   5.707 -0.7119 -0.3536  0.6531
   57MOL   N40031872   7.030   7.547   5.588  0.1881 -0.7706 -0.6704
   57MOL   C40131873   6.986   7.677   5.549  0.6807 -0.0222 -0.4037
   57MOL   C40231874   6.891   7.752   5.618 -0.0080 -0.3795  0.0547
   57MOL   C40331875   6.843   7.874   5.567  0.0511  0.7746 -0.1187
   57MOL   C40431876   6.889   7.922   5.444  0.5779  0.2752 -0.4235
   57MOL   N40531877   6.832   8.045   5.396 -0.2608 -1.0123  0.1300
   57MOL   C40631878   6.982   7.843   5.373  0.0354  0.1965 -0.1586
   57MOL   C40731879   7.021   7.719   5.422  0.0718 -0.0021 -0.0774
   57MOL   O40831880   6.997   7.533   5.810 -0.7815  0.4306  0.0886
   57MOL   C40931881   7.209   7.319   5.624 -0.5658  0.2853  0.6642
   57MOL   C41031882   7.271   7.190   5.631  0.5056 -0.2047  0.7033
   57MOL   O41131883   7.389   6.944   5.642 -0.5930 -0.4947  0.6436
   57MOL   H41231884   7.076   7.044   5.869  1.6141 -0.0149  0.3921
   57MOL   H41331885   6.958   7.269   5.849 -0.5527  0.0599  0.7843
   57MOL   H41431886   7.076   7.493   5.517 -1.3357 -0.6460 -1.7859
   57MOL   H41531887   6.851   7.720   5.713  1.9981  2.4453  1.9203
   57MOL   H41631888   6.776   7.928   5.631 -0.0578 -1.0663  1.3483
   57MOL   H41731889   6.789   8.108   5.463  0.2743 -0.0290 -0.4311
   57MOL   H41831890   7.019   7.879   5.278  1.1310  1.9460  0.9067
   57MOL   H41931891   7.092   7.657   5.368 -0.0436 -0.6596  0.5294
   57MOL   H42031892   7.258   7.393   5.563  0.6375  0.2825  1.6153
   57MOL   H42131893   7.356   7.177   5.565 -0.4685 -0.4434 -0.5402
   57MOL   C42231894   6.811   8.092   5.271  0.3678 -0.3528  0.2039
   57MOL   C42331895   6.768   0.088   5.251 -0.0290  0.7768  0.3432
   57MOL   C42431896   6.765   0.173   5.363 -0.0754 -0.3282 -0.5533
   57MOL   C42531897   6.739   0.312   5.337  0.3008 -0.3468 -0.1053
   57MOL   C42631898   6.726   0.365   5.204  0.0487  0.5920  0.3066
   57MOL   C42731899   6.727   0.513   5.179  0.5103 -0.4613 -0.0206
   57MOL   N42831900   6.696   0.546   5.052  0.5348  0.1114 -0.1470
   57MOL   C42931901   6.671   0.671   4.998  0.0969 -0.4659 -0.6389
   57MOL   C43031902   6.665   0.800   5.063 -0.5478 -0.1415  0.8466
   57MOL   C43131903   6.660   0.918   4.989 -0.1713  0.0900 -0.2650
   57MOL   C43231904   6.635   0.915   4.848 -1.1151  0.0147  0.2762
   57MOL   N43331905   6.615   1.022   4.765  0.2024 -0.8925  0.4008
   57MOL   C43431906   6.629   0.786   4.788  0.0449 -0.4385 -0.4617
   57MOL   C43531907   6.643   0.665   4.861  0.2219 -0.3350  0.1059
   57MOL   O43631908   6.745   0.591   5.270 -0.0715  0.0079  0.0138
   57MOL   C43731909   6.715   0.267   5.102 -0.3758  0.1634  0.2791
   57MOL   C43831910   6.743   0.134   5.125 -0.4324  0.5954  0.0573
   57MOL   O43931911   6.815   8.011   5.177 -0.0636 -0.2225 -0.2167
   57MOL   H44031912   6.775   0.146   5.467 -0.2835  0.5720 -0.2863
   57MOL   H44131913   6.739   0.382   5.420 -0.5900 -2.0124  1.3173
   57MOL   H44231914   6.700   0.471   4.985  1.4909 -2.6090  2.8463
   57MOL   H44331915   6.673   0.812   5.170 -0.7293  0.2384  0.8183
   57MOL   H44431916   6.662   1.008   5.048 -2.2434 -1.2349  1.8973
   57MOL   H44531917   6.614   0.993   4.669  1.9881 -0.3368  0.1983
   57MOL   H44631918   6.595   0.792   4.686 -1.1403 -2.4899 -0.2229
   57MOL   H44731919   6.635   0.574   4.804  2.1507  0.5857 -1.6962
   57MOL   H44831920   6.699   0.293   4.999 -0.4084  0.5859  0.3878
   57MOL   H44931921   6.774   0.067   5.046 -0.0800 -0.9206  1.4486
   57MOL   C45031922   6.579   1.148   4.798 -0.5352 -0.1418  0.4279
   57MOL   C45131923   6.525   1.226   4.681  0.4262 -0.1854 -0.2493
   57MOL   C45231924   6.548   1.188   4.544  0.4581 -0.3192 -0.2131
   57MOL   C45331925   6.485   1.258   4.443 -0.2755 -0.7324  0.5266
   57MOL   C45431926   6.392   1.363   4.468  0.9806 -0.3871  0.0639
   57MOL   C45531927   6.316   1.425   4.353  0.3753 -0.0063  0.0705
   57MOL   N45631928   6.189   1.466   4.383 -0.1430 -0.4742  0.3178
   57MOL   C45731929   6.114   1.570   4.316 -1.0726 -0.8382 -0.5575
   57MOL   C45831930   5.979   1.589   4.351  0.4528  0.0663 -0.7797
   57MOL   C45931931   5.909   1.704   4.315 -0.7321 -0.8960  0.4700
   57MOL   C46031932   5.974   1.803   4.235 -0.0571 -0.4665 -0.5303
   57MOL   N46131933   5.905   1.924   4.194 -0.2290  0.0677  0.3518
   57MOL   C46231934   6.108   1.784   4.201 -0.0780  0.0961  0.7183
   57MOL   C46331935   6.181   1.672   4.246 -0.3412  0.2180  0.3233
   57MOL   O46431936   6.363   1.426   4.241 -0.1211 -0.6205  0.4994
   57MOL   C46531937   6.366   1.400   4.602 -0.8717  0.5763  0.3839
   57MOL   C46631938   6.436   1.333   4.706  0.3369 -0.4092  0.3660
   57MOL   O46731939   6.593   1.194   4.911  0.1262 -0.1343 -0.6052
   57MOL   H46831940   6.625   1.117   4.521  2.6437  1.9161 -0.0386
   57MOL   H46931941   6.514   1.231   4.342 -1.4138  1.7152 -0.4758
   57MOL   H47031942   6.154   1.434   4.472 -1.4076  1.1956  0.4418
   57MOL   H47131943   5.923   1.510   4.399 -1.1689  1.0952 -0.9589
   57MOL   H47231944   5.807   1.718   4.348  0.8668  1.0179  4.9070
   57MOL   H47331945   5.967   1.993   4.154  2.5854 -1.8536  1.2417
   57MOL   H47431946   6.164   1.851   4.137 -1.1086 -0.2058 -0.5302
   57MOL   H47531947   6.286   1.666   4.221 -0.1357  1.4774  0.8307
   57MOL   H47631948   6.311   1.486   4.638  0.7918  0.0476  4.5156
   57MOL   H47731949   6.412   1.345   4.811 -3.1586 -1.6766 -0.2062
   57MOL   C47831950   5.779   1.967   4.201  0.6482  0.2389  0.0100
   57MOL   C47931951   5.759   2.096   4.134 -0.1597 -0.2144  0.1703
   57MOL   C48031952   5.767   2.107   3.995 -0.2973 -0.1446  0.0810
   57MOL   C48131953   5.743   2.226   3.933 -0.5875  0.2006  0.1299
   57MOL   C48231954   5.711   2.344   4.008 -0.2562 -0.0050  0.1895
   57MOL   C48331955   5.701   2.480   3.946 -0.0846  0.2895  0.1200
   57MOL   N48431956   5.630   2.479   3.829 -0.2033 -0.1265  0.9005
   57MOL   C48531957   5.576   2.590   3.756  0.5113  0.1056  0.0771
   57MOL   C48631958   5.588   2.723   3.790  0.2310  0.3524 -0.5378
   57MOL   C48731959   5.510   2.820   3.723 -0.3150  0.5365 -0.7198
   57MOL   C48831960   5.429   2.783   3.613 -0.1071  0.2797  0.0565
   57MOL   N48931961   5.351   2.887   3.559 -0.8396 -0.5917  0.1135
   57MOL   C49031962   5.424   2.646   3.573 -0.6757  0.4901  0.4592
   57MOL   C49131963   5.493   2.554   3.647  1.0246  0.3990 -0.3237
   57MOL   O49231964   5.771   2.576   3.993  0.7574  0.1614 -0.2978
   57MOL   C49331965   5.699   2.331   4.149 -0.5260  0.0017 -0.5575
   57MOL   C49431966   5.715   2.207   4.209 -0.4024 -0.5133  0.2913
   57MOL   O49531967   5.682   1.899   4.230 -0.0724 -0.7501 -0.3223
   57MOL   H49631968   5.803   2.019   3.944  3.4436  0.5114  1.4441
   57MOL   H49731969   5.767   2.241   3.828  1.5557 -2.1077  0.2506
   57MOL   H49831970   5.578   2.392   3.821  1.4145 -1.0701  0.3281
   57MOL   H49931971   5.651   2.769   3.865 -0.0717  1.3829 -0.9092
   57MOL   H50031972   5.525   2.926   3.740 -2.7131  0.4279  2.5715
   57MOL   H50131973   5.404   2.973   3.545  1.5745 -1.6591  2.3462
   57MOL   H50231974   5.355   2.614   3.497 -0.8420  1.7444  0.0775
   57MOL   H50331975   5.456   2.453   3.636 -0.8296  1.2016 -1.7867
   57MOL   H50431976   5.686   2.420   4.209  0.1368 -1.7217  2.2437
   57MOL   H50531977   5.698   2.202   4.315  0.6317  1.2977  0.5637
   57MOL   C50631978   5.219   2.893   3.530  0.0240  0.7756  0.3891
   57MOL   C50731979   5.165   3.027   3.483 -0.1961 -0.3490  0.1127
   57MOL   C50831980   5.036   3.064   3.514  0.1145 -0.6541 -0.0533
   57MOL   C50931981   4.974   3.173   3.451 -0.4026  0.4779 -0.4580
   57MOL   C51031982   5.049   3.250   3.354 -0.4375 -0.0476 -0.6339
   57MOL   C51131983   4.974   3.347   3.263 -0.0110 -0.2305 -0.1184
   57MOL   N51231984   4.887   3.430   3.318 -0.3836  0.7089 -0.3815
   57MOL   C51331985   4.807   3.533   3.261  0.0125 -0.1239  0.2224
   57MOL   C51431986   4.805   3.565   3.126  0.6245  0.3767 -0.1029
   57MOL   C51531987   4.717   3.656   3.079 -0.5449  0.0429  0.2661
   57MOL   C51631988   4.628   3.724   3.161  0.4721  0.1299  0.2757
   57MOL   N51731989   4.533   3.797   3.092  0.2722  0.6669  0.1489
   57MOL   C51831990   4.645   3.714   3.298  0.0181  0.3188 -0.2483
   57MOL   C51931991   4.737   3.618   3.349  0.3028 -0.2630 -0.0413
   57MOL   O52031992   5.001   3.335   3.147  0.1677  0.2209 -0.5752
   57MOL   C52131993   5.176   3.217   3.319 -0.1464  0.5240 -0.4355
   57MOL   C52231994   5.236   3.105   3.387  0.6634  0.2758 -0.2314
   57MOL   O52331995   5.144   2.796   3.534  0.6415 -0.0867  0.5041
   57MOL   H52431996   4.973   2.993   3.566 -0.1881 -0.1023  0.3283
   57MOL   H52531997   4.868   3.188   3.465 -0.7191 -0.5664 -1.6321
   57MOL   H52631998   4.884   3.418   3.418  0.1167 -0.7764 -0.5422
   57MOL   H52731999   4.867   3.513   3.055 -0.4672 -1.0778 -0.0146
   57MOL   H52832000   4.711   3.652   2.971 -1.0569 -0.2041  0.3001
   57MOL   H52932001   4.553   3.798   2.993  0.3105  0.5248  0.1548
   57MOL   H53032002   4.594   3.775   3.371 -0.2895 -0.1666 -0.0508
   57MOL   H53132003   4.742   3.617   3.457 -0.2045 -1.3577 -0.0228
   57MOL   H53232004   5.245   3.267   3.253  1.1015  0.5427  0.8605
   57MOL   H53332005   5.333   3.069   3.358 -0.0476 -0.4148 -1.8066
   57MOL   C53432006   4.408   3.829   3.138  0.3053 -0.3200  0.4432
   57MOL   C53532007   4.316   3.895   3.039  0.0838  0.1044 -0.4486
   57MOL   C53632008   4.362   3.951   2.920  0.0369 -0.1115  0.0404
   57MOL   C53732009   4.272   4.016   2.829  0.0215  0.2070 -0.5724
   57MOL   C53832010   4.137   4.022   2.869 -0.8336 -0.2882 -0.0091
   57MOL   C53932011   4.039   4.076   2.770 -0.5541 -0.0390 -0.3546
   57MOL   N54032012   3.922   4.015   2.769  0.0829  0.3235  0.2639
   57MOL   C54132013   3.822   4.025   2.666  0.0589  0.5327 -0.5024
   57MOL   C54232014   3.781   3.902   2.615  0.2289  0.2446 -0.2129
   57MOL   C54332015   3.697   3.908   2.498 -0.5543 -0.8446 -0.2169
   57MOL   C54432016   3.656   4.029   2.443 -0.1160 -0.5217  0.1021
   57MOL   N54532017   3.569   4.022   2.331  0.0103  0.3447 -0.6748
   57MOL   C54632018   3.698   4.151   2.512 -0.0100 -1.0393 -0.4227
   57MOL   C54732019   3.788   4.150   2.615 -0.2379  0.4338  0.2264
   57MOL   O54832020   4.068   4.171   2.706  0.0321  0.6633  0.1554
   57MOL   C54932021   4.093   3.972   2.992  0.2288  0.2979  0.2248
   57MOL   C55032022   4.182   3.908   3.080  0.1221 -0.7549 -0.0556
   57MOL   O55132023   4.362   3.788   3.244  0.1070  0.7459  0.5030
   57MOL   H55232024   4.460   3.925   2.884  0.4602  1.6118 -0.0984
   57MOL   H55332025   4.311   4.063   2.740  0.0229  0.6064 -0.3622
   57MOL   H55432026   3.900   3.951   2.844  3.1850 -0.2358  0.7527
   57MOL   H55532027   3.812   3.815   2.671  0.9538  1.3579  1.1473
   57MOL   H55632028   3.659   3.814   2.463 -0.0712 -0.5735 -1.5193
   57MOL   H55732029   3.511   4.099   2.301  0.6671  0.7761 -0.8523
   57MOL   H55832030   3.659   4.248   2.483 -1.8722 -1.4006  0.8016
   57MOL   H55932031   3.821   4.242   2.660  0.4869  0.9308 -1.2933
   57MOL   H56032032   3.995   3.983   3.037  0.3631 -0.6896  0.7862
   57MOL   H56132033   4.145   3.884   3.178 -2.0547  0.9446 -0.4190
   57MOL   H56232034   3.528   3.933   2.307  0.8309 -0.8224  2.0209
   58MOL     C132035   5.650   8.106   5.648  0.1923 -0.1222 -0.3417
   58MOL     C232036   5.697   7.963   5.628  0.8860  0.2007  0.5349
   58MOL     C332037   5.691   7.872   5.735  0.1507 -0.5686 -0.4790
   58MOL     C432038   5.723   7.737   5.718 -0.5124  0.0153 -0.1203
   58MOL     C532039   5.763   7.693   5.587  0.5613  0.9852 -0.4105
   58MOL     C632040   5.831   7.569   5.570  0.0412 -0.2659  0.6387
   58MOL     N732041   5.802   7.502   5.460  0.5459  0.3076  0.4580
   58MOL     C832042   5.858   7.383   5.405  0.1656 -0.5332 -0.1212
   58MOL     C932043   5.926   7.285   5.480  0.0592  0.0062  0.2919
   58MOL    C1032044   5.997   7.177   5.424 -0.0808 -0.9426  0.4113
   58MOL    C1132045   5.983   7.158   5.285  0.3810  0.3641 -1.2415
   58MOL    N1232046   6.054   7.048   5.237 -0.7303 -0.3161 -0.2314
   58MOL    C1332047   5.916   7.252   5.208  0.2946  0.2743 -0.2907
   58MOL    C1432048   5.856   7.363   5.266 -0.1012 -0.3075  0.8418
   58MOL    O1532049   5.911   7.529   5.657  0.5143  0.6572 -0.4392
   58MOL    C1632050   5.760   7.786   5.480  0.4795  0.5472 -0.4498
   58MOL    C1732051   5.725   7.922   5.495 -0.2616  0.0197  0.6295
   58MOL    O1832052   5.594   0.005   5.747 -0.0543  0.3112  0.9755
   58MOL    H1932053   5.667   7.907   5.834 -1.9095  1.1286 -1.5359
   58MOL    H2032054   5.730   7.663   5.797  0.4142  0.2495  0.0202
   58MOL    H2132055   5.727   7.551   5.412  0.3646  1.4536  1.8783
   58MOL    H2232056   5.928   7.303   5.586 -1.8345  1.2262  0.1393
   58MOL    H2332057   6.039   7.098   5.484  3.0371 -1.0831 -1.7977
   58MOL    H2432058   6.103   6.989   5.304  0.0151  0.5127 -0.0395
   58MOL    H2532059   5.917   7.239   5.101 -0.0746  1.6818 -0.4702
   58MOL    H2632060   5.796   7.426   5.203  0.2405 -1.4230 -0.6059
   58MOL    H2732061   5.793   7.745   5.385  1.0478  0.1179 -0.0746
   58MOL    H2832062   5.723   7.991   5.412  1.9997 -0.1334  0.4188
   58MOL    H2932063   5.656   0.034   5.567  1.2757  0.1334 -0.0371
   58MOL    C3032064   6.051   6.987   5.123  0.8132  0.3856 -0.0600
   58MOL    C3132065   6.120   6.850   5.119  0.1700 -0.3190 -0.3543
   58MOL    C3232066   6.213   6.810   5.218 -0.0443  0.0444 -0.2047
   58MOL    C3332067   6.275   6.685   5.223 -0.1661  0.0293 -0.4790
   58MOL    C3432068   6.243   6.590   5.126  0.2007  0.4669 -0.6053
   58MOL    C3532069   6.301   6.449   5.138 -0.2032  0.8150  0.2178
   58MOL    N3632070   6.312   6.399   5.261  0.2024 -0.5884  0.0025
   58MOL    C3732071   6.378   6.280   5.315 -0.0548 -0.3141 -0.2300
   58MOL    C3832072   6.456   6.190   5.238 -0.6953 -0.0655 -0.2838
   58MOL    C3932073   6.504   6.069   5.305  0.1090  0.4236  0.1663
   58MOL    C4032074   6.450   6.033   5.432 -0.5219  0.1226 -0.2928
   58MOL    N4132075   6.475   5.913   5.500  0.3040  0.7585  0.2282
   58MOL    C4232076   6.378   6.127   5.503 -0.1143 -0.1446  0.4497
   58MOL    C4332077   6.342   6.248   5.447  1.1705 -0.3028  0.2477
   58MOL    O4432078   6.354   6.391   5.042 -0.0519  0.1271  0.1423
   58MOL    C4532079   6.152   6.624   5.021 -0.2973 -0.2260  0.0189
   58MOL    C4632080   6.095   6.759   5.016  0.6256 -0.9445 -0.0829
   58MOL    O4732081   5.995   7.030   5.025  0.1615 -0.0847  0.7972
   58MOL    H4832082   6.240   6.872   5.302  0.0514  1.1450 -1.0416
   58MOL    H4932083   6.328   6.651   5.311 -2.5133 -1.6404  0.3281
   58MOL    H5032084   6.255   6.448   5.329 -0.2892  0.4406 -1.1378
   58MOL    H5132085   6.495   6.216   5.141  0.1308  2.6562  0.7316
   58MOL    H5232086   6.565   6.000   5.249 -1.6528  0.2559 -1.5907
   58MOL    H5332087   6.396   5.890   5.558  0.7638  0.6078  0.7908
   58MOL    H5432088   6.346   6.104   5.604 -2.5220  1.3007  0.0541
   58MOL    H5532089   6.278   6.314   5.504 -0.3906  0.3702 -2.2002
   58MOL    H5632090   6.129   6.545   4.952  0.7235  0.3712 -1.0345
   58MOL    H5732091   6.035   6.801   4.936 -1.1049 -1.3928  0.9398
   58MOL    C5832092   6.583   5.833   5.487  0.5937 -0.1418 -0.7801
   58MOL    C5932093   6.575   5.711   5.572 -0.2051  0.0587 -0.3535
   58MOL    C6032094   6.628   5.585   5.537  0.2520 -0.2776 -1.3737
   58MOL    C6132095   6.614   5.472   5.616 -0.2467 -0.9552  0.6128
   58MOL    C6232096   6.517   5.466   5.726 -0.0172 -0.3001  0.6378
   58MOL    C6332097   6.481   5.344   5.804 -0.9177  0.1851  0.6832
   58MOL    N6432098   6.357   5.311   5.836  0.2225 -0.2249  0.3197
   58MOL    C6532099   6.245   5.381   5.803  0.4820 -0.9064  0.7856
   58MOL    C6632100   6.191   5.475   5.888  0.2363 -0.2127 -0.1208
   58MOL    C6732101   6.076   5.551   5.851 -0.1541 -0.4595  0.1043
   58MOL    C6832102   6.019   5.534   5.725  0.3894  0.2864  0.3720
   58MOL    N6932103   5.920   5.619   5.673 -0.3492  0.1635 -0.0300
   58MOL    C7032104   6.075   5.440   5.641  0.4147  0.0892  0.1290
   58MOL    C7132105   6.187   5.363   5.679 -0.1380 -0.2174  1.3780
   58MOL    O7232106   6.567   5.265   5.841 -0.6867  0.1929  0.1230
   58MOL    C7332107   6.469   5.595   5.765  0.1125 -0.1891 -0.8327
   58MOL    C7432108   6.508   5.716   5.700  0.0815 -0.4653  0.0189
   58MOL    O7532109   6.678   5.850   5.413 -0.0697 -0.3200  0.4063
   58MOL    H7632110   6.692   5.588   5.449  2.4625  0.4814  0.1920
   58MOL    H7732111   6.646   5.372   5.592  1.5642 -0.6348  1.5823
   58MOL    H7832112   6.349   5.216   5.869  2.4165 -0.2773  0.7729
   58MOL    H7932113   6.250   5.487   5.978  0.4035 -3.1723  0.2378
   58MOL    H8032114   6.033   5.615   5.927  0.2179 -1.3863  1.0985
   58MOL    H8132115   5.916   5.629   5.572  1.2450 -0.9700 -0.2104
   58MOL    H8232116   6.037   5.425   5.541  0.6053 -0.4795  0.1413
   58MOL    H8332117   6.233   5.294   5.610 -1.0381 -1.4692  2.0000
   58MOL    H8432118   6.405   5.602   5.852  1.0495 -2.4604  0.0664
   58MOL    H8532119   6.472   5.809   5.742 -0.0790  0.3082 -1.7552
   58MOL    C8632120   5.825   5.681   5.740 -0.5186  0.9172 -0.1475
   58MOL    C8732121   5.724   5.770   5.668 -0.6182 -0.0969  0.3193
   58MOL    C8832122   5.746   5.798   5.530  0.7372 -0.0289  0.0298
   58MOL    C8932123   5.653   5.873   5.458  0.2449  0.3274  0.0672
   58MOL    C9032124   5.553   5.948   5.524 -0.2676  0.3838 -0.0887
   58MOL    C9132125   5.469   6.036   5.445 -0.0491 -0.1552 -0.4867
   58MOL    N9232126   5.339   6.009   5.446  0.0589  0.1620 -0.0947
   58MOL    C9332127   5.238   6.057   5.368  0.0626 -0.8751 -0.7523
   58MOL    C9432128   5.104   6.024   5.406 -0.2521 -0.2983 -0.2771
   58MOL    C9532129   4.995   6.063   5.326 -0.1637 -0.1705  0.8679
   58MOL    C9632130   5.019   6.129   5.199 -0.2269 -0.0785  0.5992
   58MOL    N9732131   4.915   6.166   5.117  0.4170  0.0443 -1.0698
   58MOL    C9832132   5.151   6.170   5.173  0.4120  0.5223  0.3351
   58MOL    C9932133   5.260   6.134   5.255 -0.5055 -0.4023  0.7531
   58MOL   O10032134   5.521   6.125   5.373 -0.4313  0.1732  0.0830
   58MOL   C10132135   5.538   5.921   5.665  0.2659  0.8448 -0.4394
   58MOL   C10232136   5.623   5.838   5.744 -0.4470 -0.0681  0.1772
   58MOL   O10332137   5.820   5.671   5.863  0.0341  0.0570 -0.0573
   58MOL   H10432138   5.829   5.760   5.472  0.9691 -0.1356  0.4257
   58MOL   H10532139   5.664   5.884   5.351  0.1131 -0.5570 -0.0419
   58MOL   H10632140   5.316   5.946   5.522  0.7818  0.6600  0.5540
   58MOL   H10732141   5.091   5.987   5.507  0.5749 -1.0585 -0.4471
   58MOL   H10832142   4.895   6.038   5.359 -0.8965  0.4141 -0.8333
   58MOL   H10932143   4.825   6.131   5.145  1.4801 -1.1570  1.0056
   58MOL   H11032144   5.167   6.224   5.081  1.5142 -1.8759 -0.9163
   58MOL   H11132145   5.355   6.154   5.207 -0.9381  0.1237  0.1019
   58MOL   H11232146   5.468   5.978   5.725 -2.5345 -1.4500 -1.4294
   58MOL   H11332147   5.611   5.826   5.851 -0.9522 -1.4407 -0.0306
   58MOL   C11432148   4.912   6.231   5.000  0.0709  1.1286 -0.3893
   58MOL   C11532149   4.772   6.245   4.944  0.3041 -0.3358 -0.2527
   58MOL   C11632150   4.650   6.212   5.021  0.0391 -0.0358  0.4636
   58MOL   C11732151   4.523   6.234   4.954 -1.0218 -0.3114  0.1266
   58MOL   C11832152   4.512   6.291   4.824  0.1896 -0.7902 -0.4302
   58MOL   C11932153   4.382   6.336   4.768  0.2640 -0.0884  0.3727
   58MOL   N12032154   4.378   6.462   4.724 -0.5186  0.6868  0.7544
   58MOL   C12132155   4.262   6.539   4.673 -0.5317 -0.1131  0.6669
   58MOL   C12232156   4.292   6.630   4.576 -0.0243  0.3486 -0.1191
   58MOL   C12332157   4.191   6.715   4.519 -0.3021  0.2737  0.2726
   58MOL   C12432158   4.061   6.699   4.563 -0.7076  0.1697 -0.2763
   58MOL   N12532159   3.963   6.781   4.503  0.3302 -0.1540 -0.2809
   58MOL   C12632160   4.033   6.611   4.676  0.6325  0.4070 -0.3201
   58MOL   C12732161   4.134   6.533   4.733  0.0252  0.4705 -0.6562
   58MOL   O12832162   4.286   6.256   4.764 -0.3208  0.1500  0.2173
   58MOL   C12932163   4.632   6.316   4.755  0.0266 -0.4788  0.0177
   58MOL   C13032164   4.760   6.300   4.815  0.2458 -0.2081  0.2043
   58MOL   O13132165   5.005   6.277   4.933 -0.4992  0.1505  0.1544
   58MOL   H13232166   4.646   6.182   5.124  1.9770 -0.2776  0.4833
   58MOL   H13332167   4.434   6.204   5.008 -0.2029 -0.2845  1.5290
   58MOL   H13432168   4.468   6.507   4.717 -0.6612  0.7063 -1.3328
   58MOL   H13532169   4.391   6.639   4.532 -0.2896 -0.6605 -0.9242
   58MOL   H13632170   4.204   6.782   4.435  1.6263  1.2730  1.3304
   58MOL   H13732171   3.997   6.856   4.443 -1.0274  0.3748 -0.4024
   58MOL   H13832172   3.932   6.606   4.716  0.6214 -1.3481 -0.5095
   58MOL   H13932173   4.104   6.460   4.806 -0.0022  1.7923  0.6800
   58MOL   H14032174   4.631   6.371   4.662 -1.9621 -0.3196  0.1133
   58MOL   H14132175   4.846   6.324   4.754 -0.6004 -1.1751 -1.4255
   58MOL   C14232176   3.830   6.748   4.483  0.1286  0.5931 -0.8210
   58MOL   C14332177   3.771   6.610   4.511 -0.2060 -0.0256  0.0351
   58MOL   C14432178   3.841   6.493   4.482 -0.2005  0.0183  0.0860
   58MOL   C14532179   3.786   6.370   4.516  0.5481  0.0388  0.3395
   58MOL   C14632180   3.666   6.362   4.585  0.4577  0.0562 -0.0464
   58MOL   C14732181   3.598   6.231   4.623  0.4195 -0.5462 -0.4311
   58MOL   N14832182   3.659   6.139   4.699 -0.5325  0.2281 -0.2709
   58MOL   C14932183   3.769   6.149   4.786 -0.3950  0.4245  0.4038
   58MOL   C15032184   3.833   6.267   4.825 -0.1485  0.5472 -0.1404
   58MOL   C15132185   3.945   6.266   4.912 -0.1009  0.8174  0.0729
   58MOL   C15232186   3.996   6.150   4.958  0.4197  0.2072  0.0607
   58MOL   N15332187   4.109   6.141   5.043  0.7810 -0.0405  0.3554
   58MOL   C15432188   3.934   6.033   4.922  0.5337  0.1010 -0.0863
   58MOL   C15532189   3.821   6.029   4.841  0.0307 -0.2546 -0.2130
   58MOL   O15632190   3.483   6.217   4.595 -0.0549  0.1651 -0.0525
   58MOL   C15732191   3.595   6.482   4.610 -0.1554 -0.1750 -0.1614
   58MOL   C15832192   3.645   6.602   4.562 -0.3452 -0.0994 -0.5436
   58MOL   O15932193   3.755   6.834   4.441 -0.1083 -0.1688  0.0430
   58MOL   H16032194   3.940   6.485   4.439 -0.9798  0.1270 -1.7831
   58MOL   H16132195   3.840   6.283   4.481  0.8433  0.9242 -1.4743
   58MOL   H16232196   3.609   6.052   4.705 -0.7039  0.2775 -1.0178
   58MOL   H16332197   3.793   6.363   4.795 -0.4676 -0.4119 -2.9493
   58MOL   H16432198   3.989   6.359   4.944 -0.3253  0.5421  1.2374
   58MOL   H16532199   4.167   6.058   5.042  0.0718 -0.5394 -0.1678
   58MOL   H16632200   3.963   5.940   4.967  1.8411  0.1806 -0.7204
   58MOL   H16732201   3.774   5.935   4.817 -0.6045 -0.1348  0.5225
   58MOL   H16832202   3.502   6.493   4.663  1.1498  0.2026  2.0981
   58MOL   H16932203   3.591   6.690   4.595 -0.5838 -0.5846  0.3598
   58MOL   C17032204   4.135   6.223   5.147  0.0968  0.4364  0.6253
   58MOL   C17132205   4.252   6.190   5.239 -0.0794  0.4754 -0.3724
   58MOL   C17232206   4.317   6.296   5.303  0.3653 -0.7362  0.1296
   58MOL   C17332207   4.438   6.277   5.378 -0.4639 -0.5518  0.2836
   58MOL   C17432208   4.485   6.147   5.398 -0.4996  0.5498  0.6799
   58MOL   C17532209   4.613   6.130   5.477  0.3302  0.0113 -0.0193
   58MOL   N17632210   4.634   6.005   5.518 -0.2798 -0.1183 -0.7401
   58MOL   C17732211   4.742   5.964   5.604 -1.3534 -0.3600 -0.2136
   58MOL   C17832212   4.785   5.833   5.620  0.4406  0.3030  0.5733
   58MOL   C17932213   4.883   5.798   5.712 -0.4000 -0.2846  0.3526
   58MOL   C18032214   4.938   5.886   5.799 -0.1470  0.3473  0.1325
   58MOL   N18132215   5.042   5.842   5.887  0.0814  0.2111  0.2168
   58MOL   C18232216   4.898   6.020   5.783 -0.2080  0.1226  0.5333
   58MOL   C18332217   4.795   6.063   5.694 -0.8453 -0.4505  1.1288
   58MOL   O18432218   4.691   6.226   5.493  0.1977 -0.1888 -0.1538
   58MOL   C18532219   4.410   6.032   5.345  0.2701  0.1672  0.2428
   58MOL   C18632220   4.297   6.055   5.259  0.2477  0.1622  0.5526
   58MOL   O18732221   4.063   6.322   5.172  0.0126  0.1755  0.0652
   58MOL   H18832222   4.284   6.399   5.302  1.2802 -0.4363 -2.0766
   58MOL   H18932223   4.491   6.362   5.420 -1.2354 -0.4123  0.9821
   58MOL   H19032224   4.566   5.932   5.501 -0.6123 -0.4081  1.7271
   58MOL   H19132225   4.743   5.761   5.552  1.2786  0.6298 -0.3140
   58MOL   H19232226   4.919   5.698   5.732 -0.4514 -0.6273 -1.1955
   58MOL   H19332227   5.055   5.742   5.893 -1.2309  0.1598  2.4584
   58MOL   H19432228   4.950   6.094   5.842  0.2664  2.0379 -2.2302
   58MOL   H19532229   4.766   6.166   5.705  0.0820  0.1053 -1.3059
   58MOL   H19632230   4.441   5.929   5.351 -1.7478 -0.3366  2.7164
   58MOL   H19732231   4.242   5.977   5.209 -0.7925  0.1048  1.7767
   58MOL   C19832232   5.097   5.911   5.988  0.4279  0.3148 -0.3636
   58MOL   C19932233   5.204   5.831   6.065  0.8300 -1.0202 -0.8116
   58MOL   C20032234   5.313   5.783   5.987  0.0868  0.3415 -0.2060
   58MOL   C20132235   5.419   5.724   6.066 -0.0103  0.3249  0.4361
   58MOL   C20232236   5.409   5.706   6.211  0.3503 -0.2177  0.8493
   58MOL   C20332237   5.516   5.640   6.290  0.3742 -0.5336 -0.1657
   58MOL   N20432238   5.594   5.553   6.226 -0.3462 -0.0068  0.0016
   58MOL   C20532239   5.721   5.504   6.259  0.0429 -0.0899  0.3185
   58MOL   C20632240   5.808   5.481   6.148 -0.2213  0.0570 -0.1194
   58MOL   C20732241   5.943   5.457   6.163 -0.2658  0.0774  0.5771
   58MOL   C20832242   6.002   5.455   6.289  0.3307  0.1823 -0.2290
   58MOL   N20932243   6.140   5.438   6.304  0.2269  0.1017 -0.1876
   58MOL   C21032244   5.916   5.467   6.398 -0.5350 -0.3035 -0.1787
   58MOL   C21132245   5.777   5.494   6.391  0.1046  0.1991  0.2817
   58MOL   O21232246   5.520   5.653   6.414  0.2224  0.1492  0.0640
   58MOL   C21332247   5.288   5.745   6.275  0.7129 -0.7841  0.2877
   58MOL   C21432248   5.189   5.811   6.205  0.3469  0.3285 -0.7736
   58MOL   O21532249   5.069   6.027   6.019 -0.3448 -0.6253 -0.1507
   58MOL   H21632250   5.319   5.801   5.881  2.1607 -0.0993 -0.1858
   58MOL   H21732251   5.502   5.678   6.015 -0.8209  0.4362 -1.0090
   58MOL   H21832252   5.577   5.547   6.127  3.5663 -1.1504 -0.7193
   58MOL   H21932253   5.768   5.491   6.049  0.8594 -0.5535 -0.6274
   58MOL   H22032254   5.994   5.451   6.067 -1.5501  2.9494 -0.3586
   58MOL   H22132255   6.168   5.351   6.345  0.4796  0.1339 -0.2873
   58MOL   H22232256   5.958   5.465   6.497 -0.4643  3.2718 -0.0647
   58MOL   H22332257   5.720   5.514   6.480 -0.3973 -2.0571  0.5027
   58MOL   H22432258   5.293   5.727   6.381  2.1396  1.3905  0.6091
   58MOL   H22532259   5.105   5.858   6.254 -0.0273 -1.1945  0.0525
   58MOL   C22632260   6.227   5.522   6.240  1.3710  0.3476 -0.2193
   58MOL   C22732261   6.365   5.479   6.210 -0.7408 -0.4695  0.3039
   58MOL   C22832262   6.453   5.550   6.132  0.7978 -0.2241 -0.7339
   58MOL   C22932263   6.578   5.507   6.110 -0.4300  0.5436 -0.0975
   58MOL   C23032264   6.628   5.383   6.152  0.1062  0.1500 -0.5001
   58MOL   C23132265   6.762   5.326   6.117 -0.0086  0.6259  0.0662
   58MOL   N23232266   6.811   5.371   5.998 -0.5010 -0.7532 -0.8653
   58MOL   C23332267   6.904   5.306   5.919  0.3916 -0.0891 -0.4725
   58MOL   C23432268   6.939   5.361   5.793  0.3563  0.3875 -0.2699
   58MOL   C23532269   7.015   5.287   5.703 -1.0548 -0.0484 -0.2526
   58MOL   C23632270   7.070   5.164   5.744  0.2597  0.0673  0.7318
   58MOL   N23732271   7.138   5.090   5.643  0.5397 -0.6223 -0.1182
   58MOL   C23832272   7.038   5.111   5.870 -0.2697  1.2252  0.3997
   58MOL   C23932273   6.962   5.182   5.962  0.3741 -0.2554  0.1285
   58MOL   O24032274   6.815   5.242   6.195 -0.5733 -0.4127  0.3161
   58MOL   C24132275   6.541   5.310   6.233  0.0946 -0.1413  0.3994
   58MOL   C24232276   6.412   5.357   6.256 -0.4352  0.8343  0.7430
   58MOL   O24332277   6.194   5.638   6.223 -0.1273 -0.4605  0.5555
   58MOL   H24432278   6.423   5.646   6.092 -0.2639 -0.7452 -1.2332
   58MOL   H24532279   6.648   5.575   6.063  0.3325  0.4968  0.9831
   58MOL   H24632280   6.748   5.430   5.946  0.4486  0.0839 -1.0634
   58MOL   H24732281   6.916   5.465   5.771  0.4579  0.2502 -1.0370
   58MOL   H24832282   7.040   5.334   5.609 -0.7856  0.3732  0.0239
   58MOL   H24932283   7.108   5.098   5.547 -2.1380 -0.0185  0.7413
   58MOL   H25032284   7.066   5.012   5.901 -0.5415  1.7950  2.5940
   58MOL   H25132285   6.924   5.128   6.047  0.4467  0.4070  0.5883
   58MOL   H25232286   6.567   5.210   6.264  1.3536 -0.6655 -2.1353
   58MOL   H25332287   6.349   5.286   6.309  0.2815 -0.5816 -0.2575
   58MOL   C25432288   7.191   4.963   5.659  0.3002 -0.8633 -0.1026
   58MOL   C25532289   7.204   4.891   5.526 -0.8339 -0.5471 -0.2090
   58MOL   C25632290   7.170   4.753   5.530 -0.3911  0.3005  0.4760
   58MOL   C25732291   7.164   4.680   5.414 -0.7360  0.1970 -0.7357
   58MOL   C25832292   7.211   4.737   5.293  0.9794 -0.6115  0.0020
   58MOL   C25932293   7.212   4.649   5.172  0.3085 -0.0352  0.0634
   58MOL   N26032294   7.116   4.683   5.085 -0.1567 -0.0304  0.2080
   58MOL   C26132295   7.066   4.611   4.973  0.0736 -0.1085  0.4190
   58MOL   C26232296   7.150   4.586   4.868  0.3876 -0.5342  0.2065
   58MOL   C26332297   7.107   4.528   4.749  0.5213 -0.1809  0.9383
   58MOL   C26432298   6.968   4.496   4.733  0.0431 -0.3250 -0.7618
   58MOL   N26532299   6.913   4.421   4.624 -0.0902 -0.5754 -0.4501
   58MOL   C26632300   6.875   4.534   4.833 -0.2514  0.1876 -0.7748
   58MOL   C26732301   6.926   4.587   4.950  0.3052 -0.7468  0.1184
   58MOL   O26832302   7.300   4.571   5.151 -0.5515 -0.4074  0.3401
   58MOL   C26932303   7.257   4.871   5.291  0.1936  0.4841  0.8560
   58MOL   C27032304   7.248   4.949   5.405  0.6568  0.1255  0.2390
   58MOL   O27132305   7.224   4.910   5.767 -0.2669 -0.0765  0.4429
   58MOL   H27232306   7.146   4.710   5.626  0.2376  1.9360  1.3851
   58MOL   H27332307   7.135   4.576   5.417  0.7294 -0.2372 -0.9450
   58MOL   H27432308   7.057   4.760   5.114  1.9853  1.2195  1.4271
   58MOL   H27532309   7.257   4.603   4.871  0.3907 -0.2712 -0.9687
   58MOL   H27632310   7.181   4.518   4.671 -0.6480 -1.0266 -0.0891
   58MOL   H27732311   6.826   4.371   4.639  0.0228 -0.1328  1.9872
   58MOL   H27832312   6.769   4.534   4.815 -1.0078  1.5569  3.1645
   58MOL   H27932313   6.849   4.603   5.024  0.1108 -0.5502 -0.1265
   58MOL   H28032314   7.285   4.910   5.194 -1.5276 -0.3678 -0.0216
   58MOL   H28132315   7.274   5.054   5.404  0.0911  0.2693  1.2490
   58MOL   C28232316   6.981   4.374   4.515 -0.4180  0.5110  0.2056
   58MOL   C28332317   6.914   4.268   4.433  0.0975 -0.7922 -0.0961
   58MOL   C28432318   6.781   4.291   4.382 -0.9427 -0.5056 -0.1288
   58MOL   C28532319   6.725   4.190   4.297 -0.2645 -0.0071  0.2570
   58MOL   C28632320   6.788   4.068   4.282  0.5420  0.2330  0.1059
   58MOL   C28732321   6.709   3.956   4.218  0.3599  0.6199 -0.1728
   58MOL   N28832322   6.780   3.869   4.141  0.3319  0.3017 -0.3113
   58MOL   C28932323   6.727   3.783   4.041 -1.3850  0.2295  0.5548
   58MOL   C29032324   6.805   3.680   3.996 -0.4624  0.3261  0.6750
   58MOL   C29132325   6.758   3.587   3.901  0.1059 -0.2125  0.3142
   58MOL   C29232326   6.623   3.584   3.857 -0.4642  0.4623  0.9236
   58MOL   N29332327   6.576   3.481   3.772 -0.1464 -0.0591 -0.3835
   58MOL   C29432328   6.546   3.700   3.899  0.2021 -0.2201 -0.1036
   58MOL   C29532329   6.599   3.799   3.984  0.1845 -0.0181  0.1395
   58MOL   O29632330   6.588   3.952   4.238 -0.1099 -0.1021 -0.1783
   58MOL   C29732331   6.920   4.049   4.325  0.5334 -0.0077  0.3070
   58MOL   C29832332   6.982   4.147   4.400 -0.0064 -0.0465 -0.3436
   58MOL   O29932333   7.092   4.403   4.479 -0.1028  0.3550 -0.1750
   58MOL   H30032334   6.732   4.386   4.393  0.8644  0.4092  0.0981
   58MOL   H30132335   6.630   4.215   4.252 -0.1990  0.0075  0.1278
   58MOL   H30232336   6.879   3.887   4.137 -0.2117  3.1469 -1.9535
   58MOL   H30332337   6.906   3.676   4.034 -0.1670 -2.9169 -0.3317
   58MOL   H30432338   6.829   3.516   3.861  1.6578  1.3229  0.3047
   58MOL   H30532339   6.646   3.445   3.708  0.2418  1.3452 -0.7504
   58MOL   H30632340   6.444   3.714   3.869  0.8047 -1.7349 -3.1164
   58MOL   H30732341   6.525   3.873   4.011 -0.1256 -1.3168  3.0333
   58MOL   H30832342   6.968   3.954   4.305  0.2806 -0.4680  1.8167
   58MOL   H30932343   7.081   4.115   4.429 -0.5040 -0.9985  0.3189
   58MOL   C31032344   6.481   3.397   3.814 -0.3813  0.1316  0.2291
   58MOL   C31132345   6.474   3.268   3.739 -0.0120  0.8287 -0.5476
   58MOL   C31232346   6.430   3.146   3.801 -0.1096  0.3443 -0.6514
   58MOL   C31332347   6.447   3.022   3.739 -0.0396 -0.4540  0.6079
   58MOL   C31432348   6.479   3.018   3.602 -0.9012 -0.6693 -0.8673
   58MOL   C31532349   6.496   2.880   3.539 -0.7845  0.5568  0.3133
   58MOL   N31632350   6.415   2.790   3.594 -0.4080  0.4189 -0.0823
   58MOL   C31732351   6.421   2.646   3.588 -0.0856  0.9839 -0.7709
   58MOL   C31832352   6.342   2.580   3.683 -0.3245 -0.2011  0.3072
   58MOL   C31932353   6.340   2.440   3.691 -0.4235 -0.5833 -0.7678
   58MOL   C32032354   6.412   2.363   3.598 -0.1752  0.2624  0.2413
   58MOL   N32132355   6.403   2.222   3.605  0.2527 -0.1810 -0.2479
   58MOL   C32232356   6.479   2.432   3.497 -0.3637  1.4131  0.1594
   58MOL   C32332357   6.492   2.568   3.494 -0.0910 -1.0528  0.5091
   58MOL   O32432358   6.565   2.863   3.440 -0.5191  0.7111  0.3388
   58MOL   C32532359   6.514   3.141   3.542 -0.0808 -0.8321  0.0046
   58MOL   C32632360   6.513   3.260   3.610  0.0680 -0.4076 -0.0759
   58MOL   O32732361   6.392   3.431   3.895  0.0115  0.0131  0.4971
   58MOL   H32832362   6.406   3.152   3.906 -2.4538 -1.3359 -1.0566
   58MOL   H32932363   6.419   2.940   3.803  1.0948 -1.3471 -0.0070
   58MOL   H33032364   6.346   2.823   3.660 -0.8713 -1.5890  0.4860
   58MOL   H33132365   6.290   2.633   3.761  0.0041 -0.4165  0.6744
   58MOL   H33232366   6.287   2.384   3.766  1.2579 -1.5913 -0.3101
   58MOL   H33332367   6.379   2.181   3.516  1.1963  0.9451 -1.0437
   58MOL   H33432368   6.531   2.373   3.424 -0.4333 -0.9608  1.9793
   58MOL   H33532369   6.560   2.610   3.422 -5.6682  2.0735 -3.2758
   58MOL   H33632370   6.551   3.135   3.441 -1.7063  1.9999 -0.7891
   58MOL   H33732371   6.536   3.352   3.559 -3.4903  1.4720  1.5507
   58MOL   C33832372   6.417   2.144   3.713  0.0162  0.0757 -0.1801
   58MOL   C33932373   6.497   2.189   3.831  0.4356  0.4184  0.4657
   58MOL   C34032374   6.628   2.230   3.822 -0.0438  0.5799  0.4417
   58MOL   C34132375   6.705   2.272   3.931 -0.3650 -0.2776 -0.4266
   58MOL   C34232376   6.654   2.270   4.058  0.0072 -0.8260  0.3595
   58MOL   C34332377   6.724   2.345   4.172  0.1065  0.3511 -0.0955
   58MOL   N34432378   6.858   2.370   4.145  0.0260 -0.5836  0.1529
   58MOL   C34532379   6.944   2.449   4.221  0.0525 -0.2309 -0.2428
   58MOL   C34632380   6.910   2.500   4.349  0.0338 -0.7546  0.4295
   58MOL   C34732381   6.998   2.597   4.403  0.4731 -0.4027 -0.4275
   58MOL   C34832382   7.127   2.626   4.343  0.3264  0.1781 -0.0064
   58MOL   N34932383   7.226   2.715   4.390  0.1746  0.1332  0.5407
   58MOL   C35032384   7.166   2.553   4.233  0.3757  0.4213  0.0839
   58MOL   C35132385   7.076   2.471   4.169 -0.0600  0.1986  0.7569
   58MOL   O35232386   6.668   2.358   4.279 -0.2738  0.2839  0.8805
   58MOL   C35332387   6.521   2.213   4.074  0.2256  0.1678  0.3572
   58MOL   C35432388   6.439   2.172   3.961 -0.1813 -0.3535 -0.7916
   58MOL   O35532389   6.370   2.033   3.715  0.6765  0.6438  0.9705
   58MOL   H35632390   6.672   2.238   3.724 -1.0028 -0.5661 -0.0920
   58MOL   H35732391   6.801   2.315   3.905 -0.7830  1.2860  0.5873
   58MOL   H35832392   6.902   2.335   4.061  0.0524 -0.9618  0.3244
   58MOL   H35932393   6.811   2.495   4.392 -0.0837 -1.3634  0.0927
   58MOL   H36032394   6.963   2.656   4.486 -0.5842 -0.5901 -0.7319
   58MOL   H36132395   7.317   2.696   4.351 -0.1108  0.2876 -0.1984
   58MOL   H36232396   7.267   2.573   4.198 -0.7904  3.5917 -1.7306
   58MOL   H36332397   7.116   2.427   4.078 -2.4283 -0.1207 -0.1621
   58MOL   H36432398   6.471   2.211   4.170 -0.5506 -1.5281 -0.0707
   58MOL   H36532399   6.336   2.141   3.973 -0.7326  1.3636 -0.9719
   58MOL   C36632400   7.223   2.836   4.455  0.2723 -0.3009  0.1697
   58MOL   C36732401   7.087   2.883   4.514  0.4113 -0.0834 -0.1828
   58MOL   C36832402   7.069   2.877   4.652 -0.0232  0.0082 -0.4523
   58MOL   C36932403   6.944   2.915   4.698  0.4619 -0.7457 -0.2941
   58MOL   C37032404   6.833   2.964   4.618  0.0763 -0.4394  0.4382
   58MOL   C37132405   6.696   2.989   4.685  0.0519  0.4782 -0.5098
   58MOL   N37232406   6.601   3.043   4.605 -0.3555  0.0419 -0.0416
   58MOL   C37332407   6.476   3.110   4.624 -1.1089 -1.0741  0.1779
   58MOL   C37432408   6.400   3.151   4.508 -0.4396 -0.2690  0.5092
   58MOL   C37532409   6.289   3.237   4.522 -0.5687 -0.0367 -0.0186
   58MOL   C37632410   6.257   3.290   4.646 -0.4049  0.2800 -0.8229
   58MOL   N37732411   6.149   3.384   4.662  0.4226  0.2973 -0.0389
   58MOL   C37832412   6.329   3.246   4.759 -0.0183  0.0490 -0.0007
   58MOL   C37932413   6.444   3.163   4.745 -0.1442  0.7953  0.2278
   58MOL   O38032414   6.664   2.943   4.797  0.6274  0.5552  0.6988
   58MOL   C38132415   6.859   2.983   4.481 -0.6263  1.0854  0.0734
   58MOL   C38232416   6.990   2.943   4.429  0.7311  0.1370 -0.5778
   58MOL   O38332417   7.321   2.903   4.469  0.2787 -0.7234  0.9163
   58MOL   H38432418   7.142   2.849   4.727  1.1506  0.4725 -1.3985
   58MOL   H38532419   6.918   2.897   4.802  1.1361 -0.0611 -0.0002
   58MOL   H38632420   6.637   3.039   4.510 -1.8372 -3.1762 -0.5171
   58MOL   H38732421   6.430   3.106   4.415 -0.4790 -0.6504  0.6805
   58MOL   H38832422   6.243   3.270   4.430 -1.7683  1.3603  1.0657
   58MOL   H38932423   6.107   3.426   4.580 -0.2241  0.8920  0.5917
   58MOL   H39032424   6.306   3.278   4.859  0.0403 -1.6066  0.5596
   58MOL   H39132425   6.500   3.132   4.832 -0.3299 -0.3690 -0.0565
   58MOL   H39232426   6.781   3.018   4.415 -0.1773  2.1241  0.0900
   58MOL   H39332427   7.007   2.948   4.322 -0.3322 -1.5954 -0.8439
   58MOL   C39432428   6.083   3.424   4.774 -0.2089 -0.3299 -0.6481
   58MOL   C39532429   6.004   3.553   4.758  0.4933  0.1475  0.1918
   58MOL   C39632430   5.950   3.628   4.868  0.8598  0.3007  1.5955
   58MOL   C39732431   5.894   3.755   4.852  0.0335 -0.1090  0.7345
   58MOL   C39832432   5.861   3.803   4.723  0.4498 -0.0528  0.1207
   58MOL   C39932433   5.809   3.944   4.708  0.0073  0.9127  0.0878
   58MOL   N40032434   5.736   3.956   4.591 -0.5149  0.4216  0.1784
   58MOL   C40132435   5.661   4.072   4.545 -0.4268  0.0984 -0.7307
   58MOL   C40232436   5.579   4.141   4.637  0.1696 -0.1577  0.3830
   58MOL   C40332437   5.520   4.261   4.596 -0.3691 -0.6550 -0.8019
   58MOL   C40432438   5.522   4.312   4.466 -0.6114 -0.4004  0.8037
   58MOL   N40532439   5.459   4.429   4.413  0.2113  0.3763 -0.1173
   58MOL   C40632440   5.586   4.233   4.367 -0.2749  0.6893  0.1063
   58MOL   C40732441   5.657   4.112   4.410  0.0827  0.0251 -0.2756
   58MOL   O40832442   5.835   4.031   4.792  0.2806  0.4310  0.0025
   58MOL   C40932443   5.903   3.726   4.612  0.5457  0.5069  0.7985
   58MOL   C41032444   5.971   3.604   4.631 -0.7674 -0.8342 -0.3332
   58MOL   O41132445   6.090   3.369   4.887 -0.4418 -0.2729 -0.1225
   58MOL   H41232446   5.961   3.593   4.969 -2.6240 -0.4490  1.7668
   58MOL   H41332447   5.871   3.818   4.937  4.0349  1.4933  0.7373
   58MOL   H41432448   5.725   3.868   4.544 -0.3794  1.6037 -2.1205
   58MOL   H41532449   5.566   4.110   4.740 -0.9749 -0.8767  0.0230
   58MOL   H41632450   5.460   4.317   4.666  0.1657 -2.2529  0.9708
   58MOL   H41732451   5.477   4.457   4.318  1.4516 -0.5785 -0.1702
   58MOL   H41832452   5.584   4.263   4.264 -0.1471  0.0563 -0.0806
   58MOL   H41932453   5.703   4.052   4.332  2.1266  1.2898 -0.0429
   58MOL   H42032454   5.884   3.764   4.512  0.5459  0.0522  0.6220
   58MOL   H42132455   6.009   3.563   4.538  1.7726 -0.2558  0.3945
   58MOL   C42232456   5.381   4.513   4.475  0.6741  0.3475 -0.3782
   58MOL   C42332457   5.336   4.626   4.387 -0.3508  0.3303 -0.3855
   58MOL   C42432458   5.328   4.611   4.247 -0.0180  0.6333 -0.3800
   58MOL   C42532459   5.276   4.716   4.171  0.1873 -0.3805  0.4428
   58MOL   C42632460   5.223   4.831   4.234  0.4046 -0.5472 -0.4583
   58MOL   C42732461   5.151   4.940   4.158 -0.2447  0.0314 -0.0409
   58MOL   N42832462   5.096   4.895   4.043 -0.1373 -0.7234  0.3024
   58MOL   C42932463   5.004   4.962   3.966  0.4425 -0.5452 -0.9391
   58MOL   C43032464   4.962   4.903   3.842  0.4389  0.4800 -0.2092
   58MOL   C43132465   4.856   4.960   3.767  0.0790  0.1343 -0.5826
   58MOL   C43232466   4.798   5.082   3.811 -0.5673  0.2022 -0.2213
   58MOL   N43332467   4.691   5.139   3.732  0.4315 -0.1714  0.0646
   58MOL   C43432468   4.838   5.142   3.930 -0.3632  0.3384  0.1997
   58MOL   C43532469   4.938   5.083   4.006  0.0567 -1.0189 -0.4639
   58MOL   O43632470   5.165   5.056   4.192  0.0289 -0.4458  1.1170
   58MOL   C43732471   5.238   4.845   4.374 -0.5376  0.5086  0.6107
   58MOL   C43832472   5.285   4.738   4.453 -0.4343  0.3633  0.9830
   58MOL   O43932473   5.333   4.500   4.594  0.5524  0.1836 -0.2932
   58MOL   H44032474   5.358   4.520   4.196  1.2956  0.4474  0.7021
   58MOL   H44132475   5.264   4.704   4.064 -2.2779 -0.0438  0.6534
   58MOL   H44232476   5.108   4.797   4.019 -2.1264 -0.2527 -2.9831
   58MOL   H44332477   4.986   4.803   3.808  0.5005 -0.4514  2.4600
   58MOL   H44432478   4.812   4.907   3.684 -2.7460 -0.8182  1.4505
   58MOL   H44532479   4.702   5.110   3.636 -1.7416 -0.3740 -0.1411
   58MOL   H44632480   4.799   5.240   3.950 -2.2625 -0.6045  1.2244
   58MOL   H44732481   4.975   5.139   4.091 -1.8096  1.1043 -1.0093
   58MOL   H44832482   5.199   4.935   4.419 -1.3951 -0.4016  1.7357
   58MOL   H44932483   5.304   4.748   4.558 -0.1037  0.8014  0.8836
   58MOL   C45032484   4.578   5.199   3.783 -0.0232 -0.1361  0.0150
   58MOL   C45132485   4.461   5.214   3.694  0.1892 -0.6369 -0.6444
   58MOL   C45232486   4.439   5.121   3.591 -0.1665 -0.0464  0.1458
   58MOL   C45332487   4.310   5.112   3.534  0.4572 -0.1376 -0.1198
   58MOL   C45432488   4.203   5.203   3.567  0.2826 -0.5463 -0.1787
   58MOL   C45532489   4.068   5.187   3.502  0.0541 -0.2314 -0.3537
   58MOL   N45632490   4.024   5.064   3.499  0.4713 -0.1619  0.5281
   58MOL   C45732491   3.905   5.011   3.440  0.1258  1.0297 -0.2367
   58MOL   C45832492   3.821   5.083   3.355  1.0483  0.8534 -0.4906
   58MOL   C45932493   3.712   5.017   3.292 -0.0433 -0.3186 -0.3036
   58MOL   C46032494   3.680   4.883   3.322  0.4937  0.1679  0.4544
   58MOL   N46132495   3.558   4.816   3.283 -0.2885  0.2314 -0.8645
   58MOL   C46232496   3.763   4.813   3.408  0.2862 -0.0090 -0.2163
   58MOL   C46332497   3.876   4.877   3.469  0.4196  0.5997  0.3426
   58MOL   O46432498   4.002   5.282   3.468 -0.2477 -0.1073  0.4925
   58MOL   C46532499   4.231   5.311   3.650  0.0681  0.5813 -0.6171
   58MOL   C46632500   4.358   5.308   3.723 -0.0505  0.6689  0.6536
   58MOL   O46732501   4.574   5.255   3.892  0.3938  0.7719 -0.1864
   58MOL   H46832502   4.512   5.044   3.569  1.4305  1.4370  0.0634
   58MOL   H46932503   4.302   5.033   3.461 -0.4286  0.2581 -0.4605
   58MOL   H47032504   4.082   4.999   3.550  0.1313 -0.2330  0.8323
   58MOL   H47132505   3.839   5.188   3.334  0.6122  1.4642  1.9806
   58MOL   H47232506   3.644   5.077   3.232  0.5500 -0.0616 -0.7225
   58MOL   H47332507   3.543   4.732   3.337  2.7584 -0.7538 -1.4776
   58MOL   H47432508   3.744   4.710   3.434 -1.5349  0.3743  0.0365
   58MOL   H47532509   3.948   4.820   3.526  0.3278 -1.0696 -1.1765
   58MOL   H47632510   4.151   5.377   3.679  0.5593  0.4566  1.0861
   58MOL   H47732511   4.376   5.383   3.798  0.7631 -1.4721  2.6500
   58MOL   C47832512   3.444   4.868   3.228  0.0932  0.4699 -0.6448
   58MOL   C47932513   3.321   4.803   3.276 -0.5142 -0.4546  0.0268
   58MOL   C48032514   3.318   4.771   3.414 -0.8350  0.4697 -1.0993
   58MOL   C48132515   3.202   4.709   3.464  0.0431  0.7194  0.6017
   58MOL   C48232516   3.095   4.682   3.379 -0.2668 -0.1268  0.8304
   58MOL   C48332517   2.983   4.598   3.433  0.5233 -0.3708  0.2015
   58MOL   N48432518   2.956   4.605   3.567  0.1327 -0.1823  0.5055
   58MOL   C48532519   2.898   4.511   3.648  0.0436  0.2495  0.2057
   58MOL   C48632520   2.917   4.370   3.622  0.1539 -0.0501 -0.0946
   58MOL   C48732521   2.872   4.276   3.722 -0.3437 -0.2151 -0.4757
   58MOL   C48832522   2.800   4.323   3.838 -0.2075 -0.3808 -0.1476
   58MOL   N48932523   2.764   4.237   3.943  0.2439 -0.3187 -0.0217
   58MOL   C49032524   2.780   4.462   3.855  0.6230  0.3920 -0.0873
   58MOL   C49132525   2.825   4.556   3.760 -0.6666 -0.1864  0.0063
   58MOL   O49232526   2.920   4.528   3.352 -0.1462 -0.0824  0.2593
   58MOL   C49332527   3.098   4.726   3.240 -0.8147 -0.5202  0.0418
   58MOL   C49432528   3.214   4.779   3.189 -0.3293 -0.1173 -0.1604
   58MOL   O49532529   3.438   4.961   3.148  0.6127 -0.0421  1.0657
   58MOL   H49632530   3.398   4.798   3.481  0.9950  2.6611 -4.0417
   58MOL   H49732531   3.200   4.687   3.569  3.8126  1.9141  1.0074
   58MOL   H49832532   2.982   4.693   3.609  0.3665  0.4960 -1.0266
   58MOL   H49932533   2.959   4.330   3.530  0.9732 -1.2808  0.8010
   58MOL   H50032534   2.899   4.174   3.698  1.3848  0.0930  0.1403
   58MOL   H50132535   2.666   4.233   3.964 -0.2292 -0.0998 -2.0698
   58MOL   H50232536   2.733   4.493   3.948  0.6413 -1.3266  0.5121
   58MOL   H50332537   2.815   4.663   3.771 -1.2732 -0.0731 -1.5039
   58MOL   H50432538   3.017   4.702   3.173 -0.9020 -2.0778  0.6910
   58MOL   H50532539   3.222   4.798   3.083  0.0231  0.6604  0.0021
   58MOL   C50632540   2.846   4.153   3.999 -0.3646  0.3119  0.1941
   58MOL   C50732541   2.783   4.074   4.106 -0.0910 -0.2582 -0.2142
   58MOL   C50832542   2.843   4.032   4.221 -0.2025 -0.2494 -0.8233
   58MOL   C50932543   2.775   3.963   4.324 -0.0629 -0.6412 -0.3012
   58MOL   C51032544   2.638   3.926   4.317  0.6800  0.5782  0.7077
   58MOL   C51132545   2.562   3.867   4.432  0.2556 -0.5513 -0.1657
   58MOL   N51232546   2.643   3.826   4.537  0.5417 -0.1060  0.1750
   58MOL   C51332547   2.611   3.767   4.665  0.6073  0.5042  0.0509
   58MOL   C51432548   2.713   3.719   4.752  0.3136 -0.0118  0.3996
   58MOL   C51532549   2.676   3.668   4.877  0.4687 -0.1747 -0.4426
   58MOL   C51632550   2.543   3.670   4.921  0.3607  0.0350  0.2356
   58MOL   N51732551   2.517   3.633   5.058 -0.1818 -0.0984 -0.3037
   58MOL   C51832552   2.441   3.719   4.839 -0.1019 -0.3443  0.2592
   58MOL   C51932553   2.480   3.764   4.711  0.4934 -0.3522 -0.0309
   58MOL   O52032554   2.442   3.861   4.424  0.1212 -0.2814 -0.1463
   58MOL   C52132555   2.574   3.962   4.194  0.0324 -0.0743  0.4904
   58MOL   C52232556   2.648   4.033   4.093  0.3101  0.4279  0.0811
   58MOL   O52332557   2.964   4.147   3.986 -0.1299  0.1207 -0.4043
   58MOL   H52432558   2.950   4.034   4.237 -0.4114  1.3297  0.5442
   58MOL   H52532559   2.828   3.946   4.416  0.0418  3.9581  0.6563
   58MOL   H52632560   2.738   3.859   4.532  0.6777 -0.0801  2.4335
   58MOL   H52732561   2.812   3.715   4.709  0.3503  1.1957  0.3603
   58MOL   H52832562   2.756   3.635   4.942 -0.6671 -1.1832  0.4413
   58MOL   H52932563   2.469   3.701   5.115  0.2717  0.1149 -0.1710
   58MOL   H53032564   2.338   3.718   4.872  0.5289  0.8247  2.3787
   58MOL   H53132565   2.411   3.801   4.637  1.1575 -0.4434 -0.7036
   58MOL   H53232566   2.471   3.936   4.172  0.4025 -0.9763 -0.1756
   58MOL   H53332567   2.597   4.060   4.002 -1.0015  3.4308  1.6063
   58MOL   C53432568   2.535   3.509   5.104 -0.0937  0.1002 -0.4594
   58MOL   C53532569   2.490   3.487   5.246  0.0448  0.3771 -0.0791
   58MOL   C53632570   2.550   3.380   5.323  0.1491 -0.2452  0.4568
   58MOL   C53732571   2.506   3.341   5.453  0.0674 -0.2772 -0.3514
   58MOL   C53832572   2.395   3.415   5.504  0.2535 -0.4698  0.1366
   58MOL   C53932573   2.355   3.401   5.648  0.3992  0.2321 -0.0462
   58MOL   N54032574   2.218   3.397   5.670 -0.1162 -0.0135 -0.4387
   58MOL   C54132575   2.146   3.373   5.792 -0.2476  1.0471  0.8438
   58MOL   C54232576   2.195   3.300   5.901  0.2966  0.1354 -0.2867
   58MOL   C54332577   2.108   3.280   6.010  0.1146  0.1363 -0.3924
   58MOL   C54432578   1.976   3.336   6.015  0.5425  0.2386  0.5618
   58MOL   N54532579   1.910   3.316   6.136  0.3460  0.0914  0.3574
   58MOL   C54632580   1.924   3.417   5.909  0.0511 -0.5575  0.3216
   58MOL   C54732581   2.017   3.433   5.801 -0.3814 -0.0722  1.3244
   58MOL   O54832582   2.438   3.390   5.740 -0.4075  0.5371  0.2353
   58MOL   C54932583   2.331   3.512   5.424  0.6259 -0.4214  0.0514
   58MOL   C55032584   2.380   3.549   5.301  1.1042  0.1832  0.2072
   58MOL   O55132585   2.604   3.420   5.052 -0.4009  0.3714 -0.3446
   58MOL   H55232586   2.631   3.329   5.273 -0.4083  0.0987 -0.8194
   58MOL   H55332587   2.563   3.270   5.511 -2.6078 -0.8815  1.6594
   58MOL   H55432588   2.162   3.409   5.588  1.7454 -2.0580 -2.0766
   58MOL   H55532589   2.295   3.262   5.916 -0.1420 -0.3268  1.6626
   58MOL   H55632590   2.148   3.217   6.088 -0.4957 -0.5354 -0.6132
   58MOL   H55732591   1.967   3.295   6.217  0.6315 -0.9574 -0.1069
   58MOL   H55832592   1.826   3.463   5.905 -0.2419 -1.2000  0.0973
   58MOL   H55932593   1.981   3.491   5.717  2.4119  1.5226  1.1645
   58MOL   H56032594   2.251   3.576   5.459 -0.5928 -0.6388 -2.2982
   58MOL   H56132595   2.339   3.635   5.251 -0.4246 -1.5826 -1.6563
   58MOL   H56232596   1.839   3.246   6.124  1.3087 -0.8162 -0.0926
   59MOL     C132597   2.438   7.412   2.881  0.2603 -0.5483 -0.4719
   59MOL     C232598   2.298   7.360   2.907  0.0515  0.4490 -0.3862
   59MOL     C332599   2.280   7.233   2.970  0.7304 -0.6914  0.7716
   59MOL     C432600   2.151   7.182   2.982  0.2662 -0.2503  0.1773
   59MOL     C532601   2.037   7.251   2.947 -1.0029 -0.1834 -0.1547
   59MOL     C632602   1.903   7.192   2.971  0.0682  0.5199  0.1887
   59MOL     N732603   1.893   7.056   2.973 -0.5344  0.3051  0.0209
   59MOL     C832604   1.785   6.969   3.002 -0.5417  0.3975  0.3049
   59MOL     C932605   1.813   6.838   3.041  0.4190  1.0865  0.4706
   59MOL    C1032606   1.707   6.753   3.069  0.3239  0.1090  0.6340
   59MOL    C1132607   1.574   6.799   3.059  0.2185 -0.4632  0.0059
   59MOL    N1232608   1.464   6.723   3.103  0.1273  0.0211  0.8328
   59MOL    C1332609   1.544   6.929   3.014  0.4219 -0.3579  0.3561
   59MOL    C1432610   1.651   7.017   2.997  0.2097  0.7160 -0.2689
   59MOL    O1532611   1.806   7.270   2.959 -0.1360  0.1164  0.0112
   59MOL    C1632612   2.051   7.381   2.891  0.3396 -0.1255 -0.2291
   59MOL    C1732613   2.179   7.432   2.873  0.2246 -0.7805 -0.0701
   59MOL    O1832614   2.458   7.505   2.804 -0.0978 -0.1684 -0.2247
   59MOL    H1932615   2.358   7.172   3.014  0.0171 -2.8175 -0.8210
   59MOL    H2032616   2.151   7.085   3.028  0.3605 -0.2646  0.1477
   59MOL    H2132617   1.980   7.004   2.980  0.3597  1.9578  2.0943
   59MOL    H2232618   1.917   6.810   3.049 -0.7655 -3.5261  0.8983
   59MOL    H2332619   1.725   6.649   3.094  1.5497 -0.4010 -2.2774
   59MOL    H2432620   1.385   6.733   3.041  0.9581  0.9230 -0.0979
   59MOL    H2532621   1.442   6.964   3.016  1.2701  2.2483 -0.5832
   59MOL    H2632622   1.627   7.118   2.968 -0.7268  0.7091  0.4470
   59MOL    H2732623   1.968   7.440   2.857  0.9181  0.3202 -0.8757
   59MOL    H2832624   2.183   7.532   2.831 -3.1375 -1.1912 -1.4948
   59MOL    H2932625   2.520   7.358   2.930 -1.0458 -0.6579  1.6738
   59MOL    C3032626   1.461   6.615   3.187  0.9644  0.2500  0.2498
   59MOL    C3132627   1.568   6.602   3.294  0.2405 -0.0391  0.5275
   59MOL    C3232628   1.613   6.714   3.367  0.2017  0.2231 -0.4255
   59MOL    C3332629   1.710   6.691   3.467  0.0258  0.3448 -0.2885
   59MOL    C3432630   1.763   6.559   3.485 -0.0568 -0.2977  0.0885
   59MOL    C3532631   1.850   6.534   3.602 -0.2876 -0.3058  0.4384
   59MOL    N3632632   1.824   6.422   3.671 -0.2762 -0.1692  0.1928
   59MOL    C3732633   1.878   6.376   3.791  1.2248  0.3561 -0.3058
   59MOL    C3832634   1.936   6.467   3.887  0.9024 -0.8914 -0.0864
   59MOL    C3932635   1.995   6.408   4.002  0.5283 -0.3897 -0.1619
   59MOL    C4032636   2.003   6.273   4.021  0.2681  0.2342  0.4013
   59MOL    N4132637   2.068   6.217   4.137 -0.1571  0.0178 -1.1601
   59MOL    C4232638   1.935   6.185   3.931 -0.1521  0.5835 -0.1043
   59MOL    C4332639   1.870   6.235   3.819 -0.3407 -0.6165  0.0162
   59MOL    O4432640   1.929   6.624   3.636 -0.4063 -0.2987  1.1289
   59MOL    C4532641   1.714   6.451   3.413  0.0579 -0.0989  0.2440
   59MOL    C4632642   1.609   6.467   3.322 -0.5434  0.2523 -0.1424
   59MOL    O4732643   1.372   6.529   3.170  0.5928  0.0612  0.5010
   59MOL    H4832644   1.577   6.814   3.348 -0.1679 -0.0005 -0.8957
   59MOL    H4932645   1.728   6.773   3.535 -3.1291  1.2573 -0.4407
   59MOL    H5032646   1.777   6.350   3.617  0.9561 -0.7268 -0.1490
   59MOL    H5132647   1.922   6.573   3.878  0.9317 -0.8243  0.6225
   59MOL    H5232648   2.046   6.479   4.066 -0.4564 -0.1709  0.3948
   59MOL    H5332649   2.051   6.261   4.226 -0.4717  0.2527 -1.3357
   59MOL    H5432650   1.947   6.078   3.940 -1.0546  0.3900 -1.0725
   59MOL    H5532651   1.817   6.174   3.747 -0.1004  1.5089 -2.0690
   59MOL    H5632652   1.753   6.350   3.422 -1.1738 -0.6400 -0.2828
   59MOL    H5732653   1.589   6.374   3.271  0.5963 -0.2309  0.2724
   59MOL    C5832654   2.130   6.094   4.135  0.1735 -0.4109 -0.0773
   59MOL    C5932655   2.152   6.020   4.262  0.3770  0.0839  0.4818
   59MOL    C6032656   2.174   6.091   4.383 -0.1967 -0.1697 -0.0286
   59MOL    C6132657   2.212   6.020   4.495  0.1876 -0.3538 -0.6170
   59MOL    C6232658   2.211   5.876   4.497 -0.2420  0.2171 -0.3579
   59MOL    C6332659   2.233   5.812   4.629 -0.7923 -0.4742  0.0743
   59MOL    N6432660   2.315   5.710   4.633 -0.0133  0.3533 -0.2365
   59MOL    C6532661   2.363   5.646   4.746  0.6506 -0.4393  0.3030
   59MOL    C6632662   2.373   5.508   4.733  0.0064  0.0267  0.1523
   59MOL    C6732663   2.429   5.433   4.832  0.1097 -0.5354  0.6845
   59MOL    C6832664   2.477   5.496   4.952  0.7864  1.0941  0.1913
   59MOL    N6932665   2.538   5.419   5.050  0.2672 -0.8202 -0.3259
   59MOL    C7032666   2.464   5.641   4.966  0.1526  0.6158  0.0652
   59MOL    C7132667   2.414   5.717   4.860 -0.4036  0.6511 -0.6438
   59MOL    O7232668   2.179   5.861   4.726 -0.1623 -0.0179  0.0583
   59MOL    C7332669   2.195   5.813   4.376 -0.7278  0.2479  0.5593
   59MOL    C7432670   2.164   5.882   4.260  0.4103 -0.1894  0.0435
   59MOL    O7532671   2.174   6.040   4.029 -0.1175 -0.1296 -0.0121
   59MOL    H7632672   2.175   6.197   4.406  3.8175 -0.6090  2.3985
   59MOL    H7732673   2.224   6.077   4.586  0.3537  2.0864 -2.1129
   59MOL    H7832674   2.340   5.669   4.544  0.7857 -0.5582  0.3997
   59MOL    H7932675   2.340   5.448   4.649 -0.4806  0.1999  0.2200
   59MOL    H8032676   2.424   5.327   4.811  1.5070 -0.3069 -0.9045
   59MOL    H8132677   2.478   5.405   5.130  0.7342  0.0765  0.1809
   59MOL    H8232678   2.494   5.684   5.060  1.0113  0.6596 -0.2208
   59MOL    H8332679   2.417   5.823   4.876 -2.2198  0.5326  0.7348
   59MOL    H8432680   2.198   5.705   4.373 -0.6099  0.2306  1.2901
   59MOL    H8532681   2.148   5.830   4.166  2.4989  2.2902 -1.7705
   59MOL    C8632682   2.645   5.346   5.041 -0.0899  0.0726 -0.1379
   59MOL    C8732683   2.673   5.255   5.152 -0.2580  0.6114 -0.8702
   59MOL    C8832684   2.723   5.305   5.272 -0.0758  0.0459 -0.3329
   59MOL    C8932685   2.749   5.216   5.371  0.1795 -0.4790  0.3888
   59MOL    C9032686   2.726   5.078   5.354 -0.0885 -0.0694  0.6025
   59MOL    C9132687   2.759   4.983   5.465 -0.6074 -0.3244 -0.0985
   59MOL    N9232688   2.702   4.867   5.450 -0.0766  0.7030  0.2739
   59MOL    C9332689   2.706   4.752   5.528 -0.0293  0.2287 -1.0356
   59MOL    C9432690   2.619   4.645   5.494  0.3349  0.0962 -0.0276
   59MOL    C9532691   2.598   4.524   5.571 -0.3162 -0.3059 -0.6815
   59MOL    C9632692   2.678   4.513   5.691 -0.1187 -0.0388 -0.1362
   59MOL    N9732693   2.657   4.413   5.785 -0.5939 -0.0326 -0.1284
   59MOL    C9832694   2.769   4.620   5.726  0.5886  0.1638  0.2341
   59MOL    C9932695   2.787   4.737   5.642 -0.0975 -0.2694 -0.3649
   59MOL   O10032696   2.821   5.022   5.562  0.2353 -0.3786  0.5830
   59MOL   C10132697   2.684   5.031   5.226 -0.1017 -0.1921  0.4490
   59MOL   C10232698   2.656   5.120   5.125  0.3578  0.4476 -0.2150
   59MOL   O10332699   2.718   5.342   4.940 -0.2862  0.0147 -0.1955
   59MOL   H10432700   2.732   5.409   5.301 -0.2076 -0.1787  0.5377
   59MOL   H10532701   2.781   5.239   5.472  0.9151 -0.9698  0.2692
   59MOL   H10632702   2.644   4.860   5.367 -0.1603  0.9015  0.3143
   59MOL   H10732703   2.558   4.655   5.406  0.9540 -1.2492 -0.6201
   59MOL   H10832704   2.513   4.458   5.560 -0.0985 -0.8316  0.7218
   59MOL   H10932705   2.701   4.434   5.874 -0.3504  0.8067 -0.4360
   59MOL   H11032706   2.828   4.602   5.815 -0.0943 -2.0661  0.2755
   59MOL   H11132707   2.862   4.807   5.676 -2.9486  2.2752  0.9363
   59MOL   H11232708   2.680   4.926   5.201 -0.6315 -0.6982  2.5973
   59MOL   H11332709   2.619   5.087   5.030 -0.9928  1.6090 -0.1013
   59MOL   C11432710   2.673   4.284   5.758  0.1793 -0.0675  0.3238
   59MOL   C11532711   2.660   4.189   5.875 -0.3176  0.1610 -0.7587
   59MOL   C11632712   2.697   4.055   5.855 -0.7199  0.1571 -0.3124
   59MOL   C11732713   2.657   3.962   5.959 -0.3183  0.8454 -0.0959
   59MOL   C11832714   2.610   4.003   6.082  0.7293  0.5964 -0.6067
   59MOL   C11932715   2.579   3.904   6.194  0.1567 -0.3076  0.6179
   59MOL   N12032716   2.467   3.923   6.257  0.3676 -0.5414  0.4032
   59MOL   C12132717   2.377   3.834   6.323 -0.4170 -0.6845 -0.9856
   59MOL   C12232718   2.241   3.841   6.285  0.7888  0.4875  0.1988
   59MOL   C12332719   2.163   3.738   6.336 -0.3595  0.8047  0.5039
   59MOL   C12432720   2.218   3.637   6.425 -0.5503  0.7127  1.0006
   59MOL   N12532721   2.138   3.523   6.461 -0.0325 -0.0261 -0.1672
   59MOL   C12632722   2.344   3.654   6.479  0.6511  0.3623 -0.2493
   59MOL   C12732723   2.429   3.748   6.429  0.6200  0.8049  0.9834
   59MOL   O12832724   2.655   3.809   6.216  0.8085  0.0801  0.6816
   59MOL   C12932725   2.570   4.137   6.094  0.2654 -0.7216 -0.7699
   59MOL   C13032726   2.593   4.236   5.995 -0.7168  0.2274  0.1477
   59MOL   O13132727   2.722   4.246   5.655  0.1267  0.3367  0.2515
   59MOL   H13232728   2.738   4.023   5.760 -0.4477 -1.0207  0.1907
   59MOL   H13332729   2.668   3.856   5.940  1.9290  0.6520  1.9610
   59MOL   H13432730   2.427   4.009   6.223  0.8935  0.5513  2.4990
   59MOL   H13532731   2.192   3.906   6.214 -0.8739 -0.8494  0.0851
   59MOL   H13632732   2.059   3.726   6.310  0.4800 -0.6544 -2.3382
   59MOL   H13732733   2.054   3.536   6.515  0.0906 -1.9001  0.5441
   59MOL   H13832734   2.380   3.579   6.547 -1.9332 -2.9884 -2.4088
   59MOL   H13932735   2.532   3.751   6.462  0.2998 -1.5798  2.3210
   59MOL   H14032736   2.517   4.176   6.180  0.9588  0.1211 -0.7150
   59MOL   H14132737   2.569   4.341   6.000  0.2686  0.6778 -3.0902
   59MOL   C14232738   2.157   3.397   6.416 -0.0684  0.7378  0.1893
   59MOL   C14332739   2.262   3.365   6.311 -0.2902  0.6236 -0.3110
   59MOL   C14432740   2.279   3.446   6.195 -0.1165 -0.4588 -0.1296
   59MOL   C14532741   2.394   3.446   6.116 -0.1677  0.0669 -0.0638
   59MOL   C14632742   2.493   3.357   6.158 -0.2097 -0.6899  0.5781
   59MOL   C14732743   2.624   3.369   6.092 -0.3615  0.2188  0.3899
   59MOL   N14832744   2.633   3.382   5.961  0.3787  0.0861  0.2037
   59MOL   C14932745   2.754   3.416   5.891 -0.8332  0.3416  0.2921
   59MOL   C15032746   2.761   3.373   5.754  0.1407  0.5230  0.8604
   59MOL   C15132747   2.876   3.407   5.681  0.1889  0.8267  0.3561
   59MOL   C15232748   2.981   3.486   5.739  0.6080 -0.7190  0.4861
   59MOL   N15332749   3.094   3.509   5.661  0.3153 -0.9579 -0.5808
   59MOL   C15432750   2.965   3.530   5.869 -0.8268  0.1965 -0.0281
   59MOL   C15532751   2.856   3.493   5.947 -0.0688  0.2225 -0.0513
   59MOL   O15632752   2.719   3.375   6.166 -0.6596 -0.5998 -0.1948
   59MOL   C15732753   2.481   3.271   6.273 -0.1977 -0.4021  0.4678
   59MOL   C15832754   2.367   3.270   6.343  1.2380 -0.5494  0.1329
   59MOL   O15932755   2.078   3.312   6.464 -0.5311 -0.0453  0.6430
   59MOL   H16032756   2.205   3.523   6.173 -0.5811 -0.3417  1.7756
   59MOL   H16132757   2.418   3.518   6.040  1.2860 -0.3077  0.0231
   59MOL   H16232758   2.548   3.364   5.911  0.8806 -1.6244 -0.0741
   59MOL   H16332759   2.685   3.318   5.701  0.6454 -0.6899  1.3652
   59MOL   H16432760   2.885   3.370   5.580 -0.0559  1.3591  0.1363
   59MOL   H16532761   3.090   3.480   5.565  0.6068  0.8785 -1.1815
   59MOL   H16632762   3.042   3.593   5.911 -1.6820  1.8357 -0.8750
   59MOL   H16732763   2.850   3.533   6.047  4.4106  0.1641  0.3735
   59MOL   H16832764   2.560   3.201   6.294  0.8245  0.2820 -1.0393
   59MOL   H16932765   2.365   3.202   6.427  1.5502  0.9024  1.3527
   59MOL   C17032766   3.189   3.603   5.670 -0.4791  0.0073  0.2431
   59MOL   C17132767   3.239   3.652   5.540 -0.1802 -0.7590 -0.9583
   59MOL   C17232768   3.375   3.702   5.533 -0.7726  0.0559  0.0722
   59MOL   C17332769   3.408   3.770   5.410 -0.0454  0.3623 -0.0190
   59MOL   C17432770   3.322   3.777   5.298 -0.1236 -0.4888  0.0078
   59MOL   C17532771   3.361   3.846   5.172  0.0864 -0.1112 -0.4561
   59MOL   N17632772   3.263   3.925   5.125  0.3216 -1.0294  0.2230
   59MOL   C17732773   3.249   4.005   5.009  0.3001 -0.0807  0.4442
   59MOL   C17832774   3.355   4.021   4.913 -0.0219  0.5714 -1.0595
   59MOL   C17932775   3.335   4.096   4.796 -0.1169  0.0495  0.2218
   59MOL   C18032776   3.214   4.162   4.779 -0.0793 -0.3913 -0.6086
   59MOL   N18132777   3.183   4.244   4.669 -0.1384  0.0592  0.0768
   59MOL   C18232778   3.109   4.158   4.880 -0.7534 -0.1492 -0.9050
   59MOL   C18332779   3.128   4.077   4.994  0.4907 -0.4041 -0.0564
   59MOL   O18432780   3.480   3.843   5.125 -0.4080 -0.2318 -0.2665
   59MOL   C18532781   3.195   3.717   5.313 -0.1265 -0.5677  0.4389
   59MOL   C18632782   3.153   3.656   5.430 -0.0726 -0.8781  0.3745
   59MOL   O18732783   3.246   3.651   5.771  0.7205  0.5597  0.1837
   59MOL   H18832784   3.450   3.703   5.611 -0.6808 -1.9144  0.0240
   59MOL   H18932785   3.502   3.819   5.391  1.3562 -3.1685 -2.8622
   59MOL   H19032786   3.182   3.929   5.185  1.3119 -1.6639  1.6381
   59MOL   H19132787   3.447   3.965   4.927  0.6154  1.4324 -1.7337
   59MOL   H19232788   3.407   4.098   4.715 -2.7169 -2.7460 -2.2634
   59MOL   H19332789   3.139   4.333   4.684  2.5299  1.7655 -1.8176
   59MOL   H19432790   3.018   4.214   4.870 -0.0608  1.5390  1.9166
   59MOL   H19532791   3.046   4.069   5.064  1.2255  0.5390  0.9332
   59MOL   H19632792   3.133   3.724   5.224  2.2926  1.5828 -1.1494
   59MOL   H19732793   3.053   3.616   5.432 -0.8864  1.0087 -1.3751
   59MOL   C19832794   3.213   4.226   4.542  0.7210  0.7500 -0.0505
   59MOL   C19932795   3.154   4.319   4.442 -0.1042 -0.4186  0.0477
   59MOL   C20032796   3.131   4.270   4.315 -0.0821  0.5941 -0.2608
   59MOL   C20132797   3.069   4.357   4.220  0.7018  0.7026 -0.4278
   59MOL   C20232798   3.039   4.488   4.251  0.5278  0.0844 -1.1966
   59MOL   C20332799   2.971   4.579   4.157 -1.0867 -0.6690  0.7902
   59MOL   N20432800   2.837   4.602   4.183  0.4140 -0.8897  0.9286
   59MOL   C20532801   2.770   4.539   4.286 -0.1241 -0.7860 -0.0335
   59MOL   C20632802   2.750   4.605   4.408 -0.5352  0.1022 -0.0601
   59MOL   C20732803   2.704   4.533   4.517 -0.2921  0.0886  0.3441
   59MOL   C20832804   2.676   4.396   4.504 -0.0809 -0.2869 -0.2167
   59MOL   N20932805   2.639   4.326   4.624  0.4582  0.6801  0.5250
   59MOL   C21032806   2.676   4.336   4.378  0.5709  0.5958  0.7287
   59MOL   C21132807   2.721   4.409   4.271 -0.3591 -0.4326 -0.0397
   59MOL   O21232808   3.037   4.613   4.057  0.3330  0.0703  0.2474
   59MOL   C21332809   3.064   4.533   4.384 -0.1109  0.3219  0.2709
   59MOL   C21432810   3.127   4.453   4.477 -0.3345 -0.3460  0.3492
   59MOL   O21532811   3.289   4.133   4.502  0.3675 -0.0267 -0.1139
   59MOL   H21632812   3.148   4.169   4.283 -0.6062  0.1003  0.9482
   59MOL   H21732813   3.052   4.310   4.124  0.0091 -4.0515  1.9237
   59MOL   H21832814   2.795   4.665   4.116 -2.3388 -0.6180  2.8422
   59MOL   H21932815   2.784   4.706   4.420 -1.5671  0.6417 -1.5348
   59MOL   H22032816   2.692   4.586   4.610 -0.0408  2.3688 -0.8767
   59MOL   H22132817   2.596   4.371   4.704  0.9364 -1.1370  1.8478
   59MOL   H22232818   2.638   4.237   4.357  0.5589  0.9229 -0.8583
   59MOL   H22332819   2.725   4.354   4.178 -4.2766 -0.9060 -0.0065
   59MOL   H22432820   3.046   4.634   4.417  2.4399  0.3239  1.8008
   59MOL   H22532821   3.146   4.482   4.580  2.8346  1.6574 -0.7274
   59MOL   C22632822   2.657   4.198   4.653 -0.5428 -0.5464 -0.0129
   59MOL   C22732823   2.602   4.145   4.784  0.4253  0.1797 -0.3740
   59MOL   C22832824   2.476   4.192   4.826 -0.2896 -0.1780 -0.3992
   59MOL   C22932825   2.413   4.149   4.944 -0.4710  0.1631  0.4642
   59MOL   C23032826   2.480   4.048   5.016  0.1568  0.4046  0.4057
   59MOL   C23132827   2.407   3.981   5.126 -0.1757  0.3803  0.7007
   59MOL   N23232828   2.321   4.050   5.200  0.2687 -0.4581 -0.7841
   59MOL   C23332829   2.209   4.011   5.273  0.4533  0.3785  0.2578
   59MOL   C23432830   2.202   3.895   5.364  0.6450 -0.4005  0.2991
   59MOL   C23532831   2.082   3.855   5.413  0.1610  0.4756 -0.4134
   59MOL   C23632832   1.963   3.924   5.371 -0.2058 -0.2965 -0.4464
   59MOL   N23732833   1.844   3.874   5.421 -0.2879 -0.3990  0.5262
   59MOL   C23832834   1.967   4.048   5.301  0.4839  0.5606  0.9703
   59MOL   C23932835   2.093   4.093   5.249  0.1925  0.1538  0.2694
   59MOL   O24032836   2.447   3.871   5.163 -0.3769  0.1063  0.4694
   59MOL   C24132837   2.608   4.003   4.981  0.4037  0.0741  0.1849
   59MOL   C24232838   2.669   4.053   4.860  0.3177 -0.3608  0.0574
   59MOL   O24332839   2.732   4.130   4.587  0.0582 -0.2172  0.3717
   59MOL   H24432840   2.421   4.267   4.771 -0.0488  0.0672 -0.3071
   59MOL   H24532841   2.313   4.178   4.973 -1.6905 -1.1810 -2.3111
   59MOL   H24632842   2.321   4.148   5.176  0.0319 -0.4002 -0.5561
   59MOL   H24732843   2.291   3.834   5.378  0.4862 -0.8064 -0.4080
   59MOL   H24832844   2.080   3.755   5.454 -1.8782  1.4532  1.9868
   59MOL   H24932845   1.829   3.892   5.519  2.8599 -1.6917  1.3255
   59MOL   H25032846   1.879   4.104   5.274 -0.0500 -0.5977  0.2476
   59MOL   H25132847   2.105   4.178   5.184  0.8122  0.1329  0.3508
   59MOL   H25232848   2.648   3.916   5.032  1.0382  1.8346  2.7533
   59MOL   H25332849   2.762   4.015   4.820 -1.5927 -0.4508 -4.6056
   59MOL   C25432850   1.757   3.805   5.350  0.1674 -0.1667  0.3338
   59MOL   C25532851   1.636   3.748   5.420  0.3495 -0.8478  1.1335
   59MOL   C25632852   1.510   3.759   5.358 -0.1680 -0.0165  0.3070
   59MOL   C25732853   1.391   3.703   5.413  0.5669 -0.0297  0.4164
   59MOL   C25832854   1.401   3.614   5.523 -0.8332 -0.6192 -0.0795
   59MOL   C25932855   1.290   3.552   5.590 -0.2353 -0.3821  0.2621
   59MOL   N26032856   1.212   3.493   5.501  0.3648 -0.1126 -0.0607
   59MOL   C26132857   1.094   3.418   5.508 -0.7240  0.1847  0.0292
   59MOL   C26232858   1.059   3.349   5.623  0.4617 -0.6334  0.7144
   59MOL   C26332859   0.935   3.280   5.623  0.4207  0.2971  0.4704
   59MOL   C26432860   0.852   3.283   5.506  1.1697 -0.4463  0.1097
   59MOL   N26532861   0.720   3.222   5.518 -0.3692 -0.0676 -0.1426
   59MOL   C26632862   0.899   3.330   5.382 -0.2022  0.1701  0.8373
   59MOL   C26732863   1.023   3.399   5.385 -0.3807 -0.4843  0.1071
   59MOL   O26832864   1.281   3.553   5.710  0.0206  0.4658  0.7016
   59MOL   C26932865   1.525   3.615   5.599  0.3246 -0.5435  0.7203
   59MOL   C27032866   1.642   3.681   5.542 -0.5767  0.7993 -0.2083
   59MOL   O27132867   1.768   3.796   5.226 -0.2360  0.6685  0.2450
   59MOL   H27232868   1.500   3.814   5.266  1.0505  3.4124  2.1331
   59MOL   H27332869   1.298   3.716   5.360  1.4013 -0.6596 -1.2400
   59MOL   H27432870   1.246   3.516   5.408  1.2756 -0.2747  0.2258
   59MOL   H27532871   1.117   3.360   5.714  0.6290 -0.2663  0.5682
   59MOL   H27632872   0.888   3.235   5.709 -2.4684  1.9082 -0.1949
   59MOL   H27732873   0.714   3.123   5.534 -0.1026 -0.1376 -0.4544
   59MOL   H27832874   0.843   3.341   5.290 -1.0948  1.8568  1.5514
   59MOL   H27932875   1.055   3.454   5.298 -0.8663 -0.5799 -0.1283
   59MOL   H28032876   1.530   3.553   5.687  1.0094 -1.6031 -0.0461
   59MOL   H28132877   1.734   3.684   5.598 -2.0949 -1.5005  2.5623
   59MOL   C28232878   0.598   3.278   5.486 -0.1559  0.5329  0.1190
   59MOL   C28332879   0.589   3.394   5.390 -0.1322  0.3023 -0.2226
   59MOL   C28432880   0.664   3.515   5.416  0.4356 -0.3460 -0.2835
   59MOL   C28532881   0.650   3.625   5.328 -0.3036  0.0873 -0.8547
   59MOL   C28632882   0.558   3.613   5.223 -0.0388  0.1545  0.1508
   59MOL   C28732883   0.525   3.735   5.135 -0.8736 -0.1570  0.3710
   59MOL   N28832884   0.630   3.806   5.106 -0.4502  0.2590  0.2250
   59MOL   C28932885   0.636   3.936   5.058 -0.8017  0.1753  0.1808
   59MOL   C29032886   0.725   3.964   4.952 -0.0568 -0.0070  0.0249
   59MOL   C29132887   0.731   4.097   4.897  0.4770 -0.7389  0.2487
   59MOL   C29232888   0.640   4.199   4.944 -0.3624 -0.4132 -0.6172
   59MOL   N29332889   0.631   4.327   4.883  0.4395  0.3005  0.6449
   59MOL   C29432890   0.563   4.171   5.065 -0.2313  0.1299 -0.1052
   59MOL   C29532891   0.561   4.040   5.116  0.2022  0.5259  0.9183
   59MOL   O29632892   0.409   3.757   5.097  0.4424 -0.0854 -0.4161
   59MOL   C29732893   0.481   3.492   5.200 -0.1108  0.1827 -0.3511
   59MOL   C29832894   0.497   3.387   5.282 -0.4744  0.2394  0.3968
   59MOL   O29932895   0.499   3.213   5.524  0.2022  0.0162  0.5023
   59MOL   H30032896   0.736   3.520   5.496 -0.7387  0.2188  0.7463
   59MOL   H30132897   0.699   3.716   5.357 -1.9578  0.9250 -0.6407
   59MOL   H30232898   0.718   3.761   5.127  0.4283  2.6009  1.8136
   59MOL   H30332899   0.787   3.894   4.898  1.2605  1.3556 -0.2438
   59MOL   H30432900   0.802   4.110   4.817 -0.3443 -0.9488 -0.5221
   59MOL   H30532901   0.543   4.367   4.913 -1.6071 -1.6559 -2.3557
   59MOL   H30632902   0.487   4.234   5.108 -0.1053 -0.8039  1.5203
   59MOL   H30732903   0.491   4.018   5.195  1.2837 -3.2311  0.8959
   59MOL   H30832904   0.399   3.491   5.130  2.2308  0.5667 -3.1935
   59MOL   H30932905   0.440   3.295   5.285 -1.8084  1.0465  0.3969
   59MOL   C31032906   0.707   4.375   4.780 -0.3824 -0.3123 -0.1438
   59MOL   C31132907   0.655   4.487   4.698 -0.3313 -0.4846  0.0158
   59MOL   C31232908   0.739   4.573   4.626  0.1304  0.2223  0.7160
   59MOL   C31332909   0.684   4.670   4.536 -0.0200 -0.3222 -0.0688
   59MOL   C31432910   0.545   4.686   4.524 -0.2539 -0.0203  0.7786
   59MOL   C31532911   0.490   4.793   4.440  0.0437  0.0712 -0.0551
   59MOL   N31632912   0.561   4.823   4.331 -0.0123  0.5192 -0.0349
   59MOL   C31732913   0.538   4.915   4.224  0.7575 -0.3521  0.5857
   59MOL   C31832914   0.565   4.878   4.092 -0.0649 -0.3203  0.3325
   59MOL   C31932915   0.548   4.971   3.991 -0.2579  0.1828  0.1141
   59MOL   C32032916   0.504   5.100   4.025 -0.1924 -0.1425 -0.9420
   59MOL   N32132917   0.471   5.196   3.923 -0.6263 -0.2161  0.8030
   59MOL   C32232918   0.489   5.138   4.160  0.3886  0.4307  0.3839
   59MOL   C32332919   0.501   5.044   4.262 -0.2302  0.6378 -0.1462
   59MOL   O32432920   0.384   4.837   4.470  0.4142 -0.1041 -0.3996
   59MOL   C32532921   0.462   4.598   4.597 -0.0081 -0.1709  0.4995
   59MOL   C32632922   0.515   4.505   4.688  0.4097  0.4254 -0.4436
   59MOL   O32732923   0.823   4.342   4.773 -0.4680  0.1970  0.6985
   59MOL   H32832924   0.846   4.572   4.641  0.5419 -1.8183 -1.9921
   59MOL   H32932925   0.747   4.736   4.478  0.2332  0.9009  1.5820
   59MOL   H33032926   0.632   4.753   4.315  0.5687  1.0658  0.1525
   59MOL   H33132927   0.602   4.778   4.075  2.2063  0.3540  1.0965
   59MOL   H33232928   0.554   4.941   3.887 -0.5795 -1.4995  0.5709
   59MOL   H33332929   0.550   5.218   3.864 -1.1331  0.4782  0.3667
   59MOL   H33432930   0.446   5.232   4.191 -2.8169 -0.9228  0.1604
   59MOL   H33532931   0.493   5.068   4.367 -0.0447  1.1447 -0.2485
   59MOL   H33632932   0.354   4.600   4.585  0.1488 -0.1089 -0.9951
   59MOL   H33732933   0.448   4.442   4.744  2.2655  0.9628  2.5084
   59MOL   C33832934   0.373   5.287   3.928  0.5954  0.8874 -0.3866
   59MOL   C33932935   0.384   5.407   3.834 -0.2256  0.5883  0.3436
   59MOL   C34032936   0.414   5.395   3.693 -0.2947  0.1758  0.0317
   59MOL   C34132937   0.424   5.509   3.612 -0.7243  0.8224  0.4457
   59MOL   C34232938   0.406   5.631   3.668 -0.4232  0.0221 -0.1923
   59MOL   C34332939   0.429   5.758   3.593  0.0109 -0.1652 -0.2658
   59MOL   N34432940   0.348   5.862   3.633 -0.4797  0.3805 -0.7316
   59MOL   C34532941   0.360   5.991   3.578 -0.3919 -0.0554 -0.3665
   59MOL   C34632942   0.333   6.023   3.445  0.2967 -0.1742 -0.4075
   59MOL   C34732943   0.332   6.159   3.400 -1.1589 -0.2885  0.8336
   59MOL   C34832944   0.351   6.270   3.490 -0.0321  0.3623 -1.1988
   59MOL   N34932945   0.355   6.409   3.457 -0.1462  0.0437  0.7638
   59MOL   C35032946   0.358   6.237   3.625 -0.2556 -0.7425  0.6615
   59MOL   C35132947   0.374   6.104   3.674  0.2930  0.6615  0.8277
   59MOL   O35232948   0.526   5.773   3.513  0.5033 -0.8162  0.5205
   59MOL   C35332949   0.373   5.646   3.800 -0.3581 -0.3467 -0.5337
   59MOL   C35432950   0.360   5.537   3.884 -0.2829 -0.6491  0.5403
   59MOL   O35532951   0.281   5.272   4.002 -0.4539 -0.2845 -0.1182
   59MOL   H35632952   0.419   5.305   3.634  0.2455  1.8306 -2.5048
   59MOL   H35732953   0.455   5.511   3.509 -1.8489 -0.8350  0.0486
   59MOL   H35832954   0.281   5.855   3.707  0.8087 -0.3868  0.3862
   59MOL   H35932955   0.312   5.958   3.362 -2.0924 -1.7800  1.3997
   59MOL   H36032956   0.329   6.164   3.292 -1.5107 -2.1341  0.7467
   59MOL   H36132957   0.392   6.477   3.521  0.6442  0.7957 -0.4531
   59MOL   H36232958   0.357   6.313   3.702  1.4686  1.5493 -1.4941
   59MOL   H36332959   0.402   6.082   3.776 -0.7722 -2.6199  0.4664
   59MOL   H36432960   0.354   5.741   3.847  0.9347 -0.2019 -0.2628
   59MOL   H36532961   0.334   5.551   3.988  0.0504  1.7345  0.3150
   59MOL   C36632962   0.316   6.468   3.341 -0.8119  0.4238 -0.1273
   59MOL   C36732963   0.378   6.603   3.322  0.1919  0.1910 -0.3489
   59MOL   C36832964   0.509   6.628   3.376  0.3272 -0.2314  0.0092
   59MOL   C36932965   0.567   6.757   3.371 -0.2561 -0.0781  1.0206
   59MOL   C37032966   0.499   6.863   3.308 -0.7763 -0.6408  0.1436
   59MOL   C37132967   0.567   6.994   3.281  0.0222 -0.5861  0.0758
   59MOL   N37232968   0.685   7.026   3.334 -0.0633 -0.2539 -0.5423
   59MOL   C37332969   0.780   7.132   3.296  0.4323  0.0876 -0.5058
   59MOL   C37432970   0.802   7.166   3.163 -0.0727 -0.1987 -0.0552
   59MOL   C37532971   0.900   7.260   3.116  0.0899  0.0315  0.1512
   59MOL   C37632972   0.971   7.324   3.226 -0.0479  0.0597  0.6691
   59MOL   N37732973   1.077   7.418   3.194 -0.5087  0.5451  0.5030
   59MOL   C37832974   0.944   7.299   3.366  0.5170 -0.4763 -0.0634
   59MOL   C37932975   0.857   7.197   3.395 -0.1540  0.0084 -0.0426
   59MOL   O38032976   0.506   7.081   3.218  0.6186  0.5912  0.5870
   59MOL   C38132977   0.367   6.841   3.271 -0.7294 -0.1142 -0.1929
   59MOL   C38232978   0.302   6.717   3.282  0.5116 -0.4946 -0.1407
   59MOL   O38332979   0.237   6.421   3.262 -0.3512 -0.1871 -0.7594
   59MOL   H38432980   0.571   6.552   3.422  0.7258  0.3261  0.3905
   59MOL   H38532981   0.673   6.765   3.390 -0.3750 -0.6418  1.9315
   59MOL   H38632982   0.714   6.965   3.409 -1.1331  1.3366  1.1775
   59MOL   H38732983   0.737   7.116   3.092  0.6148 -1.2081  0.0195
   59MOL   H38832984   0.926   7.290   3.016 -0.3846 -0.7425 -0.2120
   59MOL   H38932985   1.161   7.422   3.249 -0.3461  0.0149  0.2908
   59MOL   H39032986   0.998   7.345   3.447 -2.8351  2.7125  0.5261
   59MOL   H39132987   0.850   7.158   3.495  0.4722  0.5789  0.2234
   59MOL   H39232988   0.314   6.928   3.234  0.3811  0.2389 -0.9688
   59MOL   H39332989   0.197   6.710   3.258  0.0620  1.8214  0.9361
   59MOL   C39432990   1.065   7.534   3.122 -0.3355  1.0452  0.0779
   59MOL   C39532991   1.191   7.627   3.123  0.0281  0.5094  0.4734
   59MOL   C39632992   1.284   7.631   3.235  0.3123  0.3083 -0.6314
   59MOL   C39732993   1.377   7.729   3.241 -0.5119 -0.1500 -0.0924
   59MOL   C39832994   1.393   7.826   3.138 -0.5381 -0.6929  0.3463
   59MOL   C39932995   1.499   7.936   3.140 -0.3289 -0.0785  0.1110
   59MOL   N40032996   1.559   7.961   3.261 -0.1126 -0.8934  0.7940
   59MOL   C40132997   1.669   8.046   3.295  1.0825 -0.0740 -0.5819
   59MOL   C40232998   1.746   8.019   3.405 -0.6832 -0.1544  0.7209
   59MOL   C40332999   1.844   8.110   3.454  0.6484 -0.4666 -0.0199
   59MOL   C40433000   1.861   0.096   3.392  0.3598 -0.7378  0.4635
   59MOL   N40533001   1.947   0.196   3.451 -0.0466 -0.3985  0.3197
   59MOL   C40633002   1.777   0.128   3.281 -0.3078 -0.4628 -0.8838
   59MOL   C40733003   1.681   0.033   3.240 -0.2862 -0.1849 -0.8068
   59MOL   O40833004   1.529   7.990   3.036  0.4842  0.7321 -1.1885
   59MOL   C40933005   1.302   7.821   3.029 -0.0585  0.0583 -0.3484
   59MOL   C41033006   1.199   7.718   3.020 -0.5096  0.7402  0.0269
   59MOL   O41133007   0.962   7.556   3.060  0.7522 -0.2205 -0.9104
   59MOL   H41233008   1.274   7.565   3.320  0.3195  3.5189  1.9530
   59MOL   H41333009   1.439   7.719   3.328  0.9367  0.2804 -1.0448
   59MOL   H41433010   1.539   7.902   3.341  1.4865 -0.9591  1.1677
   59MOL   H41533011   1.742   7.921   3.449 -0.9463 -0.8130 -0.7516
   59MOL   H41633012   1.890   8.091   3.550  0.1474 -0.0384  0.3085
   59MOL   H41733013   2.014   0.170   3.523  1.7273  1.6608 -0.5238
   59MOL   H41833014   1.790   0.221   3.228  2.6919 -1.9293 -2.8975
   59MOL   H41933015   1.617   0.049   3.154 -0.1490  0.8299 -0.7199
   59MOL   H42033016   1.321   7.882   2.942  1.1239  0.7866  0.4098
   59MOL   H42133017   1.142   7.717   2.929  0.4823 -0.9101 -0.5951
   59MOL   C42233018   1.948   0.325   3.433 -1.1837  0.1868  0.4017
   59MOL   C42333019   2.068   0.390   3.501 -0.2002 -0.3770  0.4689
   59MOL   C42433020   2.169   0.451   3.421  0.1338  0.8151 -0.0522
   59MOL   C42533021   2.262   0.538   3.477  0.3099 -0.6729 -0.0538
   59MOL   C42633022   2.266   0.550   3.616 -0.0177 -0.1332  0.1507
   59MOL   C42733023   2.365   0.652   3.678  0.6896 -0.0172  0.2797
   59MOL   N42833024   2.363   0.666   3.812  0.0700 -0.3377 -0.3760
   59MOL   C42933025   2.449   0.742   3.900  0.1317 -0.2544  0.0672
   59MOL   C43033026   2.502   0.672   4.011 -0.5433  0.2507 -0.4993
   59MOL   C43133027   2.575   0.746   4.108 -0.1537  0.2678  0.2267
   59MOL   C43233028   2.609   0.883   4.084  0.3887 -0.2796 -1.0178
   59MOL   N43333029   2.684   0.962   4.169  0.4220  0.2708 -0.0856
   59MOL   C43433030   2.550   0.943   3.973  0.6203 -0.1735 -0.2158
   59MOL   C43533031   2.461   0.880   3.887 -0.1714  0.3005 -0.1481
   59MOL   O43633032   2.433   0.718   3.610 -0.1167  0.4043  0.0906
   59MOL   C43733033   2.173   0.476   3.697 -0.4346  0.2587 -0.7613
   59MOL   C43833034   2.077   0.400   3.636 -0.2259  0.1337  0.1032
   59MOL   O43933035   1.859   0.393   3.381  0.5613  0.3300 -0.0435
   59MOL   H44033036   2.162   0.444   3.314  0.3962 -0.9901  0.0290
   59MOL   H44133037   2.335   0.589   3.416 -1.2988  0.1578 -1.3375
   59MOL   H44233038   2.293   0.611   3.860 -1.9538  0.0749 -2.7225
   59MOL   H44333039   2.481   0.566   4.013  0.3615  0.0717 -0.0968
   59MOL   H44433040   2.601   0.683   4.192  0.9698  0.8706  0.3390
   59MOL   H44533041   2.673   1.059   4.143  2.2249  1.4865  3.2675
   59MOL   H44633042   2.560   1.049   3.953  0.2240 -0.0246  0.3606
   59MOL   H44733043   2.426   0.934   3.800  1.0807  0.4279 -0.5866
   59MOL   H44833044   2.172   0.470   3.805  0.1585 -0.4666 -0.7906
   59MOL   H44933045   2.007   0.346   3.699 -1.5879  0.0882 -1.4230
   59MOL   C45033046   2.771   0.922   4.265 -1.2108 -0.2310 -0.2232
   59MOL   C45133047   2.823   1.027   4.359  0.8593  0.1551  0.0198
   59MOL   C45233048   2.733   1.118   4.411 -0.3052  1.1723  1.0529
   59MOL   C45333049   2.764   1.195   4.523  0.7035  0.7358 -0.0506
   59MOL   C45433050   2.886   1.194   4.587 -0.7780  0.6168 -0.2850
   59MOL   C45533051   2.926   1.271   4.701 -0.5940 -0.0664  0.1185
   59MOL   N45633052   2.826   1.345   4.762  0.0332 -0.7046  0.3384
   59MOL   C45733053   2.834   1.406   4.885 -0.2820  0.3398  0.3514
   59MOL   C45833054   2.844   1.334   5.004  0.1760 -0.1918 -0.6159
   59MOL   C45933055   2.847   1.407   5.126 -0.1752 -0.0047 -0.2459
   59MOL   C46033056   2.815   1.542   5.136  0.0496 -0.4585 -0.4401
   59MOL   N46133057   2.814   1.612   5.262 -0.1824  0.2412  0.4428
   59MOL   C46233058   2.798   1.617   5.015 -0.0130 -0.3505 -0.1049
   59MOL   C46333059   2.809   1.549   4.892  0.2250  0.3737  0.5121
   59MOL   O46433060   3.036   1.261   4.757  0.1897  0.0430 -0.5795
   59MOL   C46533061   2.980   1.102   4.529 -0.0653 -0.7050 -0.1481
   59MOL   C46633062   2.944   1.018   4.423 -1.3155  0.6818  0.0339
   59MOL   O46733063   2.817   0.806   4.276  0.2713  0.0290 -0.1062
   59MOL   H46833064   2.637   1.114   4.362  0.1552  2.0831  0.0632
   59MOL   H46933065   2.686   1.260   4.562 -0.8007 -2.2721  2.1288
   59MOL   H47033066   2.740   1.349   4.710  1.0484 -1.5312 -1.4630
   59MOL   H47133067   2.855   1.226   5.008 -0.6178 -0.2703 -0.4932
   59MOL   H47233068   2.878   1.356   5.216 -0.9549  0.2245  0.1577
   59MOL   H47333069   2.874   1.693   5.271 -3.4957  3.1754 -2.6000
   59MOL   H47433070   2.786   1.724   5.018 -1.6828 -0.5168 -0.6497
   59MOL   H47533071   2.800   1.615   4.807 -1.5661 -0.6388 -0.1058
   59MOL   H47633072   3.082   1.091   4.563  0.8209  0.7354 -2.2114
   59MOL   H47733073   3.020   0.944   4.402  0.4820  2.1066  1.3791
   59MOL   C47833074   2.743   1.572   5.374  0.0890 -0.1473  0.3895
   59MOL   C47933075   2.636   1.468   5.349 -0.8247  0.5390 -0.7513
   59MOL   C48033076   2.514   1.503   5.293  0.1235  0.1302  0.4744
   59MOL   C48133077   2.414   1.405   5.277 -0.5570  0.2424 -0.0501
   59MOL   C48233078   2.443   1.273   5.303  0.6830  0.4420  0.1892
   59MOL   C48333079   2.346   1.166   5.262  0.2466  0.3709  1.2860
   59MOL   N48433080   2.293   1.198   5.144  0.2154  0.8602 -0.4226
   59MOL   C48533081   2.205   1.119   5.061  0.5783 -0.2925  0.7973
   59MOL   C48633082   2.168   1.182   4.943  0.2849 -0.0584 -0.2256
   59MOL   C48733083   2.089   1.109   4.850  0.5410 -0.1060 -0.4403
   59MOL   C48833084   2.039   0.977   4.881  0.6568 -0.0490  0.0393
   59MOL   N48933085   1.953   0.901   4.798 -0.3323  0.0853  0.1377
   59MOL   C49033086   2.081   0.911   5.000 -0.3967 -0.5561 -0.8438
   59MOL   C49133087   2.157   0.987   5.098  0.0900  0.1884  0.5519
   59MOL   O49233088   2.309   1.074   5.337 -0.5435 -0.2957 -0.0391
   59MOL   C49333089   2.560   1.238   5.367 -0.7661  0.1428  0.9482
   59MOL   C49433090   2.662   1.335   5.390  0.0710 -0.3463  0.0378
   59MOL   O49533091   2.758   1.620   5.485 -0.1439 -0.4406  0.5705
   59MOL   H49633092   2.498   1.609   5.282 -3.6642 -0.2768  1.5457
   59MOL   H49733093   2.320   1.441   5.237  0.0762  2.6331  0.5076
   59MOL   H49833094   2.336   1.275   5.097 -1.0278  0.8425 -1.6343
   59MOL   H49933095   2.208   1.280   4.923 -0.5038  0.0218 -1.4908
   59MOL   H50033096   2.075   1.157   4.754 -0.6680 -0.6258 -0.5367
   59MOL   H50133097   1.928   0.807   4.825  2.3315 -0.3301  1.3097
   59MOL   H50233098   2.044   0.813   5.026 -0.7717 -0.8711 -2.4767
   59MOL   H50333099   2.172   0.930   5.188  1.4673  1.8985  1.4381
   59MOL   H50433100   2.567   1.141   5.413 -2.2234 -0.5488 -0.2668
   59MOL   H50533101   2.747   1.308   5.451 -0.8116 -1.1670  0.9317
   59MOL   C50633102   1.865   0.945   4.702  0.2616  0.1128  0.2385
   59MOL   C50733103   1.760   0.840   4.661  0.6463  0.0642  0.3125
   59MOL   C50833104   1.733   0.733   4.747 -0.0840 -0.1557 -0.0306
   59MOL   C50933105   1.644   0.631   4.707 -0.4484 -0.7044 -0.3637
   59MOL   C51033106   1.576   0.644   4.581 -0.3548  0.2348 -0.4342
   59MOL   C51133107   1.468   0.543   4.541  0.0969  0.6832 -0.2202
   59MOL   N51233108   1.373   0.589   4.461  0.0271 -0.2658  0.3498
   59MOL   C51333109   1.251   0.523   4.429 -0.0696 -1.1277  0.0991
   59MOL   C51433110   1.146   0.602   4.381  0.0432 -0.3662 -0.5168
   59MOL   C51533111   1.020   0.545   4.348 -0.4346 -0.3259 -0.9231
   59MOL   C51633112   0.995   0.408   4.362 -0.1433  0.0766  0.2177
   59MOL   N51733113   0.869   0.346   4.324  0.4663  0.1434 -1.1304
   59MOL   C51833114   1.102   0.329   4.411  0.0460  0.3092  0.7009
   59MOL   C51933115   1.226   0.383   4.433  0.1508  0.5948 -0.6374
   59MOL   O52033116   1.471   0.439   4.597  0.1559  0.1288  0.2921
   59MOL   C52133117   1.594   0.757   4.503 -0.0324  0.1890 -0.3055
   59MOL   C52233118   1.689   0.853   4.543  0.1696  0.0870  0.0505
   59MOL   O52333119   1.872   1.059   4.649  0.2252 -0.0407 -0.0534
   59MOL   H52433120   1.779   0.727   4.845  0.9721  1.7624 -0.4030
   59MOL   H52533121   1.626   0.542   4.767 -0.7733  0.8152  1.8330
   59MOL   H52633122   1.394   0.684   4.433  2.7320 -0.4761  1.5616
   59MOL   H52733123   1.171   0.705   4.358  1.1463 -0.6167 -0.4788
   59MOL   H52833124   0.935   0.599   4.309  0.2341  1.0636 -0.5010
   59MOL   H52933125   0.799   0.417   4.305 -0.8243 -0.4651  1.1021
   59MOL   H53033126   1.084   0.224   4.430  1.3732 -0.4016 -1.7016
   59MOL   H53133127   1.312   0.323   4.457 -1.3840 -0.8305  1.5358
   59MOL   H53233128   1.540   0.769   4.410  2.0116 -1.4741 -1.7679
   59MOL   H53333129   1.710   0.936   4.478 -3.1711  0.8434 -0.1608
   59MOL   C53433130   0.845   0.216   4.306 -0.5149 -0.2767 -0.6082
   59MOL   C53533131   0.703   0.182   4.290  0.6128 -0.4752  0.2381
   59MOL   C53633132   0.657   0.072   4.216  0.6377  0.2811  0.4555
   59MOL   C53733133   0.518   0.038   4.213  0.3306  0.2846  0.2207
   59MOL   C53833134   0.425   0.112   4.294  0.5596  0.5931  0.2562
   59MOL   C53933135   0.280   0.086   4.288  0.4542 -0.7297  0.5098
   59MOL   N54033136   0.235   0.004   4.197 -0.2925 -0.0945  0.0111
   59MOL   C54133137   0.100   8.139   4.161  0.0083  0.3431 -0.3367
   59MOL   C54233138   0.077   8.120   4.026 -0.2567  0.0136 -0.4758
   59MOL   C54333139   8.092   8.098   3.972  0.5526 -0.4801 -1.2989
   59MOL   C54433140   7.980   8.083   4.062  0.2843  0.1312 -0.1957
   59MOL   N54533141   7.853   8.069   4.012  0.0479  0.1549 -0.3342
   59MOL   C54633142   8.005   8.106   4.200 -0.4466 -0.3714  0.1681
   59MOL   C54733143   8.137   8.123   4.249 -0.3588  0.5578 -0.6637
   59MOL   O54833144   0.207   0.144   4.366  0.3538  0.1864  0.6538
   59MOL   C54933145   0.470   0.229   4.354  0.4401 -0.3129 -0.5208
   59MOL   C55033146   0.609   0.263   4.355  0.4919 -0.2445  0.2664
   59MOL   O55133147   0.928   0.126   4.285  0.5477 -0.0360 -0.3064
   59MOL   H55233148   0.737   0.010   4.179 -1.8460 -2.4228 -0.5924
   59MOL   H55333149   0.497   8.095   4.156  0.3150 -0.0923  0.8120
   59MOL   H55433150   0.306   8.114   4.135  1.4251  1.2021  1.1969
   59MOL   H55533151   0.166   8.119   3.965  2.2255 -1.0737  3.0459
   59MOL   H55633152   8.073   8.091   3.866 -2.8890  0.8025 -0.8344
   59MOL   H55733153   7.783   8.108   4.074  0.7793 -0.6761  1.0176
   59MOL   H55833154   7.930   8.104   4.278  1.0114 -1.1256  1.5792
   59MOL   H55933155   0.007   8.138   4.355  0.6153 -1.8521 -0.4299
   59MOL   H56033156   0.399   0.300   4.392 -0.4646 -0.9679 -0.9592
   59MOL   H56133157   0.645   0.350   4.409  3.8883 -2.1838  1.2262
   59MOL   H56233158   7.850   8.110   3.919  2.0468 -0.3841 -0.6710
   60MOL     C133159   0.459   4.324   1.289  1.2717 -0.0978  0.3315
   60MOL     C233160   0.388   4.276   1.167 -0.4099  0.5706  0.2151
   60MOL     C333161   0.283   4.180   1.189 -0.5895 -0.0396  0.0128
   60MOL     C433162   0.216   4.136   1.076  0.4280  0.2115 -1.1685
   60MOL     C533163   0.258   4.163   0.946  0.4843  0.8321 -0.0929
   60MOL     C633164   0.186   4.114   0.825  0.0765 -0.1520 -0.1137
   60MOL     N733165   0.152   3.984   0.827 -0.5065 -0.4613 -0.2144
   60MOL     C833166   0.081   3.913   0.727  0.7467  0.2675 -0.0193
   60MOL     C933167   0.126   3.785   0.689  0.3970 -0.1652 -1.0031
   60MOL    C1033168   0.061   3.711   0.586 -0.5551  0.2628 -0.3029
   60MOL    C1133169   8.095   3.768   0.519 -1.1183  0.2370  0.6075
   60MOL    N1233170   8.047   3.694   0.413 -1.1297 -0.2415  0.4502
   60MOL    C1333171   8.046   3.898   0.562  0.7836 -0.2159  0.3845
   60MOL    C1433172   8.111   3.968   0.666 -0.2148  0.0265  0.3071
   60MOL    O1533173   0.158   4.196   0.742  0.4999 -0.5132  0.1589
   60MOL    C1633174   0.359   4.263   0.929  0.1620  0.1354 -0.0428
   60MOL    C1733175   0.422   4.326   1.035  0.6295  0.6486  0.2429
   60MOL    O1833176   0.561   4.388   1.274 -0.0478 -0.2511 -0.1339
   60MOL    H1933177   0.249   4.156   1.289  0.5291  0.9283  0.6435
   60MOL    H2033178   0.131   4.071   1.091  0.7457  0.1648  0.5499
   60MOL    H2133179   0.198   3.926   0.895  0.0513 -1.4538 -1.4242
   60MOL    H2233180   0.207   3.744   0.747 -0.0149 -0.8192 -0.8752
   60MOL    H2333181   0.104   3.614   0.565 -2.7427 -1.1576  1.5621
   60MOL    H2433182   8.100   3.610   0.394 -0.3615  0.4583 -0.5466
   60MOL    H2533183   7.967   3.954   0.514 -1.2755 -1.8380  1.8059
   60MOL    H2633184   8.064   4.059   0.699 -1.6668  0.2381 -2.2077
   60MOL    H2733185   0.399   4.299   0.836 -0.7741  1.2976  0.0012
   60MOL    H2833186   0.494   4.404   1.012  1.0095 -0.2800 -1.8165
   60MOL    H2933187   0.410   4.304   1.384  0.9996 -2.1460 -0.2179
   60MOL    C3033188   7.957   3.731   0.318  0.0824 -0.5544 -0.4818
   60MOL    C3133189   7.959   3.654   0.187  0.0092 -0.1305 -0.2630
   60MOL    C3233190   7.858   3.685   0.087 -0.1779 -0.3275 -0.0647
   60MOL    C3333191   7.855   3.609   8.113  0.2418  0.4091  0.5056
   60MOL    C3433192   7.965   3.522   8.087  0.3957  1.3355  0.0131
   60MOL    C3533193   7.973   3.468   7.943  0.4362 -0.3708  0.4615
   60MOL    N3633194   8.086   3.488   7.877 -0.2788 -0.8323 -0.1157
   60MOL    C3733195   8.124   3.405   7.772 -0.2288 -0.0518  0.5171
   60MOL    C3833196   8.052   3.391   7.650 -0.2685 -0.6942  0.4038
   60MOL    C3933197   8.098   3.317   7.540 -0.3915  0.5067  0.1084
   60MOL    C4033198   0.079   3.246   7.555  0.1921 -0.6602  0.2383
   60MOL    N4133199   0.120   3.185   7.439  0.0224  0.0054  0.5407
   60MOL    C4233200   0.149   3.260   7.674 -0.4144  0.5370  0.1684
   60MOL    C4333201   0.103   3.342   7.780 -0.5271 -0.9521  0.6214
   60MOL    O4433202   7.877   3.409   7.896  0.2138 -0.5156 -0.3142
   60MOL    C4533203   8.059   3.491   0.038 -0.1201 -0.0381  0.3861
   60MOL    C4633204   8.062   3.561   0.157  0.1526 -0.4549 -0.3291
   60MOL    O4733205   7.875   3.819   0.341 -0.6320 -0.2458  0.3541
   60MOL    H4833206   7.785   3.762   0.105 -1.5272 -1.3377 -1.1237
   60MOL    H4933207   7.770   3.608   8.046  0.1534  0.7170  0.6113
   60MOL    H5033208   0.014   3.531   7.931 -1.2281 -0.2811  0.7647
   60MOL    H5133209   7.964   3.451   7.638  0.1781 -0.1332 -0.1189
   60MOL    H5233210   8.045   3.324   7.447  1.0989 -0.6673 -0.8411
   60MOL    H5333211   0.055   3.191   7.362  0.5144  1.9796  0.2492
   60MOL    H5433212   0.239   3.202   7.688  0.6608  1.0027 -3.9824
   60MOL    H5533213   0.155   3.351   7.874 -1.2110  2.8172  0.7448
   60MOL    H5633214   8.132   3.418   0.007  1.1222  1.7979 -1.0769
   60MOL    H5733215   8.132   3.523   0.230 -0.5318 -0.8575  0.1249
   60MOL    C5833216   0.247   3.156   7.401  0.1850  0.5131 -0.5665
   60MOL    C5933217   0.271   3.138   7.252 -0.6986 -0.7463  0.3303
   60MOL    C6033218   0.211   3.228   7.160  0.4433 -0.5868  0.0328
   60MOL    C6133219   0.236   3.228   7.026 -0.1926 -0.0048 -0.2751
   60MOL    C6233220   0.339   3.138   6.978 -0.6303 -0.0869 -0.3741
   60MOL    C6333221   0.376   3.133   6.832 -0.7336  0.2992  0.1767
   60MOL    N6433222   0.378   3.256   6.773 -0.1095 -0.0278  0.2873
   60MOL    C6533223   0.461   3.304   6.669  0.4199 -0.4729  0.4836
   60MOL    C6633224   0.445   3.439   6.637 -0.9677  0.4486 -0.5089
   60MOL    C6733225   0.538   3.504   6.557 -0.7423 -0.4203 -0.1637
   60MOL    C6833226   0.644   3.435   6.499  0.5509  0.1460 -0.1396
   60MOL    N6933227   0.747   3.516   6.451  0.1588 -0.7995 -0.1084
   60MOL    C7033228   0.651   3.294   6.515 -0.0755  0.1320  0.6582
   60MOL    C7133229   0.558   3.230   6.599  0.1127  0.4503 -0.2269
   60MOL    O7233230   0.397   3.026   6.779  0.3851  0.3938  0.4582
   60MOL    C7333231   0.404   3.056   7.071 -0.6275  0.2401  0.0672
   60MOL    C7433232   0.367   3.046   7.203 -0.4171  0.0686  0.4447
   60MOL    O7533233   0.344   3.147   7.473  0.5837 -0.1218 -0.1809
   60MOL    H7633234   0.130   3.290   7.195 -0.9440 -1.8693 -0.8452
   60MOL    H7733235   0.171   3.281   6.958 -0.5671 -1.0923 -0.7817
   60MOL    H7833236   0.351   3.333   6.833  3.2917  0.2813  1.5944
   60MOL    H7933237   0.362   3.488   6.684 -0.2896  1.9328 -0.8084
   60MOL    H8033238   0.528   3.611   6.544 -0.2541 -0.6224 -2.5801
   60MOL    H8133239   0.740   3.615   6.472 -0.6252 -1.5403  3.5019
   60MOL    H8233240   0.745   3.244   6.499 -0.7481 -0.8606 -0.2403
   60MOL    H8333241   0.585   3.129   6.627  1.2740  0.7970 -0.0781
   60MOL    H8433242   0.485   2.996   7.030  0.1652  1.5180 -0.2821
   60MOL    H8533243   0.433   2.989   7.267  2.0242  2.4481  0.1816
   60MOL    C8633244   0.851   3.481   6.372  0.5625  0.2355  0.1016
   60MOL    C8733245   0.963   3.578   6.370  0.2548 -0.0214  0.4899
   60MOL    C8833246   0.981   3.667   6.477  0.0072 -0.5995  0.5023
   60MOL    C8933247   1.078   3.766   6.474 -0.3109  0.1346 -0.5739
   60MOL    C9033248   1.170   3.771   6.365 -0.4517 -0.1812 -0.8672
   60MOL    C9133249   1.262   3.890   6.362 -0.2513 -0.2581  0.1462
   60MOL    N9233250   1.201   4.000   6.320  0.3399  0.0052  0.1818
   60MOL    C9333251   1.230   4.139   6.322 -0.4655 -0.0057 -0.1409
   60MOL    C9433252   1.141   4.225   6.259  0.2911 -0.1287 -0.4949
   60MOL    C9533253   1.172   4.367   6.262 -0.2684  0.0620  0.1008
   60MOL    C9633254   1.288   4.421   6.320 -0.5880  0.4367  0.4536
   60MOL    N9733255   1.323   4.561   6.327  0.0520 -0.5918  0.4090
   60MOL    C9833256   1.374   4.333   6.383  0.1576 -0.2532 -0.1425
   60MOL    C9933257   1.347   4.194   6.382  0.1003  0.1217 -0.0648
   60MOL   O10033258   1.376   3.875   6.399  0.1010  0.1063  0.0320
   60MOL   C10133259   1.156   3.680   6.260  0.7207  0.4529  0.3105
   60MOL   C10233260   1.060   3.580   6.267 -0.2620  0.2647  0.5312
   60MOL   O10333261   0.852   3.387   6.299 -0.0993 -0.3078 -0.0752
   60MOL   H10433262   0.906   3.670   6.555  0.3633 -0.1808  0.8320
   60MOL   H10533263   1.085   3.838   6.554  0.2447  1.1330 -1.5102
   60MOL   H10633264   1.118   3.980   6.266 -1.0503 -0.1288  2.3030
   60MOL   H10733265   1.050   4.184   6.220 -0.1371  0.4105 -0.0729
   60MOL   H10833266   1.103   4.430   6.208 -0.4355  0.6329  0.9882
   60MOL   H10933267   1.373   4.605   6.402  0.1563 -2.1418  1.2556
   60MOL   H11033268   1.457   4.373   6.441  1.2217 -0.1898 -1.6699
   60MOL   H11133269   1.416   4.122   6.425 -0.8208 -0.5802  0.2620
   60MOL   H11233270   1.235   3.665   6.188  0.9203  1.3921  0.3313
   60MOL   H11333271   1.060   3.495   6.199 -1.4153  1.1927 -0.6639
   60MOL   C11433272   1.292   4.653   6.234 -0.2236 -0.5514  0.2231
   60MOL   C11533273   1.296   4.796   6.279 -0.0628 -0.4900  0.2557
   60MOL   C11633274   1.301   4.832   6.415  0.6073  0.4407  0.0155
   60MOL   C11733275   1.295   4.965   6.452  0.0528 -0.5223 -0.4519
   60MOL   C11833276   1.281   5.071   6.354  0.0394  0.1187  0.1340
   60MOL   C11933277   1.266   5.217   6.399 -0.6480 -0.5814 -0.1698
   60MOL   N12033278   1.315   5.252   6.521 -0.7138 -0.5486 -0.6502
   60MOL   C12133279   1.276   5.370   6.600 -0.2566  0.0443 -0.0145
   60MOL   C12233280   1.365   5.414   6.703 -0.0290 -0.1670 -0.9995
   60MOL   C12333281   1.324   5.515   6.788  0.5491 -0.1868 -0.2361
   60MOL   C12433282   1.201   5.577   6.769 -0.7712  0.6213  1.2581
   60MOL   N12533283   1.164   5.683   6.854  0.5341  0.3677 -0.0726
   60MOL   C12633284   1.117   5.542   6.665  1.2055  0.5693 -0.1637
   60MOL   C12733285   1.155   5.435   6.581  0.5858 -1.0509  0.4684
   60MOL   O12833286   1.222   5.295   6.313 -0.0017 -0.0373 -0.1014
   60MOL   C12933287   1.261   5.033   6.220 -0.1434  0.5205  0.6798
   60MOL   C13033288   1.267   4.902   6.185 -0.1185  0.2214  0.5897
   60MOL   O13133289   1.300   4.635   6.112  0.1719 -0.1560 -0.1154
   60MOL   H13233290   1.312   4.757   6.492 -1.4353 -1.2242 -1.2600
   60MOL   H13333291   1.304   5.006   6.551  0.7457  1.2030 -1.2149
   60MOL   H13433292   1.369   5.181   6.569 -0.4479 -0.4977 -0.8717
   60MOL   H13533293   1.464   5.375   6.719  0.3023  1.2031  0.3409
   60MOL   H13633294   1.385   5.537   6.874 -0.9140  0.4800  0.6566
   60MOL   H13733295   1.114   5.763   6.818 -2.9220 -1.7080 -0.0764
   60MOL   H13833296   1.018   5.586   6.667  0.6893 -0.4019 -2.9039
   60MOL   H13933297   1.077   5.414   6.510  0.2862 -0.8343  0.7289
   60MOL   H14033298   1.246   5.110   6.145  0.1008 -2.0532 -2.1072
   60MOL   H14133299   1.263   4.887   6.078  0.1800 -1.9323  0.8507
   60MOL   C14233300   1.169   5.683   6.991 -0.0449  0.2756 -0.2982
   60MOL   C14333301   1.117   5.811   7.057 -0.1538  0.1535  0.0954
   60MOL   C14433302   1.017   5.888   6.994 -0.4799 -0.2399 -0.1527
   60MOL   C14533303   0.972   6.007   7.055 -0.0090 -0.7814 -0.2118
   60MOL   C14633304   1.046   6.052   7.172  0.0568 -0.8024  1.2631
   60MOL   C14733305   1.006   6.183   7.231  1.4129  0.3826 -0.0672
   60MOL   N14833306   0.877   6.213   7.231 -0.0568 -0.5016  0.0926
   60MOL   C14933307   0.809   6.310   7.311 -0.2890  0.2136  0.7708
   60MOL   C15033308   0.674   6.280   7.341 -0.5347  0.1221 -0.3644
   60MOL   C15133309   0.608   6.368   7.430 -0.0099 -0.1642  0.4207
   60MOL   C15233310   0.669   6.476   7.481 -0.7799  0.5883 -0.7936
   60MOL   N15333311   0.608   6.561   7.580  0.9517 -0.1473  0.0877
   60MOL   C15433312   0.795   6.518   7.430 -0.0032 -0.0353  0.3847
   60MOL   C15533313   0.868   6.432   7.349  0.5130  0.5912  0.3092
   60MOL   O15633314   1.094   6.250   7.281 -0.0997 -0.2111 -0.4983
   60MOL   C15733315   1.147   5.975   7.229 -0.6433  0.3704 -0.6223
   60MOL   C15833316   1.189   5.852   7.170  0.7488 -0.1108 -0.7607
   60MOL   O15933317   1.220   5.598   7.061 -0.0099 -0.4167 -0.6055
   60MOL   H16033318   0.970   5.855   6.902 -0.1523  0.5454 -0.6051
   60MOL   H16133319   0.891   6.057   7.004  0.9154  0.7894 -0.2164
   60MOL   H16233320   0.820   6.135   7.199  0.9101 -1.5078  0.7557
   60MOL   H16333321   0.629   6.195   7.292  3.1829 -2.0015 -0.2645
   60MOL   H16433322   0.512   6.339   7.471 -0.4135  2.3842  1.3789
   60MOL   H16533323   0.623   6.660   7.569 -0.3575  0.0709  0.2136
   60MOL   H16633324   0.848   6.608   7.456  2.3239 -0.8952 -1.1974
   60MOL   H16733325   0.969   6.458   7.321  0.2868 -0.3740 -1.4385
   60MOL   H16833326   1.191   6.011   7.321 -1.0048  0.0206 -0.3141
   60MOL   H16933327   1.264   5.787   7.212  0.6893 -0.1369 -0.6957
   60MOL   C17033328   0.556   6.523   7.701 -0.0488  0.2485  0.1316
   60MOL   C17133329   0.536   6.634   7.798 -0.9010 -0.3167  0.0063
   60MOL   C17233330   0.551   6.609   7.933 -0.2310  0.1766  0.7301
   60MOL   C17333331   0.511   6.702   8.032 -0.0149 -0.0974  0.1730
   60MOL   C17433332   0.460   6.830   7.998 -0.7153  0.8082  1.0180
   60MOL   C17533333   0.411   6.927   8.105 -0.0047  0.6010 -0.9857
   60MOL   N17633334   0.291   6.984   8.075  0.2453  0.2573 -0.0039
   60MOL   C17733335   0.205   7.045   0.023  0.7289  0.9600 -0.7559
   60MOL   C17833336   0.226   7.067   0.165  0.1000 -0.5162  0.1695
   60MOL   C17933337   0.130   7.131   0.245 -0.3081  0.4088 -0.3971
   60MOL   C18033338   0.014   7.188   0.183 -0.3290 -0.6254  0.4785
   60MOL   N18133339   8.070   7.259   0.271 -0.6563 -0.4591  0.3504
   60MOL   C18233340   8.139   7.164   0.042  0.1819  0.0272  0.6536
   60MOL   C18333341   0.085   7.089   8.115  0.4468 -0.4127 -0.7372
   60MOL   O18433342   0.467   6.933   0.066  0.7834 -0.0177  0.3174
   60MOL   C18533343   0.448   6.852   7.858  0.3224 -0.2402 -0.8158
   60MOL   C18633344   0.486   6.759   7.761 -0.4926 -0.3547  0.1234
   60MOL   O18733345   0.540   6.406   7.732  0.3549 -0.2122 -0.0981
   60MOL   H18833346   0.588   6.517   7.977 -1.9279 -0.3051  1.1722
   60MOL   H18933347   0.526   6.670   8.134  1.2013  0.3218  0.1357
   60MOL   H19033348   0.253   6.954   7.987  0.6955 -1.1414  0.2714
   60MOL   H19133349   0.323   7.048   0.208 -0.8782 -0.1099  2.6311
   60MOL   H19233350   0.149   7.157   0.348  0.5294  1.3785 -0.7893
   60MOL   H19333351   8.113   7.277   0.361 -0.5542  1.6244 -0.0869
   60MOL   H19433352   8.045   7.187   8.141  1.9553  3.0656 -1.5680
   60MOL   H19533353   0.072   7.074   8.008 -3.7414 -1.2024 -0.1982
   60MOL   H19633354   0.399   6.941   7.822 -1.8697 -0.3565  1.6890
   60MOL   H19733355   0.474   6.787   7.658  1.9527 -1.8998 -0.6209
   60MOL   C19833356   7.956   7.322   0.243  0.1408 -0.3136 -0.7455
   60MOL   C19933357   7.892   7.388   0.359 -0.4215 -0.7498  0.0653
   60MOL   C20033358   7.832   7.512   0.345 -0.0091 -0.8851 -0.9956
   60MOL   C20133359   7.791   7.588   0.459  1.0384  0.5126 -0.0492
   60MOL   C20233360   7.809   7.531   0.586 -1.1448 -0.5650  0.2285
   60MOL   C20333361   7.782   7.616   0.705  0.1280  1.0937 -0.5227
   60MOL   N20433362   7.650   7.656   0.727  0.1130  0.8002 -0.2790
   60MOL   C20533363   7.602   7.728   0.834 -0.1497 -0.4737 -0.1198
   60MOL   C20633364   7.631   7.688   0.965 -0.5670  0.0602 -0.3061
   60MOL   C20733365   7.578   7.761   1.073  0.1812 -0.4625  0.0994
   60MOL   C20833366   7.487   7.864   1.055  0.8650 -0.4266  0.1619
   60MOL   N20933367   7.434   7.933   1.169 -0.1706  0.7987  0.4383
   60MOL   C21033368   7.449   7.893   0.924 -0.1169  0.1401  0.4805
   60MOL   C21133369   7.510   7.827   0.817 -0.0849 -0.9292 -0.3190
   60MOL   O21233370   7.880   7.654   0.766  0.3055  0.2583  0.4440
   60MOL   C21333371   7.855   7.396   0.599  0.0528 -0.5309 -0.0538
   60MOL   C21433372   7.896   7.325   0.487 -0.8013  0.0751  0.0251
   60MOL   O21533373   7.892   7.313   0.139 -0.0115  0.1935 -0.1925
   60MOL   H21633374   7.826   7.565   0.250 -2.4296 -0.5205 -0.6646
   60MOL   H21733375   7.757   7.690   0.447  1.0828  0.4233 -0.9764
   60MOL   H21833376   7.586   7.627   0.655  1.9433 -2.3565 -0.7358
   60MOL   H21933377   7.704   7.610   0.981  1.5888  1.8750 -1.1406
   60MOL   H22033378   7.606   7.737   1.174  2.8503  0.9619 -0.2432
   60MOL   H22133379   7.487   7.919   1.253  1.9408 -0.8775 -1.1123
   60MOL   H22233380   7.364   7.959   0.915 -0.8008 -0.5208  1.9043
   60MOL   H22333381   7.470   7.842   0.718 -0.4024 -1.8228 -0.3238
   60MOL   H22433382   7.858   7.356   0.700  1.4625 -2.0123 -0.6479
   60MOL   H22533383   7.937   7.226   0.498 -0.3463  0.3392  0.7398
   60MOL   C22633384   7.314   7.982   1.195  0.3102  0.5932  0.5495
   60MOL   C22733385   7.298   8.051   1.328  0.1840 -0.1839  0.5725
   60MOL   C22833386   7.193   8.145   1.335  0.2272  0.4779 -0.1566
   60MOL   C22933387   7.172   0.072   1.454 -0.5806 -0.0455  0.0413
   60MOL   C23033388   7.263   0.048   1.561  0.7328 -0.5440  0.6440
   60MOL   C23133389   7.236   0.128   1.684 -0.8067 -0.7159  0.0978
   60MOL   N23233390   7.107   0.132   1.724  0.0541  0.5250 -0.1971
   60MOL   C23333391   7.049   0.192   1.838  0.2913  0.0036 -0.8542
   60MOL   C23433392   6.919   0.149   1.870  0.6144 -0.1964  0.2503
   60MOL   C23533393   6.847   0.205   1.974 -0.0045  0.0556  0.4221
   60MOL   C23633394   6.905   0.288   2.070 -0.4593 -0.1121 -0.0705
   60MOL   N23733395   6.837   0.331   2.179  0.0559  0.5867 -0.5821
   60MOL   C23833396   7.033   0.337   2.042  0.3769 -0.5979  0.0232
   60MOL   C23933397   7.107   0.290   1.933 -0.0126  0.0496  0.4755
   60MOL   O24033398   7.332   0.188   1.734 -0.1173 -0.6106 -0.3285
   60MOL   C24133399   7.370   8.109   1.554 -0.3173 -0.1910 -0.0218
   60MOL   C24233400   7.395   8.041   1.434  0.0217 -0.5869 -0.0328
   60MOL   O24333401   7.226   7.984   1.110  0.1760 -0.3574 -0.2584
   60MOL   H24433402   7.117   0.001   1.258  1.5279  0.2553 -1.4558
   60MOL   H24533403   7.091   0.143   1.461 -0.5766 -0.0708  0.3548
   60MOL   H24633404   7.036   0.080   1.674 -1.4129  1.1392  1.2204
   60MOL   H24733405   6.870   0.079   1.804  1.4204  0.9693 -1.6195
   60MOL   H24833406   6.750   0.161   1.990  0.7966 -0.9073  2.8790
   60MOL   H24933407   6.754   0.383   2.157  0.0328  0.4288 -0.8642
   60MOL   H25033408   7.070   0.410   2.113  0.6866 -0.5347 -0.2041
   60MOL   H25133409   7.206   0.325   1.906 -0.7493 -1.3882 -4.8002
   60MOL   H25233410   7.439   8.089   1.636 -1.4620 -0.3760  0.9042
   60MOL   H25333411   7.478   7.972   1.430  0.9843  0.4486  1.5832
   60MOL   C25433412   6.885   0.329   2.300  0.1493 -0.1060 -0.4100
   60MOL   C25533413   6.806   0.401   2.410  0.1740  0.0362 -0.5753
   60MOL   C25633414   6.711   0.502   2.387  0.0896  0.9526  0.2729
   60MOL   C25733415   6.657   0.580   2.496 -0.1808 -0.1841  0.0708
   60MOL   C25833416   6.686   0.534   2.626 -0.0213 -0.1815  0.0037
   60MOL   C25933417   6.639   0.622   2.739  0.3460 -0.0480 -0.9921
   60MOL   N26033418   6.711   0.734   2.774 -0.9662  0.0547  0.2887
   60MOL   C26133419   6.829   0.784   2.715 -0.1729 -0.4279 -0.3138
   60MOL   C26233420   6.844   0.914   2.674 -0.2654 -0.3846 -0.1607
   60MOL   C26333421   6.964   0.967   2.630 -0.4612 -0.1710  0.1227
   60MOL   C26433422   7.075   0.876   2.610 -0.3890  0.4376 -0.6300
   60MOL   N26533423   7.198   0.907   2.534  0.1778  0.0994 -0.0915
   60MOL   C26633424   7.063   0.745   2.652  0.2301  0.7897  0.0862
   60MOL   C26733425   6.939   0.695   2.707 -0.5003  0.5052 -0.1116
   60MOL   O26833426   6.539   0.584   2.796 -0.7588  0.9607  0.0286
   60MOL   C26933427   6.777   0.429   2.650  0.7867  0.3909 -0.2868
   60MOL   C27033428   6.835   0.362   2.543 -0.1471  0.1024 -0.7941
   60MOL   O27133429   6.976   0.247   2.330 -0.2735 -0.1058 -0.5371
   60MOL   H27233430   6.692   0.542   2.288 -0.1427 -2.5528 -1.1715
   60MOL   H27333431   6.587   0.661   2.480 -0.3426 -0.1715  0.8443
   60MOL   H27433432   6.665   0.783   2.849 -0.2720 -2.1262  2.1906
   60MOL   H27533433   6.762   0.980   2.698  1.5623  1.7238  0.3872
   60MOL   H27633434   6.970   1.072   2.606  1.2430  0.0000  1.2357
   60MOL   H27733435   7.214   0.849   2.453  1.1882  0.0714  0.1134
   60MOL   H27833436   7.143   0.673   2.643  0.0972  0.4560  1.4354
   60MOL   H27933437   6.941   0.595   2.747  1.4831  0.8688  0.7763
   60MOL   H28033438   6.788   0.403   2.754  1.4188 -0.8435 -0.6566
   60MOL   H28133439   6.913   0.288   2.555  1.0432  1.0392 -2.6361
   60MOL   C28233440   7.246   1.031   2.528  0.6077 -0.0043  0.0050
   60MOL   C28333441   7.323   1.047   2.402  1.2284 -0.8925 -0.6451
   60MOL   C28433442   7.421   0.951   2.362 -0.5734 -0.0479  0.1277
   60MOL   C28533443   7.470   0.956   2.230 -0.0983 -0.0597 -0.1195
   60MOL   C28633444   7.427   1.049   2.137  0.5015 -0.1767  0.1620
   60MOL   C28733445   7.475   1.047   1.996  0.5685  0.5326  0.4650
   60MOL   N28833446   7.466   0.925   1.940  0.4022 -0.2513 -0.1649
   60MOL   C28933447   7.525   0.868   1.827  0.1322  0.4084  0.2217
   60MOL   C29033448   7.666   0.875   1.811  0.2439 -0.0656 -0.0274
   60MOL   C29133449   7.733   0.803   1.709  0.5726 -0.5580  0.2577
   60MOL   C29233450   7.651   0.729   1.614  0.8335 -0.1657  0.0030
   60MOL   N29333451   7.708   0.653   1.506  0.4409 -0.6276 -0.3682
   60MOL   C29433452   7.510   0.740   1.626 -0.1683  0.0049  0.8571
   60MOL   C29533453   7.451   0.812   1.727  0.2998 -0.6853 -0.0678
   60MOL   O29633454   7.512   1.153   1.942 -0.5153 -0.6077  0.0984
   60MOL   C29733455   7.347   1.159   2.186  0.4957  0.1964  1.2000
   60MOL   C29833456   7.295   1.153   2.318 -0.3666  0.3634  0.0959
   60MOL   O29933457   7.222   1.124   2.615  0.2443 -0.1535  0.0681
   60MOL   H30033458   7.447   0.869   2.427  0.2849  1.0256  1.1521
   60MOL   H30133459   7.538   0.878   2.199  0.9876 -0.1874  2.5067
   60MOL   H30233460   7.403   0.870   1.996  1.1625 -1.2605 -0.2934
   60MOL   H30333461   7.721   0.929   1.887 -0.4027  0.3427  0.1542
   60MOL   H30433462   7.841   0.803   1.709  0.5799  0.5858  1.3345
   60MOL   H30533463   7.644   0.583   1.472 -1.5494  1.4632 -1.0841
   60MOL   H30633464   7.448   0.689   1.554  0.9820  2.5942 -2.0393
   60MOL   H30733465   7.344   0.813   1.737  0.1926  0.6366 -1.3317
   60MOL   H30833466   7.306   1.230   2.116  1.2712 -2.4549 -2.0812
   60MOL   H30933467   7.230   1.235   2.346  0.6212  1.8017 -1.7499
   60MOL   C31033468   7.833   0.650   1.458  0.6980  0.3822 -0.4174
   60MOL   C31133469   7.865   0.551   1.348  0.9504  0.3526 -0.5536
   60MOL   C31233470   7.999   0.517   1.322 -0.4059 -0.1671  0.6713
   60MOL   C31333471   8.026   0.431   1.213  0.4521  0.1224  0.0286
   60MOL   C31433472   7.924   0.372   1.136  0.1389 -0.4291  0.7338
   60MOL   C31533473   7.954   0.255   1.045 -0.1338 -0.1165  0.5078
   60MOL   N31633474   8.078   0.256   0.994  0.4288 -0.3499 -0.4288
   60MOL   C31733475   8.142   0.171   0.899 -0.9265  0.5070 -0.5415
   60MOL   C31833476   0.134   0.189   0.888  0.2553  0.2202 -0.0871
   60MOL   C31933477   0.211   0.102   0.806  0.0033 -0.3978  0.2345
   60MOL   C32033478   0.148   0.009   0.722 -0.0610 -0.1707 -0.3509
   60MOL   N32133479   0.216   8.085   0.626 -1.0483  0.7531  0.5513
   60MOL   C32233480   0.008   8.145   0.725 -0.3947  0.6447  0.9388
   60MOL   C32333481   8.079   0.086   0.803 -0.4813  0.0242  0.5322
   60MOL   O32433482   7.875   0.164   1.011  0.3379 -0.4049 -0.2349
   60MOL   C32533483   7.791   0.411   1.161 -0.7546  0.3286 -0.2118
   60MOL   C32633484   7.761   0.499   1.267  0.1587 -0.1672 -0.1598
   60MOL   O32733485   7.928   0.720   1.497  0.2808  0.3094  0.3908
   60MOL   H32833486   8.085   0.547   1.379  0.0782 -0.5766  0.1638
   60MOL   H32933487   8.130   0.406   1.199  0.6328  1.3037 -0.8001
   60MOL   H33033488   8.135   0.329   1.035 -0.9780  0.0171  0.9391
   60MOL   H33133489   0.185   0.261   0.951 -0.8801  0.3512  0.6927
   60MOL   H33233490   0.317   0.121   0.814  0.1548 -1.0748 -0.1687
   60MOL   H33333491   0.188   8.067   0.531  1.3424 -1.9962  0.3087
   60MOL   H33433492   8.098   8.079   0.661  0.1927  0.9165  0.1244
   60MOL   H33533493   7.971   0.077   0.794 -0.2699 -2.1725  0.0295
   60MOL   H33633494   7.711   0.371   1.101 -0.1044 -1.4438  0.0674
   60MOL   H33733495   7.654   0.515   1.279 -0.1415 -2.7091  0.9053
   60MOL   C33833496   0.326   8.017   0.656  0.0528 -0.1869  0.2505
   60MOL   C33933497   0.410   7.951   0.555 -0.2016 -0.0491  0.8142
   60MOL   C34033498   0.541   7.912   0.586 -0.0269 -0.2490 -0.1057
   60MOL   C34133499   0.630   7.855   0.492 -0.6654 -0.4643  0.0026
   60MOL   C34233500   0.576   7.811   0.367  0.7448 -0.3016  0.9518
   60MOL   C34333501   0.669   7.759   0.265  0.2304  0.6532  0.1515
   60MOL   N34433502   0.743   7.653   0.292  0.1424  0.4077 -0.4172
   60MOL   C34533503   0.831   7.580   0.210 -0.8965  0.0805  0.4130
   60MOL   C34633504   0.877   7.619   0.082  0.4559  0.0764  0.9215
   60MOL   C34733505   0.958   7.538   0.004  0.3549 -0.6856 -0.7688
   60MOL   C34833506   0.994   7.409   0.042  0.2565 -0.0282  0.2605
   60MOL   N34933507   1.065   7.313   8.111 -0.2321 -0.2153 -0.0937
   60MOL   C35033508   0.956   7.373   0.171  0.4470  0.3241 -0.1922
   60MOL   C35133509   0.890   7.464   0.262  0.3749 -0.6957  0.4250
   60MOL   O35233510   0.662   7.804   0.150 -0.2653 -0.1721 -0.1315
   60MOL   C35333511   0.439   7.844   0.336  0.8043  0.1169 -0.1796
   60MOL   C35433512   0.351   7.902   0.434 -0.3397 -1.0951  0.0032
   60MOL   O35533513   0.375   8.015   0.768  0.3189  0.1084 -0.1049
   60MOL   H35633514   0.577   7.930   0.687  0.9879  0.7348 -0.6348
   60MOL   H35733515   0.734   7.835   0.516 -1.2078 -2.3025  0.9049
   60MOL   H35833516   0.740   7.605   0.381 -2.8806  0.2841 -0.5217
   60MOL   H35933517   0.849   7.715   0.041  3.6856  0.7847  0.2215
   60MOL   H36033518   0.993   7.586   8.060 -0.0375  1.3563  0.1500
   60MOL   H36133519   1.054   7.213   8.113  0.9973 -0.3657 -0.7351
   60MOL   H36233520   0.991   7.282   0.218 -1.9540 -0.6037 -0.1381
   60MOL   H36333521   0.874   7.421   0.360 -1.4590 -0.5826  0.1888
   60MOL   H36433522   0.405   7.814   0.238 -0.4784  3.1517 -0.7402
   60MOL   H36533523   0.247   7.924   0.416 -0.2128 -0.7515 -0.3150
   60MOL   C36633524   1.186   7.329   8.054  0.6322  0.4726 -0.1920
   60MOL   C36733525   1.236   7.206   7.989 -0.7099  0.2962 -0.1300
   60MOL   C36833526   1.185   7.169   7.862 -0.5460 -1.2450 -0.6689
   60MOL   C36933527   1.214   7.044   7.811 -0.6288 -0.1260 -0.1250
   60MOL   C37033528   1.294   6.951   7.881  0.2392 -0.0027 -0.0237
   60MOL   C37133529   1.336   6.826   7.819 -0.1164  0.1163  0.4317
   60MOL   N37233530   1.256   6.794   7.715  0.3145 -0.8806 -0.1146
   60MOL   C37333531   1.228   6.662   7.676  0.6113  0.4576  0.1068
   60MOL   C37433532   1.193   6.567   7.778 -0.2901  0.3661 -0.8738
   60MOL   C37533533   1.159   6.439   7.745  0.3970 -0.7970 -0.1045
   60MOL   C37633534   1.166   6.396   7.610 -0.0861  0.4934  0.0589
   60MOL   N37733535   1.144   6.258   7.565  0.0381 -0.8879 -0.1482
   60MOL   C37833536   1.193   6.490   7.508 -0.3441  0.0495  0.4323
   60MOL   C37933537   1.231   6.615   7.548 -0.5170 -0.7095 -0.3158
   60MOL   O38033538   1.422   6.749   7.856 -0.0430  0.2259  0.8979
   60MOL   C38133539   1.342   6.987   8.010 -0.8377 -0.0409  0.1084
   60MOL   C38233540   1.319   7.120   8.061  0.4887  0.8513 -0.1423
   60MOL   O38333541   1.249   7.430   8.051  0.0937  0.1008 -0.6339
   60MOL   H38433542   1.125   7.238   7.804 -1.2727 -0.2381  1.2074
   60MOL   H38533543   1.170   7.020   7.716  0.3218  1.7799 -1.0766
   60MOL   H38633544   1.213   6.874   7.671  1.8275  1.5290  2.6259
   60MOL   H38733545   1.186   6.584   7.885  1.9887 -1.7480 -0.3202
   60MOL   H38833546   1.115   6.379   7.823 -1.9585  0.6120 -0.2813
   60MOL   H38933547   1.139   6.255   7.464 -2.6791  2.2299 -0.1892
   60MOL   H39033548   1.199   6.457   7.405  0.9700 -1.6086  1.0169
   60MOL   H39133549   1.251   6.675   7.460  0.1008  0.8586  0.8741
   60MOL   H39233550   1.406   6.923   8.069  0.0936 -0.0014 -0.8559
   60MOL   H39333551   1.363   7.163   0.003 -0.6977  0.4885  0.6446
   60MOL   C39433552   1.177   6.143   7.624 -0.1164 -0.5832 -0.1201
   60MOL   C39533553   1.232   6.142   7.760 -0.1032 -0.3313 -0.2181
   60MOL   C39633554   1.369   6.180   7.778  0.7493  0.2450 -1.1723
   60MOL   C39733555   1.407   6.215   7.912  0.3153 -1.2436 -0.0565
   60MOL   C39833556   1.312   6.210   8.019  0.1833 -0.1042 -0.3471
   60MOL   C39933557   1.350   6.280   8.145  0.0354  0.0141 -0.3269
   60MOL   N40033558   1.246   6.317   0.073  1.0095  0.1038  0.9552
   60MOL   C40133559   1.240   6.399   0.188  0.2734  0.6690 -0.2011
   60MOL   C40233560   1.155   6.367   0.289 -0.2937  0.3238 -0.0386
   60MOL   C40333561   1.136   6.449   0.398 -0.1955 -0.3718 -0.0170
   60MOL   C40433562   1.210   6.567   0.412 -0.8130 -0.1611 -0.2749
   60MOL   N40533563   1.185   6.646   0.525 -0.7331  0.5670  0.2335
   60MOL   C40633564   1.306   6.596   0.310  0.0076 -0.4871  0.5938
   60MOL   C40733565   1.315   6.519   0.197 -0.2718  0.3843  0.8350
   60MOL   O40833566   1.466   6.302   0.028 -0.7435  0.2672 -0.1360
   60MOL   C40933567   1.184   6.146   7.997 -0.2476 -0.5661 -0.3620
   60MOL   C41033568   1.149   6.107   7.868 -0.9258  0.5091 -0.1012
   60MOL   O41133569   1.153   6.044   7.569  0.0330  0.6625  0.0030
   60MOL   H41233570   1.434   6.181   7.692  3.8288  0.4694  1.0933
   60MOL   H41333571   1.507   6.251   7.932  0.3449 -1.6990  0.6454
   60MOL   H41433572   1.156   6.297   0.034  1.0282  0.8686  0.5035
   60MOL   H41533573   1.100   6.275   0.276 -2.3106  1.6491 -1.0191
   60MOL   H41633574   1.063   6.418   0.472  0.1076 -0.8613  0.0830
   60MOL   H41733575   1.253   6.643   0.600 -1.6272 -0.2959  1.0372
   60MOL   H41833576   1.366   6.686   0.314  1.7666 -1.6018  0.0757
   60MOL   H41933577   1.383   6.544   0.117 -0.2253 -1.4856  0.2445
   60MOL   H42033578   1.112   6.131   8.076  0.0910 -0.6988 -0.0760
   60MOL   H42133579   1.052   6.066   7.848  0.4547 -2.7110 -0.5504
   60MOL   C42233580   1.074   6.719   0.549 -0.3404  0.3608  0.0626
   60MOL   C42333581   1.077   6.788   0.681 -0.1815 -0.3112 -0.5270
   60MOL   C42433582   1.139   6.914   0.695 -0.5363  0.2386  0.2349
   60MOL   C42533583   1.153   6.976   0.818 -0.5976  0.1711 -0.4282
   60MOL   C42633584   1.111   6.919   0.936  0.3980 -0.2671  0.2945
   60MOL   C42733585   1.137   6.980   1.065  0.1198 -0.6874 -0.7759
   60MOL   N42833586   1.205   7.100   1.063 -0.5926  0.9758 -0.2428
   60MOL   C42933587   1.230   7.190   1.174 -0.0405  0.5218 -0.7960
   60MOL   C43033588   1.234   7.324   1.133 -0.2401  0.2094  0.5154
   60MOL   C43133589   1.258   7.421   1.231  0.4915  0.2726  0.5714
   60MOL   C43233590   1.273   7.386   1.369 -0.3240 -0.4423  0.2929
   60MOL   N43333591   1.278   7.484   1.468 -0.9960 -0.1507  0.2740
   60MOL   C43433592   1.273   7.250   1.409 -0.2348  0.0069  0.3223
   60MOL   C43533593   1.253   7.152   1.308 -0.9416 -0.0346 -0.1696
   60MOL   O43633594   1.097   6.927   1.167  0.4794  0.4681 -0.4529
   60MOL   C43733595   1.047   6.792   0.926 -0.4149 -0.4200 -0.3158
   60MOL   C43833596   1.023   6.733   0.800 -0.0635  0.1602 -0.4654
   60MOL   O43933597   0.977   6.732   0.477  0.0150  0.3167  0.0835
   60MOL   H44033598   1.183   6.957   0.607  0.6191 -1.9715 -0.2819
   60MOL   H44133599   1.204   7.071   0.820 -1.1052  0.4292  2.6877
   60MOL   H44233600   1.231   7.141   0.974  2.4038 -1.6564 -0.6597
   60MOL   H44333601   1.216   7.364   1.035 -3.0467 -0.7565  0.5834
   60MOL   H44433602   1.249   7.524   1.203 -0.5127  0.3172  1.0363
   60MOL   H44533603   1.260   7.580   1.440 -3.4679 -0.1074  1.9010
   60MOL   H44633604   1.273   7.202   1.506 -1.9600  0.0495  0.3722
   60MOL   H44733605   1.242   7.049   1.338  1.7568  0.2281  1.9684
   60MOL   H44833606   1.007   6.754   1.018 -1.1196  2.1245  0.4849
   60MOL   H44933607   0.976   6.636   0.797  0.8225 -0.2627 -1.0925
   60MOL   C45033608   1.292   7.476   1.599 -0.1675  0.1237 -0.1894
   60MOL   C45133609   1.257   7.600   1.677  0.1965 -0.1253  0.4855
   60MOL   C45233610   1.316   7.629   1.799 -0.4611 -0.4562  0.5570
   60MOL   C45333611   1.285   7.743   1.872 -0.1432 -0.2419 -0.1168
   60MOL   C45433612   1.179   7.825   1.826 -0.3235  0.3075  0.0826
   60MOL   C45533613   1.143   7.954   1.894 -0.5620  0.8797  0.1923
   60MOL   N45633614   1.011   7.984   1.904  0.1879 -0.0209 -0.3640
   60MOL   C45733615   0.966   8.102   1.968  0.3003  0.6462  0.0218
   60MOL   C45833616   1.019   0.087   1.948 -0.1163 -1.0513  0.5533
   60MOL   C45933617   0.966   0.200   2.023 -0.0697  0.3194 -0.3509
   60MOL   C46033618   0.859   0.177   2.112 -0.0585  0.4205 -0.1925
   60MOL   N46133619   0.801   0.280   2.190 -0.0837  0.1703  0.3153
   60MOL   C46233620   0.810   0.045   2.129  0.6636 -0.2703 -0.1150
   60MOL   C46333621   0.863   8.085   2.057  0.3700  0.2017  0.0178
   60MOL   O46433622   1.232   8.021   1.945 -0.1984 -0.7283 -0.2772
   60MOL   C46533623   1.119   7.798   1.704  0.1485 -0.1138 -0.9083
   60MOL   C46633624   1.165   7.692   1.627  0.7293 -0.8047  0.6340
   60MOL   O46733625   1.314   7.370   1.659  0.2015  0.7099 -0.0746
   60MOL   H46833626   1.401   7.571   1.831  2.0465  1.9824 -1.3595
   60MOL   H46933627   1.326   7.763   1.970  2.1122  0.9762 -1.2612
   60MOL   H47033628   0.944   7.915   1.874  1.4333 -0.3573 -2.4674
   60MOL   H47133629   1.095   0.119   1.879 -0.5099  0.4809  0.7979
   60MOL   H47233630   1.017   0.295   2.022 -0.9251  0.8292  1.5215
   60MOL   H47333631   0.722   0.244   2.243  0.4532 -1.9797 -0.2787
   60MOL   H47433632   0.728   0.026   2.197  1.1475  2.5289  1.2976
   60MOL   H47533633   0.826   7.985   2.073  0.0777  0.1965 -0.6763
   60MOL   H47633634   1.047   7.870   1.668  0.3591  0.3821 -0.3587
   60MOL   H47733635   1.120   7.680   1.530  0.1230  0.8239  0.6969
   60MOL   C47833636   0.830   0.409   2.222  0.2633  0.9267  0.4351
   60MOL   C47933637   0.729   0.454   2.316 -0.1389 -0.3694  0.7549
   60MOL   C48033638   0.774   0.544   2.420  0.1077 -0.2951  0.9734
   60MOL   C48133639   0.684   0.581   2.520 -0.5901 -0.6415  0.4111
   60MOL   C48233640   0.548   0.529   2.525 -0.2616 -0.2611  0.0592
   60MOL   C48333641   0.459   0.565   2.637  0.2867 -0.5335 -0.1523
   60MOL   N48433642   0.414   0.458   2.702 -0.2589 -0.5929  0.2019
   60MOL   C48533643   0.294   0.446   2.778  0.2574 -0.3724  0.0689
   60MOL   C48633644   0.269   0.317   2.827  0.7018 -0.4858  0.4314
   60MOL   C48733645   0.146   0.305   2.900 -0.4028 -0.0085 -0.4056
   60MOL   C48833646   0.052   0.402   2.921 -0.0153 -1.5814  0.0559
   60MOL   N48933647   8.082   0.373   2.997 -0.2301  0.2377 -0.3397
   60MOL   C49033648   0.084   0.534   2.878 -0.0557 -0.2941  0.5487
   60MOL   C49133649   0.195   0.546   2.790 -0.1154  0.1584  0.4152
   60MOL   O49233650   0.446   0.683   2.671  0.0927 -0.2022  0.2926
   60MOL   C49333651   0.505   0.447   2.420  0.5532  0.0758  0.3170
   60MOL   C49433652   0.591   0.414   2.309 -0.1903 -0.5160  1.2611
   60MOL   O49533653   0.928   0.471   2.193 -0.3416  0.1462  0.0991
   60MOL   H49633654   0.875   0.582   2.427 -1.0699  2.7843  2.0643
   60MOL   H49733655   0.718   0.642   2.603 -0.3593 -1.6010  1.0257
   60MOL   H49833656   0.446   0.371   2.663  0.8742 -0.2126  0.2313
   60MOL   H49933657   0.338   0.235   2.810  1.2306  0.1461 -0.5387
   60MOL   H50033658   0.128   0.206   2.938 -0.3215  0.8085  1.8298
   60MOL   H50133659   8.068   0.274   3.015 -1.0172  0.6073  1.0837
   60MOL   H50233660   0.020   0.620   2.885 -0.8713 -0.9448  1.1010
   60MOL   H50333661   0.217   0.634   2.732  0.1369 -0.0761  0.1532
   60MOL   H50433662   0.405   0.406   2.420  1.4286 -2.1583 -0.8826
   60MOL   H50533663   0.544   0.356   2.230 -0.3906  0.7881  0.4097
   60MOL   C50633664   7.983   0.456   3.032 -0.5905  0.4370  0.0439
   60MOL   C50733665   7.881   0.385   3.116  0.6722  0.1147 -0.0450
   60MOL   C50833666   7.920   0.309   3.228  0.0284  0.0703 -0.2115
   60MOL   C50933667   7.825   0.253   3.317  0.1587 -0.1264  0.7651
   60MOL   C51033668   7.688   0.255   3.284 -0.0946 -0.0902 -0.3191
   60MOL   C51133669   7.585   0.197   3.382 -0.1101 -0.6750 -0.1130
   60MOL   N51233670   7.633   0.116   3.478 -0.8902  0.0327 -0.4235
   60MOL   C51333671   7.564   0.057   3.578 -0.0889  0.6062 -0.5789
   60MOL   C51433672   7.430   0.019   3.565  0.3858  0.3739 -0.1736
   60MOL   C51533673   7.375   8.094   3.673 -0.6407  0.3862  0.0430
   60MOL   C51633674   7.445   8.084   3.794 -0.4358  0.1972  0.8874
   60MOL   N51733675   7.392   8.044   3.924  0.0502 -0.3734  0.4561
   60MOL   C51833676   7.584   8.105   3.800 -0.4104 -0.4867 -0.4365
   60MOL   C51933677   7.643   0.022   3.693 -0.9031 -0.0014 -0.0375
   60MOL   O52033678   7.467   0.219   3.367  0.0909 -0.0334  0.0675
   60MOL   C52133679   7.645   0.325   3.174 -0.4291  0.1833  0.3198
   60MOL   C52233680   7.743   0.390   3.094 -0.5290 -0.3164 -0.2568
   60MOL   O52333681   7.962   0.572   2.996  0.4374  0.0123 -0.2447
   60MOL   H52433682   8.024   0.317   3.253 -0.2321  1.6258  0.4238
   60MOL   H52533683   7.868   0.218   3.409 -0.4521 -1.6216  0.4908
   60MOL   H52633684   7.734   0.119   3.478 -0.8594 -0.6216 -1.6576
   60MOL   H52733685   7.375   0.021   3.472  1.7660 -1.1526 -1.0377
   60MOL   H52833686   7.274   8.055   3.669 -0.6131  0.2617  0.5293
   60MOL   H52933687   7.451   8.017   4.001 -1.2614 -1.2217  1.1728
   60MOL   H53033688   7.649   8.088   3.885 -0.2630  2.6423  0.1599
   60MOL   H53133689   7.744   0.058   3.703 -0.2245 -1.9862  0.4811
   60MOL   H53233690   7.537   0.328   3.167 -0.4613  0.4108  0.9127
   60MOL   H53333691   7.709   0.447   3.008 -0.4927  0.0709 -0.0175
   60MOL   C53433692   7.264   8.017   3.952  0.3704 -0.1384  0.4307
   60MOL   C53533693   7.232   7.955   4.083  0.0857 -0.0983 -0.0913
   60MOL   C53633694   7.103   7.902   4.110  0.5721  0.4442  0.3213
   60MOL   C53733695   7.080   7.840   4.233  0.1105 -0.6804 -0.4826
   60MOL   C53833696   7.176   7.832   4.336  0.0646 -0.4000 -0.0773
   60MOL   C53933697   7.140   7.752   4.456 -0.3519 -0.5213 -0.0144
   60MOL   N54033698   7.213   7.644   4.485 -0.0529  0.7937  0.0546
   60MOL   C54133699   7.297   7.556   4.403 -0.0108  1.0568 -0.2422
   60MOL   C54233700   7.287   7.542   4.256 -0.7487  0.3147 -0.3633
   60MOL   C54333701   7.370   7.451   4.192 -0.9202  0.3038 -0.3896
   60MOL   C54433702   7.475   7.385   4.267 -1.2570  0.0998 -0.3231
   60MOL   N54533703   7.578   7.318   4.191  0.3519  0.6775  0.2222
   60MOL   C54633704   7.481   7.394   4.409 -0.8384  0.9767 -0.4825
   60MOL   C54733705   7.391   7.473   4.473  0.7392  0.5557 -0.1288
   60MOL   O54833706   7.045   7.799   4.523 -0.0707  0.2997 -0.1688
   60MOL   C54933707   7.307   7.877   4.311 -0.0379 -0.1599  0.5773
   60MOL   C55033708   7.333   7.939   4.185  0.3489  0.2272 -0.1910
   60MOL   O55133709   7.166   8.042   3.882  0.0228 -0.1640 -0.0850
   60MOL   H55233710   7.028   7.911   4.033 -0.8112  0.6699  1.6676
   60MOL   H55333711   6.987   7.790   4.256  1.9501 -3.4871  1.1010
   60MOL   H55433712   7.211   7.626   4.585 -0.0907  0.3139 -0.0301
   60MOL   H55533713   7.223   7.611   4.202 -0.3543  1.1290  0.1934
   60MOL   H55633714   7.376   7.446   4.084 -1.1025  1.6126 -0.4643
   60MOL   H55733715   7.665   7.290   4.235 -1.2345 -1.2326  2.2455
   60MOL   H55833716   7.548   7.342   4.476 -1.1502 -0.7519 -1.4819
   60MOL   H55933717   7.400   7.491   4.579  0.0876  1.9578 -0.2943
   60MOL   H56033718   7.387   7.857   4.382 -1.8427 -2.4507  2.0561
   60MOL   H56133719   7.431   7.982   4.169 -0.3860  1.6414 -1.0115
   60MOL   H56233720   7.591   7.353   4.097  2.4671 -0.2112  0.1538
   61MOL     C133721   0.206   2.204   7.643  0.3881  0.4925  1.2858
   61MOL     C233722   0.235   2.080   7.565  0.4122 -1.1384 -0.3693
   61MOL     C333723   0.161   1.959   7.599 -0.2351 -0.1487 -0.2711
   61MOL     C433724   0.175   1.847   7.516  0.5400 -0.4174 -0.0437
   61MOL     C533725   0.265   1.856   7.405 -0.1055  0.1186  0.0032
   61MOL     C633726   0.318   1.729   7.351 -0.2046 -0.5518  0.4292
   61MOL     N733727   0.243   1.621   7.366 -0.2544  0.3925 -0.5687
   61MOL     C833728   0.271   1.491   7.314 -0.3903  0.3544 -0.0474
   61MOL     C933729   0.398   1.436   7.305  0.1420 -0.3482 -0.1816
   61MOL    C1033730   0.420   1.303   7.262 -0.3646 -0.5400  0.1334
   61MOL    C1133731   0.309   1.228   7.208 -0.3207  0.0642  0.5652
   61MOL    N1233732   0.325   1.096   7.158  0.1143  0.2027  0.4134
   61MOL    C1333733   0.182   1.285   7.209 -1.0330 -0.5530 -0.5209
   61MOL    C1433734   0.170   1.413   7.260 -0.4367  0.4506 -0.3445
   61MOL    O1533735   0.420   1.728   7.285 -0.4507 -0.1802  0.1274
   61MOL    C1633736   0.307   1.979   7.362  0.1436 -0.8424  0.0108
   61MOL    C1733737   0.299   2.090   7.441 -0.7470 -0.0864  0.0067
   61MOL    O1833738   0.178   2.210   7.765 -0.1105  0.1591  0.3180
   61MOL    H1933739   0.090   1.967   7.680 -1.9760 -0.6764 -1.7151
   61MOL    H2033740   0.125   1.756   7.547 -1.8337  0.9424  0.2849
   61MOL    H2133741   0.158   1.634   7.419 -0.3618 -0.5445 -0.5026
   61MOL    H2233742   0.484   1.495   7.330 -1.5681  2.8571 -1.5619
   61MOL    H2333743   0.522   1.267   7.255 -1.3115 -3.1164 -1.0741
   61MOL    H2433744   0.404   1.040   7.189 -0.3329  1.0392  3.1735
   61MOL    H2533745   0.091   1.235   7.180 -4.0956  3.1906  2.0884
   61MOL    H2633746   0.072   1.457   7.250 -0.5774 -0.0881 -1.4643
   61MOL    H2733747   0.354   1.981   7.264 -0.7263 -1.9255 -0.4446
   61MOL    H2833748   0.341   2.186   7.413 -0.4815 -0.4513 -0.8576
   61MOL    H2933749   0.198   2.288   7.574  1.0521 -1.7941 -1.6522
   61MOL    C3033750   0.271   1.037   7.050 -0.2196 -0.4228 -0.0923
   61MOL    C3133751   0.328   0.907   7.016 -0.3838  0.1576 -0.1309
   61MOL    C3233752   0.287   0.849   6.893 -0.0103 -0.2951  0.4372
   61MOL    C3333753   0.324   0.715   6.866  0.0523  0.8812  0.6279
   61MOL    C3433754   0.402   0.634   6.950  0.5480 -0.1142  0.6068
   61MOL    C3533755   0.418   0.485   6.929 -0.7141  0.1038 -0.6612
   61MOL    N3633756   0.545   0.439   6.936 -0.1283 -0.3681 -0.4369
   61MOL    C3733757   0.587   0.301   6.925 -0.3236 -0.3953 -0.8703
   61MOL    C3833758   0.503   0.187   6.926 -0.3378 -0.7812  0.1064
   61MOL    C3933759   0.555   0.055   6.918  0.7520 -0.0803  0.5784
   61MOL    C4033760   0.691   0.030   6.913 -0.0876 -0.1747  0.0026
   61MOL    N4133761   0.730   8.043   6.886 -0.1627  0.1100 -0.1983
   61MOL    C4233762   0.774   0.144   6.916  0.0521 -0.3462 -0.3197
   61MOL    C4333763   0.722   0.275   6.926  0.1400 -0.5038  0.5045
   61MOL    O4433764   0.317   0.418   6.904 -0.0843  0.1239 -0.0018
   61MOL    C4533765   0.437   0.691   7.079 -0.7289  0.9926  0.8367
   61MOL    C4633766   0.392   0.819   7.112  0.4846 -0.5024  0.2346
   61MOL    O4733767   0.193   1.096   6.974  0.0001 -0.9202 -0.5865
   61MOL    H4833768   0.251   0.920   6.820  1.4422 -0.9316 -0.9485
   61MOL    H4933769   0.292   0.673   6.772 -0.9864 -1.1166  1.8438
   61MOL    H5033770   0.618   0.506   6.954 -0.9572  0.5598 -0.4876
   61MOL    H5133771   0.395   0.199   6.926 -0.4727 -1.8083 -1.0380
   61MOL    H5233772   0.480   8.125   6.933 -1.3419  1.3730 -2.0361
   61MOL    H5333773   0.667   7.983   6.834 -0.0132 -2.0216  1.9814
   61MOL    H5433774   0.880   0.133   6.902 -0.1623 -2.1150 -0.6287
   61MOL    H5533775   0.791   0.357   6.912 -0.8020  0.2764  0.3988
   61MOL    H5633776   0.479   0.637   7.163 -2.7237 -0.3988  0.9749
   61MOL    H5733777   0.402   0.844   7.216  0.6057 -1.5190  0.4727
   61MOL    C5833778   0.847   7.980   6.911  0.0815  0.1784  0.4795
   61MOL    C5933779   0.934   8.032   7.024  0.5093  0.0598  0.3869
   61MOL    C6033780   0.877   8.051   7.152  0.9821  0.4644  0.2642
   61MOL    C6133781   0.962   8.097   7.254 -0.5365 -0.0264 -0.3268
   61MOL    C6233782   1.096   8.133   7.224 -0.3268  0.2467  0.2080
   61MOL    C6333783   1.174   0.064   7.330 -0.5319 -0.7856  0.7014
   61MOL    N6433784   1.168   0.009   7.447 -0.1157  0.5850  0.1142
   61MOL    C6533785   1.195   0.072   7.579 -0.2122  0.1167  0.5593
   61MOL    C6633786   1.171   0.205   7.603 -0.3587 -0.0519 -0.6221
   61MOL    C6733787   1.194   0.257   7.732  0.8488  0.0036  0.2027
   61MOL    C6833788   1.252   0.178   7.835  0.4755  0.0606  0.0135
   61MOL    N6933789   1.277   0.251   7.958 -0.6232  0.0146  0.0029
   61MOL    C7033790   1.269   0.039   7.817 -0.0720 -0.6245  0.3888
   61MOL    C7133791   1.242   8.133   7.682 -0.1003 -0.0004 -0.2640
   61MOL    O7233792   1.225   0.168   7.300 -0.0644  0.0982 -0.1775
   61MOL    C7333793   1.152   8.114   7.099 -0.0882  0.1739 -0.4139
   61MOL    C7433794   1.068   8.063   6.999  0.1724  0.4878  0.1783
   61MOL    O7533795   0.882   7.877   6.851 -0.7435 -0.3506  0.0093
   61MOL    H7633796   0.779   8.014   7.179  0.9250  0.7450  0.4428
   61MOL    H7733797   0.926   8.113   7.354  0.6969  2.2810 -0.2142
   61MOL    H7833798   1.119   8.067   7.455 -0.9055  1.0541  0.5182
   61MOL    H7933799   1.135   0.271   7.525 -2.3749  0.2104  0.4848
   61MOL    H8033800   1.180   0.361   7.756 -2.2102 -0.2540 -0.3302
   61MOL    H8133801   1.226   0.337   7.966  1.0030  0.9379  0.7202
   61MOL    H8233802   1.312   8.119   7.890  1.2815 -0.4847 -0.2568
   61MOL    H8333803   1.245   8.030   7.653 -2.5903 -0.3684  0.6627
   61MOL    H8433804   1.249   0.005   7.067  0.5857  0.1319  1.5272
   61MOL    H8533805   1.115   8.040   6.904 -0.4605 -0.8374  0.1854
   61MOL    C8633806   1.370   0.217   8.052  0.0613  0.0861 -0.0538
   61MOL    C8733807   1.354   0.287   0.035  0.4202 -0.5811  0.4681
   61MOL    C8833808   1.427   0.401   0.069  0.0706  0.6178 -0.1741
   61MOL    C8933809   1.407   0.456   0.195 -0.0885  0.0745  0.0214
   61MOL    C9033810   1.314   0.403   0.291  0.5406 -0.1041  0.2682
   61MOL    C9133811   1.318   0.446   0.434  0.1681  0.1421 -0.6047
   61MOL    N9233812   1.201   0.437   0.500  0.4788  0.3041 -0.3324
   61MOL    C9333813   1.177   0.414   0.639 -1.0133  0.0401  0.0495
   61MOL    C9433814   1.266   0.451   0.741  0.2834 -0.0199 -0.2417
   61MOL    C9533815   1.237   0.393   0.868  0.5217 -0.2074 -0.2269
   61MOL    C9633816   1.126   0.310   0.885 -0.8324  0.0176 -0.0332
   61MOL    N9733817   1.111   0.237   1.003 -0.2936  0.1574 -0.0711
   61MOL    C9833818   1.020   0.307   0.791  0.3240  0.0966  0.2698
   61MOL    C9933819   1.054   0.353   0.667 -0.0926  0.1660  0.3550
   61MOL   O10033820   1.428   0.491   0.481  0.1000 -0.2386 -0.2339
   61MOL   C10133821   1.243   0.290   0.254 -0.0495  0.1075 -0.0968
   61MOL   C10233822   1.262   0.237   0.127  0.7338 -0.3990  0.4121
   61MOL   O10333823   1.460   0.128   8.039  0.0968  0.7130  0.2880
   61MOL   H10433824   1.495   0.449   0.001 -0.9691  1.1682 -0.8464
   61MOL   H10533825   1.458   0.546   0.226 -3.6117  1.3980  2.2643
   61MOL   H10633826   1.114   0.419   0.453 -0.5726  0.9261  1.3229
   61MOL   H10733827   1.355   0.512   0.736  1.1053 -0.7656  3.3469
   61MOL   H10833828   1.304   0.409   0.952 -0.0833  1.4611 -0.0457
   61MOL   H10933829   1.085   0.295   1.081 -0.8244 -0.6080  0.3249
   61MOL   H11033830   0.932   0.249   0.812  0.2259  0.9023  2.1086
   61MOL   H11133831   0.977   0.340   0.593  0.1103  0.0815  0.1562
   61MOL   H11233832   1.178   0.233   0.319 -0.1583  0.7063  0.3182
   61MOL   H11333833   1.207   0.148   0.099  0.2741 -0.4562  1.4585
   61MOL   C11433834   1.112   0.101   1.017 -0.4771 -0.3115 -0.1075
   61MOL   C11533835   1.152   0.007   0.905  0.0679 -0.0615 -0.0941
   61MOL   C11633836   1.095   8.024   0.901 -0.0496 -0.4556  0.7401
   61MOL   C11733837   1.102   7.946   0.787  0.0289 -0.2704 -0.5206
   61MOL   C11833838   1.183   7.980   0.685 -0.3457  0.0067  0.5040
   61MOL   C11933839   1.192   7.879   0.571  0.6672 -0.2807  0.2495
   61MOL   N12033840   1.232   7.934   0.456  0.3756  0.3924  0.1822
   61MOL   C12133841   1.247   7.875   0.323 -0.5922 -0.0856  0.7032
   61MOL   C12233842   1.256   7.963   0.215  0.6152  0.0043  0.2833
   61MOL   C12333843   1.232   7.916   0.084 -0.1431  0.1266  0.3528
   61MOL   C12433844   1.226   7.776   0.049 -0.0716 -1.4535  0.4363
   61MOL   N12533845   1.216   7.727   8.060  0.1998  0.3162 -0.1022
   61MOL   C12633846   1.229   7.687   0.158  0.3624  0.0030  0.3716
   61MOL   C12733847   1.237   7.736   0.292  0.3737 -0.3813 -0.5248
   61MOL   O12833848   1.145   7.764   0.580  0.3913  0.1083 -0.4215
   61MOL   C12933849   1.253   8.103   0.689 -0.0934  0.4093 -0.6809
   61MOL   C13033850   1.230   0.044   0.796  0.9413  0.0027  0.5593
   61MOL   O13133851   1.074   0.050   1.120  0.0581  0.4391 -0.4323
   61MOL   H13233852   1.029   7.994   0.982 -1.2698  0.1147 -0.0353
   61MOL   H13333853   1.057   7.848   0.791  1.0305 -0.6575  2.8310
   61MOL   H13433854   1.253   8.032   0.464  1.9453 -0.0404  1.8161
   61MOL   H13533855   1.270   8.069   0.229 -0.8343 -0.0923  2.5923
   61MOL   H13633856   1.228   7.989   0.005 -2.1503 -1.4066 -1.0125
   61MOL   H13733857   1.204   7.628   8.047  0.0313  0.4095 -0.6641
   61MOL   H13833858   1.216   7.580   0.146  1.0168  0.0105 -0.5147
   61MOL   H13933859   1.231   7.659   0.367 -1.9951  1.5420  1.3439
   61MOL   H14033860   1.310   8.136   0.604 -0.4184  2.0121 -0.2948
   61MOL   H14133861   1.285   0.137   0.791 -0.3757  0.7431 -0.2530
   61MOL   C14233862   1.258   7.784   7.950 -0.2362 -0.7205 -0.1226
   61MOL   C14333863   1.255   7.700   7.821 -0.2482 -0.3873 -0.5164
   61MOL   C14433864   1.156   7.605   7.797 -0.2731 -0.1924  0.6276
   61MOL   C14533865   1.156   7.536   7.676  0.1146  0.4810  0.0435
   61MOL   C14633866   1.244   7.563   7.575  0.2158 -0.0211 -0.6598
   61MOL   C14733867   1.237   7.471   7.459 -0.5254 -0.2812  0.7952
   61MOL   N14833868   1.290   7.531   7.349 -0.4572  0.3550  0.0249
   61MOL   C14933869   1.328   7.469   7.229 -0.4697 -0.3984 -0.3875
   61MOL   C15033870   1.425   7.535   7.152  0.3272  0.1912  0.5239
   61MOL   C15133871   1.467   7.476   7.030 -0.2376  0.5641 -0.2588
   61MOL   C15233872   1.417   7.353   6.994  0.2402  0.3887  0.0737
   61MOL   N15333873   1.471   7.292   6.872 -0.6408 -0.3286 -0.1638
   61MOL   C15433874   1.327   7.283   7.073  0.1587  0.8412 -0.1530
   61MOL   C15533875   1.270   7.348   7.181  0.3761 -0.4341 -0.6200
   61MOL   O15633876   1.202   7.352   7.465  0.1460  0.0122 -0.1643
   61MOL   C15733877   1.344   7.656   7.595  0.4608  0.1983  0.5426
   61MOL   C15833878   1.346   7.729   7.717  0.1161  0.2116 -0.8137
   61MOL   O15933879   1.309   7.897   7.948 -0.2620  0.1996 -0.5460
   61MOL   H16033880   1.075   7.592   7.868  0.6690  1.2824  1.9938
   61MOL   H16133881   1.081   7.459   7.665  0.0291  0.4054  1.0885
   61MOL   H16233882   1.325   7.623   7.369 -1.4839  0.6367  0.5349
   61MOL   H16333883   1.469   7.628   7.183  1.1268 -0.0908  0.2541
   61MOL   H16433884   1.537   7.520   6.961  0.0410 -0.6655 -0.7693
   61MOL   H16533885   1.538   7.353   6.827 -1.1574 -0.3207 -0.9144
   61MOL   H16633886   1.287   7.185   7.052 -0.5720  1.3066 -0.9688
   61MOL   H16733887   1.200   7.290   7.239  2.6542 -1.5388  1.1248
   61MOL   H16833888   1.424   7.677   7.525 -0.0350 -0.2273 -0.1641
   61MOL   H16933889   1.421   7.803   7.739 -2.6559  2.7748  0.4751
   61MOL   C17033890   1.450   7.172   6.818 -0.3681  0.6561  0.2977
   61MOL   C17133891   1.524   7.145   6.696 -0.1039 -0.7431  0.4204
   61MOL   C17233892   1.554   7.009   6.664  0.2459 -0.1159  0.5672
   61MOL   C17333893   1.606   6.974   6.540 -0.3681 -1.2134 -0.0311
   61MOL   C17433894   1.643   7.072   6.445 -0.0542 -0.4198 -0.5181
   61MOL   C17533895   1.675   7.035   6.303  0.3885 -0.2146 -0.0682
   61MOL   N17633896   1.794   6.985   6.273 -0.3417  0.2542  0.2764
   61MOL   C17733897   1.922   7.002   6.329  0.1641 -0.2106 -0.1091
   61MOL   C17833898   2.012   6.895   6.311 -0.2732 -0.2750 -0.3187
   61MOL   C17933899   2.147   6.896   6.350 -0.0652  0.0632 -0.5600
   61MOL   C18033900   2.196   7.019   6.405 -0.0460 -0.2332 -0.0187
   61MOL   N18133901   2.319   7.036   6.466 -0.1034 -0.0139  0.2359
   61MOL   C18233902   2.112   7.131   6.415 -0.2572  0.5106 -0.1884
   61MOL   C18333903   1.976   7.127   6.375 -0.4051 -0.1156  0.3534
   61MOL   O18433904   1.586   7.045   6.220  0.3262 -0.4275  0.0781
   61MOL   C18533905   1.619   7.209   6.483 -0.6851 -0.2913  0.1434
   61MOL   C18633906   1.562   7.250   6.606 -0.4760  0.1929  0.7779
   61MOL   O18733907   1.396   7.084   6.885  0.2695 -0.1529  0.2851
   61MOL   H18833908   1.552   6.943   6.749  1.6254  1.6685  2.0223
   61MOL   H18933909   1.627   6.869   6.531 -1.5586 -1.3764 -1.0488
   61MOL   H19033910   1.797   6.936   6.184  1.3412  0.9408 -0.0544
   61MOL   H19133911   1.978   6.805   6.263 -1.9353 -0.5258  1.2549
   61MOL   H19233912   2.210   6.811   6.331 -0.3494 -0.8979  2.5443
   61MOL   H19333913   2.325   7.079   6.557  2.3930 -0.7632  0.4608
   61MOL   H19433914   2.153   7.221   6.459  2.6077 -0.5210 -0.6375
   61MOL   H19533915   1.913   7.214   6.387 -0.7927 -0.1531 -1.3644
   61MOL   H19633916   1.640   7.272   6.398  1.4009  0.4901  1.2239
   61MOL   H19733917   1.547   7.355   6.629  1.0272  0.2059  1.7985
   61MOL   C19833918   2.436   7.042   6.403  0.1962  0.6923 -0.3976
   61MOL   C19933919   2.554   7.097   6.483  0.2839  0.4934 -0.3492
   61MOL   C20033920   2.527   7.177   6.597  0.1003  0.0530  0.2032
   61MOL   C20133921   2.634   7.207   6.682 -0.3150 -0.1549  0.3268
   61MOL   C20233922   2.769   7.159   6.657 -0.9026  0.3526  0.6288
   61MOL   C20333923   2.874   7.194   6.756 -0.5932  0.5518  0.5648
   61MOL   N20433924   2.905   7.324   6.760  0.3432 -0.0502 -0.4167
   61MOL   C20533925   3.017   7.389   6.827 -0.6244  0.1071  0.2629
   61MOL   C20633926   2.998   7.516   6.875  0.2562  0.7813 -0.0378
   61MOL   C20733927   3.096   7.579   6.946 -0.8341 -0.4387 -0.5229
   61MOL   C20833928   3.226   7.527   6.956 -0.0307  0.4110  0.3823
   61MOL   N20933929   3.330   7.590   7.028  0.4501 -0.3831  0.3613
   61MOL   C21033930   3.251   7.398   6.898  0.7339  0.4034  0.1361
   61MOL   C21133931   3.144   7.334   6.828 -0.1446  0.2699 -0.0493
   61MOL   O21233932   2.942   7.104   6.808 -0.8617 -0.8049 -0.0938
   61MOL   C21333933   2.793   7.078   6.543  0.0442 -0.1180 -0.9456
   61MOL   C21433934   2.686   7.049   6.457  0.9193 -0.8232  0.0296
   61MOL   O21533935   2.442   7.027   6.277  0.4406 -0.1993  0.3133
   61MOL   H21633936   2.430   7.216   6.625  0.2564 -0.2721  1.2430
   61MOL   H21733937   2.618   7.266   6.771 -2.0056  0.0701 -0.1144
   61MOL   H21833938   2.830   7.378   6.720 -1.1806 -1.2541  0.7426
   61MOL   H21933939   2.903   7.561   6.850 -0.1991 -0.3757 -0.4250
   61MOL   H22033940   3.073   7.679   6.981 -0.7381 -1.2849  2.0862
   61MOL   H22133941   3.403   7.539   7.074  0.5039 -0.3686  0.2916
   61MOL   H22233942   3.347   7.349   6.904 -0.1513 -1.4479 -0.5616
   61MOL   H22333943   3.164   7.242   6.775 -2.7681 -0.7084  0.5560
   61MOL   H22433944   2.894   7.042   6.531  1.1888  2.1947  1.2360
   61MOL   H22533945   2.709   6.990   6.369 -0.8953 -0.0581 -0.9741
   61MOL   C22633946   3.359   7.718   7.048  0.2282  0.6526  0.3065
   61MOL   C22733947   3.464   7.734   7.145  0.2125  0.6359 -0.5686
   61MOL   C22833948   3.471   7.851   7.222 -1.0249  0.0521 -0.3364
   61MOL   C22933949   3.582   7.878   7.301  0.1614 -0.5270 -0.4248
   61MOL   C23033950   3.687   7.788   7.309  0.0577 -0.5214  0.2169
   61MOL   C23133951   3.794   7.809   7.409 -0.1677 -0.3535  0.4835
   61MOL   N23233952   3.797   7.936   7.441 -0.3219 -0.7968 -0.4217
   61MOL   C23333953   3.863   8.002   7.543 -0.1195 -0.6014  0.0909
   61MOL   C23433954   3.929   7.940   7.646 -0.6479 -0.1230 -0.6062
   61MOL   C23533955   4.015   8.020   7.719  0.6965 -0.0432  0.2224
   61MOL   C23633956   4.012   0.014   7.709 -0.0109 -0.2837 -0.2962
   61MOL   N23733957   4.098   0.085   7.792 -0.0442  0.6151 -0.1381
   61MOL   C23833958   3.937   0.076   7.608 -0.1469 -0.4022 -0.0239
   61MOL   C23933959   3.861   8.145   7.527  0.6076 -1.0463  0.6115
   61MOL   O24033960   3.867   7.720   7.453  0.4655  0.5160 -0.0365
   61MOL   C24133961   3.682   7.665   7.244  0.1822  0.0554  0.8927
   61MOL   C24233962   3.571   7.645   7.154  0.7411 -0.2012  0.1433
   61MOL   O24333963   3.313   7.815   6.991  0.6511 -0.1561  0.0792
   61MOL   H24433964   3.388   7.919   7.209 -1.1747  0.3269  1.8854
   61MOL   H24533965   3.569   7.967   7.362 -3.4747  0.2692 -2.2160
   61MOL   H24633966   3.735   7.993   7.385 -1.7257 -1.1293  0.7727
   61MOL   H24733967   3.946   7.835   7.666 -0.8468  0.1492  1.1571
   61MOL   H24833968   4.075   7.968   7.792  0.4409 -2.0352 -0.9196
   61MOL   H24933969   4.163   0.026   7.842  1.4616  1.1183 -1.4654
   61MOL   H25033970   3.939   0.183   7.592 -0.9517 -0.1154  1.6017
   61MOL   H25133971   3.815   0.036   7.436  0.9570  1.0269  1.2588
   61MOL   H25233972   3.767   7.598   7.242  0.1245 -0.0273  1.2140
   61MOL   H25333973   3.569   7.550   7.103  3.0400 -0.1492 -0.1142
   61MOL   C25433974   4.074   0.193   7.861 -0.1990 -0.1698  0.3998
   61MOL   C25533975   4.171   0.223   7.980  0.0384  0.1973 -0.1261
   61MOL   C25633976   4.110   0.277   8.096 -0.3370  0.2528  0.2071
   61MOL   C25733977   4.190   0.324   0.059  0.4187  0.4859 -0.3097
   61MOL   C25833978   4.333   0.312   0.050  0.2576 -0.0743  0.2452
   61MOL   C25933979   4.418   0.357   0.171  0.1403 -0.9142 -0.2596
   61MOL   N26033980   4.362   0.448   0.249  0.2940  0.1840 -0.0030
   61MOL   C26133981   4.420   0.498   0.375  0.1888  0.0748  0.2363
   61MOL   C26233982   4.481   0.412   0.471 -0.0439 -0.5629 -0.5260
   61MOL   C26333983   4.522   0.456   0.598  0.1657  0.1846  0.4947
   61MOL   C26433984   4.521   0.598   0.623 -0.5204 -0.0935 -0.5647
   61MOL   N26533985   4.554   0.657   0.748  0.3570  0.1221  1.0801
   61MOL   C26633986   4.470   0.689   0.529 -0.3238 -0.0477  0.4027
   61MOL   C26733987   4.414   0.636   0.411  0.6284  0.3989  0.3361
   61MOL   O26833988   4.530   0.305   0.190 -0.1960 -0.1386  0.6716
   61MOL   C26933989   4.391   0.265   8.076  0.2854 -0.1319 -0.1576
   61MOL   C27033990   4.309   0.220   7.972  0.5603  0.2239  0.4026
   61MOL   O27133991   3.980   0.266   7.850 -0.4041 -0.5705  0.5204
   61MOL   H27233992   4.002   0.279   8.096 -0.3218  1.5254 -0.9514
   61MOL   H27333993   4.137   0.348   0.151  0.6956  0.9901 -0.2807
   61MOL   H27433994   4.282   0.494   0.208  2.3846  1.4999 -2.8612
   61MOL   H27533995   4.497   0.307   0.454 -1.5386 -0.4657 -2.8037
   61MOL   H27633996   4.544   0.386   0.676  0.1886 -0.9896 -0.5516
   61MOL   H27733997   4.518   0.750   0.766  1.0225  0.1423  2.4124
   61MOL   H27833998   4.461   0.796   0.543  1.8805  0.0591  1.1872
   61MOL   H27933999   4.365   0.695   0.335  1.0320 -0.5118 -0.6369
   61MOL   H28034000   4.499   0.265   8.063  0.2619  1.5260 -0.4516
   61MOL   H28134001   4.355   0.178   7.884  2.0550 -1.4983  1.9651
   61MOL   C28234002   4.645   0.614   0.831  0.2982 -0.3620 -0.2390
   61MOL   C28334003   4.671   0.704   0.945  0.1191  0.8675  0.3277
   61MOL   C28434004   4.804   0.709   0.991 -0.0411 -0.6104 -0.5892
   61MOL   C28534005   4.828   0.787   1.102  0.0702 -0.2917  0.0168
   61MOL   C28634006   4.729   0.868   1.166 -0.3983  0.5737  0.4429
   61MOL   C28734007   4.765   0.963   1.273 -0.2927  0.5091  0.9301
   61MOL   N28834008   4.704   1.080   1.254 -0.2449 -0.3522 -0.3673
   61MOL   C28934009   4.723   1.207   1.314 -0.5452 -0.4390 -0.0226
   61MOL   C29034010   4.815   1.234   1.418 -0.1141 -0.2902 -0.0517
   61MOL   C29134011   4.816   1.363   1.479  0.2149 -0.2731  0.0741
   61MOL   C29234012   4.724   1.460   1.446 -0.2316 -0.4422 -0.4071
   61MOL   N29334013   4.732   1.583   1.513  0.1944 -0.0985 -0.8329
   61MOL   C29434014   4.635   1.434   1.343 -0.0988  0.3328  0.0142
   61MOL   C29534015   4.635   1.309   1.273 -0.7834  0.5160 -0.7436
   61MOL   O29634016   4.860   0.942   1.348  0.3501  0.0497 -0.1070
   61MOL   C29734017   4.597   0.846   1.124 -0.2907 -0.2305  0.4425
   61MOL   C29834018   4.563   0.770   1.011  0.4376  0.3489 -1.0085
   61MOL   O29934019   4.692   0.499   0.831  0.2662 -0.0952 -0.1907
   61MOL   H30034020   4.883   0.653   0.944  0.8576  0.1328  0.0203
   61MOL   H30134021   4.930   0.781   1.137  0.2649 -0.1082 -0.5090
   61MOL   H30234022   4.635   1.067   1.181 -1.1234  0.0953  0.3656
   61MOL   H30334023   4.879   1.156   1.456  1.2816  0.9828  0.2500
   61MOL   H30434024   4.887   1.391   1.555 -1.0121  0.8596  0.8367
   61MOL   H30534025   4.801   1.591   1.586 -2.5925  1.2935  1.7899
   61MOL   H30634026   4.578   1.520   1.313  0.5260 -0.6595 -4.2872
   61MOL   H30734027   4.566   1.291   1.193  1.6974 -2.0828 -2.3902
   61MOL   H30834028   4.526   0.902   1.182  0.4534 -0.5531  1.6817
   61MOL   H30934029   4.460   0.746   0.987 -0.3540  1.9205  0.7718
   61MOL   C31034030   4.657   1.701   1.514 -0.3285  0.0428  0.3065
   61MOL   C31134031   4.530   1.724   1.433  0.1600  0.1374  0.4017
   61MOL   C31234032   4.531   1.827   1.335 -0.2358  0.5221  0.5108
   61MOL   C31334033   4.423   1.847   1.250  0.3492  0.3182 -0.1286
   61MOL   C31434034   4.309   1.765   1.264 -0.3805  0.5507 -0.1359
   61MOL   C31534035   4.194   1.776   1.164 -0.2666  1.1390  0.3988
   61MOL   N31634036   4.095   1.679   1.171 -0.6828 -0.0166 -0.1364
   61MOL   C31734037   3.994   1.654   1.073 -0.1880  0.3598 -0.2850
   61MOL   C31834038   3.975   1.718   0.950 -0.4668  0.1726 -0.0023
   61MOL   C31934039   3.865   1.679   0.861 -0.9026 -0.0211 -0.0057
   61MOL   C32034040   3.793   1.562   0.896 -0.1753 -0.4278  0.0649
   61MOL   N32134041   3.698   1.492   0.812  0.3988 -0.3275 -0.2304
   61MOL   C32234042   3.822   1.500   1.019 -0.0682 -0.3601  0.5914
   61MOL   C32334043   3.908   1.549   1.112 -0.0609  0.0908 -0.3639
   61MOL   O32434044   4.200   1.862   1.080 -0.0406 -0.0480  1.0576
   61MOL   C32534045   4.298   1.683   1.379 -0.3135 -0.1619  0.2131
   61MOL   C32634046   4.410   1.664   1.464 -0.4288  0.2499  0.3352
   61MOL   O32734047   4.691   1.783   1.603  0.1081 -0.1409  0.0580
   61MOL   H32834048   4.625   1.875   1.311  0.1928  0.5773  2.2854
   61MOL   H32934049   4.424   1.913   1.164 -1.5895 -1.7110 -1.7608
   61MOL   H33034050   4.105   1.603   1.236 -1.0883  0.7266  0.8032
   61MOL   H33134051   4.035   1.801   0.917 -1.5493  0.8321 -0.3414
   61MOL   H33234052   3.838   1.739   0.776  1.0460  1.2816  0.2769
   61MOL   H33334053   3.692   1.391   0.803  0.8063 -0.2357 -1.7441
   61MOL   H33434054   3.753   1.420   1.040  0.1743 -0.2914  1.7122
   61MOL   H33534055   3.920   1.500   1.208  0.8795  0.8597 -0.0805
   61MOL   H33634056   4.207   1.631   1.404  0.0376 -1.3783 -0.9308
   61MOL   H33734057   4.420   1.594   1.545  1.0055 -0.1987 -0.2103
   61MOL   C33834058   3.623   1.552   0.716 -0.4913 -0.3460  0.0812
   61MOL   C33934059   3.556   1.465   0.612  0.3397  0.0352  0.2333
   61MOL   C34034060   3.435   1.504   0.546  0.3135 -1.0985  0.5616
   61MOL   C34134061   3.385   1.433   0.437  0.1517  0.8057  0.3983
   61MOL   C34234062   3.447   1.306   0.408  0.5482  0.0611  0.3611
   61MOL   C34334063   3.392   1.215   0.300  0.1800  0.5074  0.5637
   61MOL   N34434064   3.302   1.269   0.216 -0.5972  0.3424 -0.3531
   61MOL   C34534065   3.263   1.210   0.090  0.0028  0.5753 -1.1398
   61MOL   C34634066   3.356   1.140   0.010  0.7531 -0.2180  0.0218
   61MOL   C34734067   3.316   1.088   8.036  0.0059 -0.5955  0.2683
   61MOL   C34834068   3.183   1.111   7.987  0.1137  0.3013 -0.2759
   61MOL   N34934069   3.156   1.047   7.867 -0.0759 -0.6313  0.0766
   61MOL   C35034070   3.096   1.193   8.064  0.2503  0.3081 -0.5893
   61MOL   C35134071   3.125   1.235   0.051 -0.0762  0.2737 -0.3990
   61MOL   O35234072   3.425   1.094   0.294  0.4280 -0.1024 -0.1595
   61MOL   C35334073   3.559   1.260   0.482 -0.0455  0.3994 -0.2522
   61MOL   C35434074   3.613   1.342   0.583 -0.2601 -0.3883  0.0091
   61MOL   O35534075   3.599   1.674   0.717  0.0399 -0.3334 -0.3928
   61MOL   H35634076   3.397   1.604   0.563  0.5374 -0.7605 -0.8663
   61MOL   H35734077   3.307   1.470   0.372 -0.6192 -0.4744  0.5781
   61MOL   H35834078   3.268   1.363   0.227  0.2916  0.5485  0.6962
   61MOL   H35934079   3.459   1.118   0.033  1.6310  1.4772 -2.0216
   61MOL   H36034080   3.382   1.019   7.984 -0.8966 -1.1395 -0.1652
   61MOL   H36134081   3.229   0.985   7.835  0.5521  1.1115 -2.0126
   61MOL   H36234082   2.995   1.214   8.034  0.2487  0.1774 -0.6746
   61MOL   H36334083   3.055   1.294   0.109 -1.1295 -0.1534 -1.2273
   61MOL   H36434084   3.590   1.157   0.474  1.4118  0.6821  1.4873
   61MOL   H36534085   3.698   1.308   0.639  1.1568  4.5753  1.0365
   61MOL   C36634086   3.047   1.034   7.794 -0.4437  0.4238 -0.4026
   61MOL   C36734087   3.074   0.921   7.696  0.1064 -0.5838 -0.1797
   61MOL   C36834088   2.994   0.915   7.583  0.1329  0.5978 -0.3705
   61MOL   C36934089   3.007   0.811   7.490 -1.0984  0.1940 -0.2530
   61MOL   C37034090   3.105   0.711   7.513 -0.2217  0.3647  0.2919
   61MOL   C37134091   3.138   0.625   7.393 -0.9578 -0.1632 -0.0333
   61MOL   N37234092   3.263   0.608   7.351 -0.6242  0.6274  0.3884
   61MOL   C37334093   3.378   0.647   7.422  0.0485 -0.4463  0.4004
   61MOL   C37434094   3.406   0.784   7.442  0.3333  0.6223  0.5705
   61MOL   C37534095   3.504   0.825   7.529 -0.7239  0.0972  0.5171
   61MOL   C37634096   3.571   0.731   7.605 -0.4038 -0.1780 -0.3453
   61MOL   N37734097   3.655   0.770   7.712 -0.1404 -0.3624 -0.3820
   61MOL   C37834098   3.546   0.590   7.588 -1.0417 -0.0523 -0.1266
   61MOL   C37934099   3.447   0.547   7.496  0.1161 -0.1560  0.3804
   61MOL   O38034100   3.044   0.582   7.325  0.3105  0.7765  0.0235
   61MOL   C38134101   3.182   0.711   7.631 -0.2093 -0.4099 -0.5445
   61MOL   C38234102   3.176   0.821   7.716 -0.2291  0.5119  0.2257
   61MOL   O38334103   2.951   1.111   7.793 -0.2873  0.4956  0.4457
   61MOL   H38434104   2.913   0.986   7.574  1.3017  1.9159 -0.6214
   61MOL   H38534105   2.943   0.798   7.404 -0.0084  0.5572 -1.1232
   61MOL   H38634106   3.272   0.556   7.264  0.1930  2.1535 -0.4699
   61MOL   H38734107   3.345   0.860   7.397  1.8160 -0.2783 -3.1454
   61MOL   H38834108   3.517   0.932   7.536 -0.4722  0.2400 -1.8396
   61MOL   H38934109   3.753   0.758   7.692  0.1679  0.2504  0.7603
   61MOL   H39034110   3.597   0.511   7.640 -0.2317 -0.4670 -1.5028
   61MOL   H39134111   3.427   0.441   7.490  3.2840 -0.7566 -0.2767
   61MOL   H39234112   3.252   0.630   7.643 -0.5036 -0.5467  0.3301
   61MOL   H39334113   3.242   0.824   7.802 -0.4439 -0.5741  0.4386
   61MOL   C39434114   3.612   0.850   7.816 -0.0976 -0.0589  0.0434
   61MOL   C39534115   3.711   0.909   7.910  0.0985 -0.0953  0.3406
   61MOL   C39634116   3.680   0.948   8.041 -0.1607 -0.4028 -0.9568
   61MOL   C39734117   3.770   1.005   8.132 -0.1834  0.1185  0.2214
   61MOL   C39834118   3.901   1.027   8.086 -0.0147  0.5517  0.4250
   61MOL   C39934119   4.002   1.080   0.034  0.2444 -0.5027 -0.7364
   61MOL   N40034120   4.111   0.999   0.035 -0.4439  0.0692 -0.2669
   61MOL   C40134121   4.236   1.002   0.108 -0.1950 -0.1405  0.1454
   61MOL   C40234122   4.343   0.940   0.053  0.2953 -0.0659  0.0672
   61MOL   C40334123   4.466   0.952   0.124  0.4196  0.1189 -0.2696
   61MOL   C40434124   4.466   0.999   0.260  0.4724  0.6170  0.9292
   61MOL   N40534125   4.593   1.008   0.315  0.1834 -0.2248 -0.1945
   61MOL   C40634126   4.353   1.040   0.325 -0.1537 -0.1230  0.0211
   61MOL   C40734127   4.237   1.049   0.246 -0.1375  0.0256 -0.4328
   61MOL   O40834128   3.975   1.170   0.114  0.0564 -0.0293  0.1100
   61MOL   C40934129   3.946   0.993   7.947  0.6111 -0.2672 -0.2515
   61MOL   C41034130   3.846   0.936   7.865  0.2898  0.1889 -0.0194
   61MOL   O41134131   3.495   0.866   7.843  0.5033 -0.3343 -0.3689
   61MOL   H41234132   3.583   0.930   8.085  0.7835 -2.8794  0.2383
   61MOL   H41334133   3.737   1.031   0.085  1.3524 -0.3341  0.8681
   61MOL   H41434134   4.118   0.939   8.100  0.7278 -0.0995 -0.0496
   61MOL   H41534135   4.354   0.906   8.097  1.4076 -0.4165  0.2898
   61MOL   H41634136   4.555   0.931   0.067  1.3799  2.9473  0.0772
   61MOL   H41734137   4.672   0.967   0.267 -0.9929 -2.2774 -0.4378
   61MOL   H41834138   4.356   1.058   0.432 -1.8554 -0.1752  0.0896
   61MOL   H41934139   4.143   1.083   0.288  1.3232  2.1802  1.1733
   61MOL   H42034140   4.046   1.001   7.907  0.2497  0.5160 -1.0059
   61MOL   H42134141   3.873   0.914   7.763  1.6762 -1.1435  0.6249
   61MOL   C42234142   4.647   1.095   0.403 -0.1167  0.5215 -0.3679
   61MOL   C42334143   4.795   1.113   0.402 -0.2031 -0.1994  0.1736
   61MOL   C42434144   4.867   1.146   0.520 -0.1570  0.8395 -0.0660
   61MOL   C42534145   5.008   1.168   0.515 -0.1350 -0.0673 -0.5767
   61MOL   C42634146   5.079   1.173   0.389  0.5606  0.5439 -0.4253
   61MOL   C42734147   5.223   1.208   0.383  0.7951  0.1229 -0.1670
   61MOL   N42834148   5.265   1.312   0.463 -0.2874 -0.4381 -1.0115
   61MOL   C42934149   5.394   1.358   0.477  0.6902 -0.4748 -0.2433
   61MOL   C43034150   5.413   1.482   0.541 -0.2501  0.2016 -0.0246
   61MOL   C43134151   5.540   1.541   0.555  0.3287  0.2589  0.9484
   61MOL   C43234152   5.657   1.470   0.513  0.6013  0.1163 -0.2949
   61MOL   N43334153   5.791   1.509   0.542 -0.5058  0.2698  0.0185
   61MOL   C43434154   5.631   1.335   0.472 -0.2791 -0.1600  0.2508
   61MOL   C43534155   5.501   1.284   0.441  0.8786 -0.2060 -0.3534
   61MOL   O43634156   5.292   1.146   0.300  0.2203  0.7480 -0.0559
   61MOL   C43734157   5.004   1.138   0.277 -0.1780 -0.5982 -0.2489
   61MOL   C43834158   4.862   1.112   0.276 -1.0267 -0.2773  0.3448
   61MOL   O43934159   4.579   1.162   0.489 -0.0962  0.0354 -0.7159
   61MOL   H44034160   4.814   1.140   0.614 -0.2609  0.1748 -0.1670
   61MOL   H44134161   5.061   1.173   0.609 -1.0126 -1.7010  0.0345
   61MOL   H44234162   5.200   1.344   0.533  0.0298 -3.0178  0.5613
   61MOL   H44334163   5.330   1.548   0.562 -1.7537 -1.6828  0.0873
   61MOL   H44434164   5.562   1.632   0.610  3.9824  0.9025 -1.4075
   61MOL   H44534165   5.835   1.454   0.614  2.2401 -0.6700 -2.2779
   61MOL   H44634166   5.717   1.272   0.453  0.0844 -0.3082  2.2571
   61MOL   H44734167   5.495   1.179   0.416  1.7539 -0.5207  0.7602
   61MOL   H44834168   5.054   1.143   0.181 -0.9803  1.3574 -0.5987
   61MOL   H44934169   4.803   1.099   0.187 -2.1187 -0.4266  1.0681
   61MOL   C45034170   5.867   1.599   0.487 -0.3890 -0.1498  0.3578
   61MOL   C45134171   5.810   1.688   0.385 -0.3042 -0.4207 -0.3992
   61MOL   C45234172   5.734   1.641   0.277  1.2373  0.0613 -0.0411
   61MOL   C45334173   5.702   1.722   0.168  0.8583  0.2449 -0.0572
   61MOL   C45434174   5.723   1.859   0.173  0.8893 -0.3665 -0.4873
   61MOL   C45534175   5.657   1.946   0.071 -0.2029 -0.2402  0.8607
   61MOL   N45634176   5.524   1.931   0.056 -0.4062  0.3242  0.6459
   61MOL   C45734177   5.435   1.978   8.101  0.7196  0.2220 -0.0921
   61MOL   C45834178   5.435   2.115   8.065  0.1429 -0.0333 -0.3539
   61MOL   C45934179   5.349   2.159   7.959  0.3704 -0.0344  0.0079
   61MOL   C46034180   5.265   2.073   7.886  0.8934  0.0369 -0.6293
   61MOL   N46134181   5.192   2.124   7.776 -0.6080  0.6894  0.3717
   61MOL   C46234182   5.270   1.934   7.922 -0.0753  0.2206 -0.1075
   61MOL   C46334183   5.347   1.891   8.038 -0.1874 -0.1422  0.0098
   61MOL   O46434184   5.731   2.019   0.004 -0.5118  0.5151  0.2887
   61MOL   C46534185   5.800   1.909   0.279 -0.5881  0.4429 -0.3406
   61MOL   C46634186   5.848   1.826   0.382 -0.1683 -0.0360 -0.0005
   61MOL   O46734187   5.982   1.610   0.531  0.2945  0.7316 -0.2467
   61MOL   H46834188   5.705   1.537   0.267 -0.5465  0.3265  2.1429
   61MOL   H46934189   5.656   1.677   0.082 -2.2238 -0.3148  1.8062
   61MOL   H47034190   5.488   1.862   0.121 -0.6818 -1.7591 -1.6490
   61MOL   H47134191   5.494   2.188   8.119 -0.9351  2.3286 -2.2668
   61MOL   H47234192   5.365   2.256   7.914  0.4332 -0.8111 -1.6802
   61MOL   H47334193   5.237   2.200   7.727  0.9954 -1.0196 -0.8568
   61MOL   H47434194   5.215   1.863   7.862  0.8328 -1.8111  1.4190
   61MOL   H47534195   5.356   1.784   8.049  1.9533  0.2631  2.6166
   61MOL   H47634196   5.802   2.016   0.294  1.1649  0.1683  1.5527
   61MOL   H47734197   5.912   1.869   0.457 -0.3055  0.2779 -0.0644
   61MOL   C47834198   5.084   2.074   7.719 -0.3286  0.0541  0.4559
   61MOL   C47934199   5.042   2.139   7.586 -0.2062  0.0946 -0.2363
   61MOL   C48034200   4.913   2.115   7.550  0.0381 -0.2326  0.2775
   61MOL   C48134201   4.873   2.174   7.425 -0.4456  0.9591  0.8696
   61MOL   C48234202   4.955   2.265   7.352  0.0570  0.1181 -0.1983
   61MOL   C48334203   4.903   2.332   7.227 -0.8012  0.6271  0.3574
   61MOL   N48434204   4.772   2.361   7.239  0.4139  0.1410 -0.3958
   61MOL   C48534205   4.677   2.418   7.142  0.2199  0.5415 -0.0383
   61MOL   C48634206   4.570   2.497   7.190 -0.3522  0.6328  0.0258
   61MOL   C48734207   4.472   2.547   7.103  0.1011  0.0133 -0.2948
   61MOL   C48834208   4.480   2.526   6.964 -0.6390 -0.2774  0.3833
   61MOL   N48934209   4.392   2.572   6.869 -0.5059  0.2846  0.2151
   61MOL   C49034210   4.590   2.454   6.915  0.2485  0.1069 -0.0747
   61MOL   C49134211   4.690   2.404   7.000 -0.3549  0.0543 -0.5509
   61MOL   O49234212   4.975   2.350   7.128  0.7805  0.3888 -0.5451
   61MOL   C49334213   5.088   2.281   7.400 -0.9267 -0.4247  0.1262
   61MOL   C49434214   5.132   2.217   7.517  0.2028  0.0547  0.2069
   61MOL   O49534215   5.008   1.986   7.769 -0.1377  0.1879 -0.1183
   61MOL   H49634216   4.855   2.033   7.590 -1.0499  1.1372  1.5570
   61MOL   H49734217   4.776   2.152   7.382  0.4009 -1.1802  0.0229
   61MOL   H49834218   4.738   2.347   7.333 -0.2047 -1.4326 -0.8364
   61MOL   H49934219   4.551   2.504   7.296  2.1913  0.5312  0.5213
   61MOL   H50034220   4.392   2.605   7.146  1.0083  1.2708 -0.2589
   61MOL   H50134221   4.425   2.570   6.774 -0.5264 -1.3617  0.2343
   61MOL   H50234222   4.599   2.440   6.809 -0.6411 -0.8612 -0.0333
   61MOL   H50334223   4.778   2.360   6.954 -0.6122 -0.3343 -0.6786
   61MOL   H50434224   5.156   2.345   7.346 -1.1354  0.6802  1.1489
   61MOL   H50534225   5.237   2.234   7.533 -0.0272  0.3138  1.4958
   61MOL   C50634226   4.272   2.627   6.890 -0.6817  0.2511  0.1868
   61MOL   C50734227   4.211   2.693   6.769 -0.0405  0.5976 -0.2548
   61MOL   C50834228   4.236   2.647   6.637  0.8708  0.4210  0.5934
   61MOL   C50934229   4.194   2.728   6.529 -0.2406 -0.1146  0.1804
   61MOL   C51034230   4.129   2.857   6.551  0.0587  0.4385  0.1849
   61MOL   C51134231   4.115   2.959   6.441  0.0041 -0.3365  0.7293
   61MOL   N51234232   4.227   3.031   6.424  0.2216 -0.1248 -0.6333
   61MOL   C51334233   4.342   3.038   6.511 -0.4159 -0.2747  0.4757
   61MOL   C51434234   4.357   3.158   6.588 -0.4118 -0.0551 -0.5213
   61MOL   C51534235   4.458   3.165   6.690 -0.8725  0.0272 -0.3209
   61MOL   C51634236   4.539   3.057   6.720  0.7578 -0.6070  0.2798
   61MOL   N51734237   4.626   3.049   6.830 -0.3833 -0.2165 -0.4445
   61MOL   C51834238   4.524   2.947   6.637  0.2621 -0.2776 -0.2946
   61MOL   C51934239   4.430   2.935   6.535  0.1752  0.6402 -0.0773
   61MOL   O52034240   4.024   2.968   6.366  0.3301 -0.0417  0.3523
   61MOL   C52134241   4.103   2.898   6.686  0.0012  0.9176  1.1219
   61MOL   C52234242   4.142   2.809   6.787 -0.2711  0.3336  0.1766
   61MOL   O52334243   4.206   2.631   6.998 -0.0271 -0.8048 -0.0885
   61MOL   H52434244   4.306   2.565   6.629 -1.5058 -1.5671 -0.3368
   61MOL   H52534245   4.235   2.704   6.432  0.6333  0.6797  0.3410
   61MOL   H52634246   4.226   3.103   6.353 -1.8728  1.9268  1.4012
   61MOL   H52734247   4.289   3.238   6.565 -1.8046  0.0617  3.5621
   61MOL   H52834248   4.467   3.255   6.749 -1.7570 -0.0699 -0.0255
   61MOL   H52934249   4.691   2.972   6.824 -1.5919 -1.1378 -1.9637
   61MOL   H53034250   4.584   2.858   6.652  0.2532 -0.5316 -1.6369
   61MOL   H53134251   4.430   2.853   6.464 -2.2647  1.7696 -1.4410
   61MOL   H53234252   4.056   2.990   6.717 -1.5799  0.3238  0.5036
   61MOL   H53334253   4.123   2.851   6.886 -3.8077 -0.3484 -0.1470
   61MOL   C53434254   4.593   3.078   6.956 -0.4642  0.1776 -0.2390
   61MOL   C53534255   4.647   2.983   7.060  0.2133 -0.5312  0.8238
   61MOL   C53634256   4.773   2.924   7.048 -0.1450  0.2905 -0.0720
   61MOL   C53734257   4.822   2.846   7.151  0.4455 -0.9592  0.1426
   61MOL   C53834258   4.747   2.816   7.264 -0.0916  0.9489  0.1740
   61MOL   C53934259   4.799   2.731   7.381 -0.2688 -0.3555  0.1561
   61MOL   N54034260   4.933   2.697   7.383  0.0583  0.0800  0.0747
   61MOL   C54134261   5.010   2.622   7.478  0.1584  0.6522  0.8175
   61MOL   C54234262   5.152   2.642   7.473 -0.4935 -0.0396 -0.2119
   61MOL   C54334263   5.230   2.586   7.577  0.3841 -0.1253 -0.0285
   61MOL   C54434264   5.169   2.502   7.670  0.0238  0.0279 -0.3696
   61MOL   N54534265   5.251   2.447   7.768 -0.1005 -0.0464 -0.0637
   61MOL   C54634266   5.035   2.474   7.671  0.1007 -0.7458 -0.2208
   61MOL   C54734267   4.952   2.539   7.575  0.0487  1.1433 -0.3142
   61MOL   O54834268   4.728   2.700   7.478 -1.0169 -0.6848 -0.4457
   61MOL   C54934269   4.615   2.867   7.270  0.1546  0.4279 -0.0324
   61MOL   C55034270   4.564   2.945   7.167 -0.1017 -0.0830 -0.2291
   61MOL   O55134271   4.529   3.172   6.986  0.2123  0.5442  0.4545
   61MOL   H55234272   4.846   2.948   6.972  0.7023 -0.5467  0.4648
   61MOL   H55334273   4.921   2.805   7.139  1.8238  2.0307  0.6893
   61MOL   H55434274   4.991   2.727   7.306  0.1408  1.4929  0.6811
   61MOL   H55534275   5.179   2.719   7.401  1.2584 -0.5439 -0.1177
   61MOL   H55634276   5.334   2.615   7.583  0.1286  0.3248  2.8101
   61MOL   H55734277   5.201   2.430   7.854  1.0849 -2.0156  0.2770
   61MOL   H55834278   4.989   2.409   7.744 -1.9669 -0.0466 -0.8695
   61MOL   H55934279   4.846   2.522   7.585  0.4493 -1.9365 -1.0280
   61MOL   H56034280   4.550   2.842   7.352  1.0559  1.0826  0.8915
   61MOL   H56134281   4.465   2.987   7.168 -0.1243 -0.0880 -1.5383
   61MOL   H56234282   5.330   2.508   7.781  0.7853 -0.8074 -1.6269
   62MOL     C134283   3.259   2.824   5.401  0.3685  0.2970 -0.4292
   62MOL     C234284   3.274   2.809   5.553  0.3825 -0.3444 -0.6466
   62MOL     C334285   3.305   2.917   5.638 -0.7254  0.9097 -0.1771
   62MOL     C434286   3.321   2.898   5.775 -0.0198 -0.1422  0.3928
   62MOL     C534287   3.305   2.771   5.829 -0.0127  0.1109  0.3466
   62MOL     C634288   3.326   2.743   5.974 -0.3453 -0.0710  0.1413
   62MOL     N734289   3.263   2.646   6.033 -0.0434 -0.4831 -0.0546
   62MOL     C834290   3.264   2.593   6.159 -0.3706 -0.1770 -0.7482
   62MOL     C934291   3.221   2.460   6.166 -0.5654  0.3220  0.4716
   62MOL    C1034292   3.219   2.386   6.285  0.0262 -0.0410 -0.0492
   62MOL    C1134293   3.282   2.445   6.398 -0.4316 -0.7785 -0.5982
   62MOL    N1234294   3.298   2.370   6.516  0.2443  0.1460 -0.9256
   62MOL    C1334295   3.326   2.584   6.396 -0.3110  0.5501  0.6635
   62MOL    C1434296   3.318   2.658   6.273 -0.1540  0.0283 -0.4789
   62MOL    O1534297   3.415   2.798   6.038 -0.0003 -0.0911  0.8350
   62MOL    C1634298   3.272   2.666   5.743 -0.8314 -0.0181  0.0738
   62MOL    C1734299   3.258   2.680   5.607 -0.2915 -0.6050 -0.1082
   62MOL    O1834300   3.239   2.736   5.320 -0.1734  0.8562  0.2630
   62MOL    H1934301   3.326   3.019   5.609 -1.5193  1.3646  0.8080
   62MOL    H2034302   3.339   2.978   5.845  1.9534  0.1478 -0.4251
   62MOL    H2134303   3.218   2.590   5.961 -0.0615 -0.0661 -0.3725
   62MOL    H2234304   3.194   2.412   6.073  0.6964 -0.2658  0.3986
   62MOL    H2334305   3.181   2.284   6.285  1.4284 -0.5860  1.3335
   62MOL    H2434306   3.381   2.401   6.565 -0.7829  1.3947  0.0273
   62MOL    H2534307   3.359   2.631   6.488  1.4945  1.6228 -0.4958
   62MOL    H2634308   3.359   2.758   6.269 -0.3854  0.2277  1.5353
   62MOL    H2734309   3.233   2.576   5.787 -1.5252  1.3844  2.4378
   62MOL    H2834310   3.231   2.599   5.540 -1.0251 -1.2471  0.9450
   62MOL    H2934311   3.246   2.931   5.382 -0.4859  0.3347  0.3130
   62MOL    C3034312   3.225   2.271   6.562 -0.2628  0.8887  0.0536
   62MOL    C3134313   3.270   2.224   6.697  0.1931 -0.2534  0.8913
   62MOL    C3234314   3.392   2.155   6.706  0.1556 -0.1072  0.1504
   62MOL    C3334315   3.436   2.101   6.829  0.1274  0.2209  0.2664
   62MOL    C3434316   3.367   2.116   6.949 -0.5498 -1.0435 -0.1397
   62MOL    C3534317   3.424   2.061   7.075 -0.2058  0.1873  0.3790
   62MOL    N3634318   3.349   2.082   7.186 -0.4775 -0.0562  0.2539
   62MOL    C3734319   3.379   2.040   7.317  0.3550 -0.5235 -0.1749
   62MOL    C3834320   3.504   2.061   7.372 -0.2713  0.8825  0.2710
   62MOL    C3934321   3.522   2.036   7.511  0.0071 -0.7172 -0.2210
   62MOL    C4034322   3.418   1.994   7.592 -0.1567  1.1790 -0.6427
   62MOL    N4134323   3.444   1.952   7.726 -0.3395  0.0431  0.3716
   62MOL    C4234324   3.291   1.974   7.534  0.5590  0.1846  0.0120
   62MOL    C4334325   3.267   2.000   7.399 -0.0615 -0.5077  0.4514
   62MOL    O4434326   3.531   2.002   7.077  0.2316  0.0424  0.2855
   62MOL    C4534327   3.239   2.183   6.943 -0.1393 -0.1120  0.0141
   62MOL    C4634328   3.193   2.241   6.818  0.0988 -0.0639 -0.2275
   62MOL    O4734329   3.109   2.257   6.525  0.3061  0.2400  0.1629
   62MOL    H4834330   3.454   2.140   6.619 -0.9039 -0.7749 -0.4907
   62MOL    H4934331   3.522   2.036   6.827  0.8322  1.1646 -1.2121
   62MOL    H5034332   3.251   2.100   7.172 -0.5686 -0.9907 -0.3901
   62MOL    H5134333   3.598   2.077   7.320 -0.2683 -0.2934 -0.0962
   62MOL    H5234334   3.623   2.048   7.546  0.7737 -0.9769 -2.2270
   62MOL    H5334335   3.545   1.945   7.736 -0.4045 -0.4170  0.6998
   62MOL    H5434336   3.209   1.925   7.584 -1.1710  1.4627 -1.4755
   62MOL    H5534337   3.169   1.992   7.355 -0.3375 -0.9183  1.1381
   62MOL    H5634338   3.184   2.202   7.034  0.4919 -0.3865  0.4624
   62MOL    H5734339   3.095   2.286   6.822  0.3170  0.4660 -0.8995
   62MOL    C5834340   3.364   1.922   7.833 -0.3121  0.3819 -0.1270
   62MOL    C5934341   3.439   1.894   7.966 -0.4403 -0.3781 -0.3705
   62MOL    C6034342   3.558   1.962   7.990  0.4333  0.5600  0.4322
   62MOL    C6134343   3.638   1.928   8.106  1.0796  1.1578 -0.1330
   62MOL    C6234344   3.586   1.835   0.057  0.1663 -0.1630  0.0991
   62MOL    C6334345   3.641   1.817   0.192 -0.1491  0.6285  0.4122
   62MOL    N6434346   3.662   1.691   0.226  0.1739  0.6116  0.0055
   62MOL    C6534347   3.745   1.641   0.326 -0.7380  0.1887  0.4575
   62MOL    C6634348   3.773   1.508   0.318  0.4327  0.5808 -0.4286
   62MOL    C6734349   3.862   1.452   0.409 -0.1405 -0.8330  0.4730
   62MOL    C6834350   3.930   1.531   0.505  0.0526 -0.3673  0.1591
   62MOL    N6934351   4.042   1.486   0.584  0.5680 -0.5238  0.3819
   62MOL    C7034352   3.899   1.669   0.511 -0.2035  0.1194  0.1787
   62MOL    C7134353   3.803   1.722   0.426 -0.7729  0.0542  0.2763
   62MOL    O7234354   3.674   1.916   0.251 -0.0252  0.2765 -0.1333
   62MOL    C7334355   3.465   1.772   0.027 -0.0461  0.3579 -0.1835
   62MOL    C7434356   3.392   1.798   8.056  0.3162  0.0500  0.5157
   62MOL    O7534357   3.241   1.924   7.838 -0.3678  0.4475  0.4732
   62MOL    H7634358   3.606   2.027   7.918 -0.9882 -0.4313 -1.4469
   62MOL    H7734359   3.731   1.981   8.123  2.2444 -0.9204  0.1958
   62MOL    H7834360   3.637   1.619   0.159 -0.9030 -0.2822  1.3635
   62MOL    H7934361   3.727   1.441   0.246 -0.9945 -0.7350  1.6506
   62MOL    H8034362   3.884   1.346   0.399 -0.2377 -1.0481  2.4279
   62MOL    H8134363   4.125   1.544   0.585 -0.8176  1.5537 -1.1387
   62MOL    H8234364   3.966   1.730   0.570  1.4319 -1.9239  0.5237
   62MOL    H8334365   3.786   1.829   0.433  1.1361  0.3703  0.2363
   62MOL    H8434366   3.418   1.715   0.106  1.4068  0.9488  1.1320
   62MOL    H8534367   3.295   1.754   8.036 -1.1537  2.2291  2.5069
   62MOL    C8634368   4.050   1.366   0.639 -0.0687  0.3346  0.2127
   62MOL    C8734369   4.181   1.330   0.706  0.4223 -0.3986 -0.0187
   62MOL    C8834370   4.232   1.417   0.806  0.1716  0.1361 -0.3484
   62MOL    C8934371   4.354   1.378   0.872 -0.9272  0.7118 -0.5442
   62MOL    C9034372   4.420   1.258   0.827 -0.1703  0.3007 -0.4382
   62MOL    C9134373   4.541   1.204   0.898 -0.4222  0.2627 -0.3522
   62MOL    N9234374   4.659   1.276   0.878  0.6123  0.1020  1.0035
   62MOL    C9334375   4.778   1.267   0.945  0.0678 -0.1337  0.0696
   62MOL    C9434376   4.830   1.385   1.002  0.1514  0.2228  0.0433
   62MOL    C9534377   4.949   1.378   1.085  0.0410  0.6813 -0.0893
   62MOL    C9634378   5.008   1.254   1.110  0.4953 -0.6644 -1.1596
   62MOL    N9734379   5.110   1.242   1.209 -0.0863 -0.0493  0.5063
   62MOL    C9834380   4.966   1.144   1.041 -0.3049  0.2170  1.0490
   62MOL    C9934381   4.857   1.148   0.952  0.2080  0.5616 -0.2287
   62MOL   O10034382   4.544   1.100   0.958 -0.9630 -0.4194 -0.4525
   62MOL   C10134383   4.362   1.180   0.734 -0.4049  0.8201 -0.3904
   62MOL   C10234384   4.246   1.209   0.674 -0.4866 -0.1719 -0.1706
   62MOL   O10334385   3.957   1.288   0.644  0.6301  0.5679  0.1088
   62MOL   H10434386   4.184   1.510   0.830  0.5794 -0.4472  2.9059
   62MOL   H10534387   4.407   1.431   0.949  0.7821 -3.4645  1.2982
   62MOL   H10634388   4.646   1.361   0.825  1.4668 -0.3010  0.1228
   62MOL   H10734389   4.767   1.472   0.994 -0.7400 -0.3882  0.3458
   62MOL   H10834390   4.990   1.461   1.141  0.6210  0.2517  0.1384
   62MOL   H10934391   5.102   1.166   1.275 -1.4797 -1.0491 -0.7744
   62MOL   H11034392   5.022   1.052   1.050  1.1613  1.0355  0.4483
   62MOL   H11134393   4.826   1.072   0.881  0.3059  0.7411 -0.4632
   62MOL   H11234394   4.401   1.082   0.712 -0.7857  0.4624  0.4992
   62MOL   H11334395   4.196   1.151   0.598  0.7974 -0.0840 -1.1025
   62MOL   C11434396   5.206   1.330   1.243 -0.0128  0.3992  0.8684
   62MOL   C11534397   5.258   1.434   1.151 -0.3978  0.1026 -0.5423
   62MOL   C11634398   5.282   1.565   1.198 -0.2317 -0.1896 -0.5904
   62MOL   C11734399   5.313   1.664   1.105  0.3809  0.1970  0.2658
   62MOL   C11834400   5.320   1.634   0.965 -0.2731  0.2448 -0.1759
   62MOL   C11934401   5.336   1.751   0.868  0.2689  0.3834 -0.7487
   62MOL   N12034402   5.416   1.846   0.916  0.0523 -0.6813  0.0658
   62MOL   C12134403   5.460   1.966   0.852 -0.3903  0.1737 -0.4191
   62MOL   C12234404   5.472   2.086   0.927  0.0130  0.2451 -0.3594
   62MOL   C12334405   5.506   2.202   0.857  0.0732  0.5610 -0.3191
   62MOL   C12434406   5.528   2.209   0.721  0.0499  0.3694 -0.1466
   62MOL   N12534407   5.532   2.336   0.650  0.1587 -0.2288 -0.7960
   62MOL   C12634408   5.517   2.089   0.647 -0.2065  0.2579  0.3585
   62MOL   C12734409   5.482   1.969   0.712  0.1901  0.5284 -0.1179
   62MOL   O12834410   5.290   1.738   0.757  0.4223  0.3746  0.2395
   62MOL   C12934411   5.302   1.501   0.913 -0.1773  0.4964 -0.0748
   62MOL   C13034412   5.278   1.405   1.012  0.2237  0.0129  0.2985
   62MOL   O13134413   5.257   1.320   1.355 -0.7205  0.4172 -0.2145
   62MOL   H13234414   5.280   1.588   1.303 -0.6910  0.8145 -0.8183
   62MOL   H13334415   5.317   1.767   1.139 -2.2823  0.0679  1.0998
   62MOL   H13434416   5.454   1.838   1.009  2.2935  0.4627 -0.7279
   62MOL   H13534417   5.453   2.085   1.033 -1.3956  0.8732 -0.5890
   62MOL   H13634418   5.506   2.288   0.923 -0.5548 -1.0588  1.8676
   62MOL   H13734419   5.516   2.332   0.551 -0.9970  4.0633 -0.8674
   62MOL   H13834420   5.528   2.080   0.540 -0.1250 -1.0493  0.4625
   62MOL   H13934421   5.472   1.884   0.646 -0.6770  0.5834 -0.0626
   62MOL   H14034422   5.295   1.475   0.808 -0.9195 -0.5291  0.2229
   62MOL   H14134423   5.242   1.308   0.982  2.0769 -0.6166  0.0866
   62MOL   C14234424   5.584   2.455   0.693 -0.2738 -0.5320  0.2236
   62MOL   C14334425   5.578   2.550   0.583 -0.8529 -0.1819  0.4145
   62MOL   C14434426   5.463   2.562   0.501 -0.8071 -0.6142  0.0165
   62MOL   C14534427   5.470   2.656   0.395 -0.1858  0.0139 -0.4721
   62MOL   C14634428   5.589   2.731   0.368 -0.3455 -0.0564 -0.4163
   62MOL   C14734429   5.596   2.821   0.244 -0.6901 -0.1924 -0.9477
   62MOL   N14834430   5.480   2.870   0.203 -0.2892  0.1884  0.1376
   62MOL   C14934431   5.464   2.931   0.077 -0.2829  0.6677  0.4082
   62MOL   C15034432   5.363   3.032   0.073 -0.6518  0.0769 -0.2673
   62MOL   C15134433   5.331   3.090   8.094 -0.1762  0.9270 -0.7268
   62MOL   C15234434   5.384   3.031   7.974 -0.2540  0.3804  0.3592
   62MOL   N15334435   5.300   3.051   7.860  0.0422 -0.2236  0.1400
   62MOL   C15434436   5.487   2.939   7.974 -0.3457 -0.2046 -0.1982
   62MOL   C15534437   5.535   2.897   8.099  0.2281  0.1513  0.5212
   62MOL   O15634438   5.704   2.854   0.197  0.1182  0.3537 -0.2993
   62MOL   C15734439   5.702   2.713   0.447  0.4722  0.6421  0.8195
   62MOL   C15834440   5.694   2.624   0.553  0.1677  0.3287  0.2529
   62MOL   O15934441   5.636   2.474   0.805  0.0894 -0.1756  0.6620
   62MOL   H16034442   5.370   2.508   0.516 -1.2493  0.0007 -0.4561
   62MOL   H16134443   5.389   2.663   0.324  1.6018  0.4929 -2.4980
   62MOL   H16234444   5.394   2.878   0.255 -1.8067  1.4658 -2.4442
   62MOL   H16334445   5.303   3.065   0.156 -1.4388 -0.4331 -0.6244
   62MOL   H16434446   5.252   3.164   8.083 -1.1271  0.2128  1.0702
   62MOL   H16534447   5.253   3.139   7.849 -0.2045 -0.2803  0.7346
   62MOL   H16634448   5.531   2.906   7.881  0.6493  1.0932 -0.2077
   62MOL   H16734449   5.624   2.836   8.100 -0.0671 -0.2881  0.2332
   62MOL   H16834450   5.794   2.762   0.422  1.4008 -1.3006  0.3853
   62MOL   H16934451   5.787   2.625   0.609  0.8402  0.2290 -0.8573
   62MOL   C17034452   5.269   2.958   7.767 -0.6530 -0.4588  0.3149
   62MOL   C17134453   5.198   3.012   7.647 -0.2805  0.6885  0.4751
   62MOL   C17234454   5.247   2.977   7.520 -0.1092  0.5952 -0.0853
   62MOL   C17334455   5.188   3.033   7.404  0.0819  0.2091  0.1362
   62MOL   C17434456   5.082   3.123   7.409  0.4581  0.2809  0.0525
   62MOL   C17534457   5.012   3.184   7.290  0.2644 -0.6101 -0.4228
   62MOL   N17634458   5.108   3.204   7.198 -0.5572 -0.0327 -0.1245
   62MOL   C17734459   5.106   3.274   7.073  0.8492  0.5565  0.2019
   62MOL   C17834460   4.982   3.292   7.009 -0.2883 -0.9644 -0.2758
   62MOL   C17934461   4.978   3.367   6.891  0.6940 -0.2150 -0.0598
   62MOL   C18034462   5.098   3.411   6.826  0.0007 -0.9614  0.3481
   62MOL   N18134463   5.083   3.490   6.699 -0.0761 -0.3010 -0.1809
   62MOL   C18234464   5.220   3.373   6.885  0.1054  0.0278  0.5532
   62MOL   C18334465   5.221   3.313   7.006 -0.2488  0.8376 -0.7505
   62MOL   O18434466   4.894   3.210   7.290 -0.8619 -0.2912  0.4372
   62MOL   C18534467   5.034   3.157   7.533 -0.0445  0.1403 -0.1282
   62MOL   C18634468   5.091   3.102   7.651  0.2757  0.4386 -0.5668
   62MOL   O18734469   5.297   2.837   7.770 -0.1249  0.2841  0.2193
   62MOL   H18834470   5.336   2.916   7.506  0.4030  1.2164  0.4444
   62MOL   H18934471   5.222   3.008   7.304  2.4215  0.6338  0.8038
   62MOL   H19034472   5.197   3.169   7.230 -1.5579 -1.5249  1.0697
   62MOL   H19134473   4.887   3.265   7.054  1.0168 -2.3642  1.7489
   62MOL   H19234474   4.886   3.392   6.839  0.8244 -0.8993 -0.6359
   62MOL   H19334475   4.986   3.501   6.674 -0.1322 -2.6148 -1.1345
   62MOL   H19434476   5.317   3.388   6.840 -0.4267 -1.4689 -1.1591
   62MOL   H19534477   5.318   3.287   7.047 -0.5413  0.9054  0.0007
   62MOL   H19634478   4.956   3.231   7.538  0.9888  1.2962 -0.6171
   62MOL   H19734479   5.050   3.129   7.747 -0.0633  1.3643 -0.9555
   62MOL   C19834480   5.181   3.555   6.633 -0.1563 -0.4612  0.5194
   62MOL   C19934481   5.145   3.605   6.494 -0.4485  0.4971 -0.3151
   62MOL   C20034482   5.234   3.689   6.419  0.4689 -0.2826 -0.3469
   62MOL   C20134483   5.194   3.738   6.295  0.0757  0.0109 -0.3686
   62MOL   C20234484   5.068   3.716   6.249  0.3283  0.3317 -0.8705
   62MOL   C20334485   5.019   3.781   6.123 -0.3296 -0.1195 -0.5209
   62MOL   N20434486   5.108   3.788   6.024 -0.3526  0.1549  0.2101
   62MOL   C20534487   5.080   3.827   5.889 -0.2460 -0.1920  0.3226
   62MOL   C20634488   4.988   3.921   5.847  0.6552  0.7217 -0.4591
   62MOL   C20734489   4.970   3.948   5.709 -0.0289 -0.3888 -0.5443
   62MOL   C20834490   5.039   3.868   5.613 -0.3332 -0.1208 -0.2183
   62MOL   N20934491   5.018   3.885   5.474  0.2104  0.5799  0.2149
   62MOL   C21034492   5.142   3.778   5.659  0.2547  0.2829 -0.0114
   62MOL   C21134493   5.156   3.760   5.794 -0.4812 -0.6942 -0.8340
   62MOL   O21234494   4.905   3.818   6.117 -0.2209 -0.7914 -0.6475
   62MOL   C21334495   4.981   3.632   6.315  0.2611 -0.2725  0.1924
   62MOL   C21434496   5.025   3.567   6.435 -0.2234 -0.2872  0.4404
   62MOL   O21534497   5.288   3.581   6.686 -0.0979  0.2167  0.9197
   62MOL   H21634498   5.334   3.706   6.457  0.4131 -1.9047  0.5671
   62MOL   H21734499   5.258   3.807   6.241 -0.1864  0.6223  0.0950
   62MOL   H21834500   5.186   3.725   6.033 -0.5118  0.1275  1.3993
   62MOL   H21934501   4.930   3.964   5.927 -1.4553  0.8301 -2.0148
   62MOL   H22034502   4.908   4.032   5.684  1.5049  0.3256 -2.0591
   62MOL   H22134503   4.920   3.900   5.455  0.0321  0.1077  0.7377
   62MOL   H22234504   5.199   3.718   5.589 -0.5733 -0.3854 -0.1195
   62MOL   H22334505   5.220   3.681   5.830 -1.2881 -0.5587  1.0014
   62MOL   H22434506   4.887   3.607   6.268  0.3626  0.2255 -0.2817
   62MOL   H22534507   4.956   3.499   6.483 -0.2770  0.3222  1.2404
   62MOL   C22634508   5.095   3.864   5.363 -0.5226  0.5575 -0.0457
   62MOL   C22734509   5.024   3.888   5.236 -0.0883  0.2622  0.0595
   62MOL   C22834510   4.893   3.928   5.219 -0.0333 -0.2701  0.4098
   62MOL   C22934511   4.846   3.950   5.092 -0.2324  0.5525  0.4975
   62MOL   C23034512   4.922   3.918   4.978 -0.1628 -0.1973 -0.6034
   62MOL   C23134513   4.856   3.927   4.839 -0.1707 -0.9750 -0.3895
   62MOL   N23234514   4.934   3.875   4.742 -0.0343 -0.0910  0.5782
   62MOL   C23334515   4.886   3.844   4.613  0.5526  0.3570 -0.7302
   62MOL   C23434516   4.866   3.935   4.511  0.1435  0.5997  0.2510
   62MOL   C23534517   4.828   3.896   4.383 -0.7540  0.6436  0.5422
   62MOL   C23634518   4.799   3.760   4.356  0.1802  0.3593 -1.1594
   62MOL   N23734519   4.727   3.737   4.235 -0.5378 -0.0145  0.0302
   62MOL   C23834520   4.819   3.659   4.456  0.5964  0.3180  0.6488
   62MOL   C23934521   4.863   3.703   4.583 -0.3687  0.3811 -0.6380
   62MOL   O24034522   4.743   3.977   4.826 -0.5066  0.6280 -0.9375
   62MOL   C24134523   5.045   3.862   4.994  0.4260  0.4151 -0.0013
   62MOL   C24234524   5.101   3.855   5.122 -0.1984 -0.7064 -0.4565
   62MOL   O24334525   5.211   3.832   5.368 -0.6903  0.4030 -0.0383
   62MOL   H24434526   4.832   3.948   5.305 -0.3932 -3.0688  0.8426
   62MOL   H24534527   4.743   3.980   5.073 -0.4149 -1.1514 -1.4040
   62MOL   H24634528   5.019   3.833   4.778 -0.0199  0.1810  0.8735
   62MOL   H24734529   4.875   4.040   4.535 -3.6894  0.6957  1.6098
   62MOL   H24834530   4.805   3.974   4.312  0.7264 -2.0690 -3.0981
   62MOL   H24934531   4.783   3.730   4.151 -0.0524  1.2769  0.2407
   62MOL   H25034532   4.794   3.555   4.440  0.9941 -0.1354  2.8420
   62MOL   H25134533   4.871   3.634   4.666 -0.0458  0.8611 -0.2659
   62MOL   H25234534   5.109   3.818   4.919 -2.6817 -2.7339 -0.9416
   62MOL   H25334535   5.199   3.809   5.122  0.3162  0.3721 -0.3524
   62MOL   C25434536   4.603   3.685   4.226  0.4967 -0.0604  0.3578
   62MOL   C25534537   4.524   3.688   4.357  0.0924 -0.2467 -0.0325
   62MOL   C25634538   4.455   3.576   4.393  0.4873  0.3471  0.0714
   62MOL   C25734539   4.418   3.552   4.527  0.2934  0.3267 -0.0707
   62MOL   C25834540   4.429   3.653   4.626  1.2731  0.2219 -0.2690
   62MOL   C25934541   4.392   3.630   4.768  0.3302  0.4268  0.2753
   62MOL   N26034542   4.501   3.647   4.848  0.0888  0.0677 -0.5051
   62MOL   C26134543   4.502   3.636   4.988 -0.5714 -0.4886  0.7057
   62MOL   C26234544   4.621   3.688   5.045  0.0367 -0.5344 -0.0036
   62MOL   C26334545   4.646   3.678   5.178 -0.2382 -0.3067 -0.6919
   62MOL   C26434546   4.555   3.609   5.265 -0.3632 -0.0842 -0.0305
   62MOL   N26534547   4.576   3.599   5.400 -0.4203 -0.5041  0.1100
   62MOL   C26634548   4.434   3.559   5.207 -0.1745 -0.1272  0.2899
   62MOL   C26734549   4.403   3.578   5.073 -0.1163  0.0959  0.2377
   62MOL   O26834550   4.283   3.594   4.808  0.4600  0.1291 -0.3347
   62MOL   C26934551   4.470   3.779   4.581  0.1887 -0.0183  0.3501
   62MOL   C27034552   4.517   3.796   4.445  0.2223 -0.3734  0.1840
   62MOL   O27134553   4.562   3.614   4.130  0.4445  0.2307  0.9086
   62MOL   H27234554   4.430   3.490   4.334  0.0136 -0.4621  1.4231
   62MOL   H27334555   4.375   3.456   4.551 -0.5400  0.6920 -0.0655
   62MOL   H27434556   4.583   3.688   4.806 -0.0372  1.2667  0.3819
   62MOL   H27534557   4.693   3.735   4.980  0.0144 -1.8084 -0.9751
   62MOL   H27634558   4.744   3.713   5.206 -0.6263 -1.3372  2.0446
   62MOL   H27734559   4.510   3.540   5.448 -0.4113  0.2897  1.1158
   62MOL   H27834560   4.366   3.511   5.275  0.7281 -0.6851  0.8051
   62MOL   H27934561   4.316   3.529   5.034 -1.6328  1.2843  2.0504
   62MOL   H28034562   4.474   3.862   4.650  2.0655  0.2762 -0.0846
   62MOL   H28134563   4.568   3.886   4.414 -0.8388 -0.7755 -2.9473
   62MOL   C28234564   4.664   3.658   5.485 -0.0874 -0.0117 -0.1503
   62MOL   C28334565   4.653   3.616   5.630 -0.6571 -0.2115  0.5635
   62MOL   C28434566   4.544   3.539   5.673 -0.8417 -0.3192  0.3912
   62MOL   C28534567   4.545   3.489   5.805  0.2557 -0.2635 -0.3523
   62MOL   C28634568   4.650   3.517   5.890  0.1147 -0.6573  0.1100
   62MOL   C28734569   4.642   3.476   6.033  0.4849  0.1239  0.1048
   62MOL   N28834570   4.754   3.418   6.085 -0.1100 -0.2117  0.7286
   62MOL   C28934571   4.782   3.368   6.214  0.1933 -0.4467 -0.2137
   62MOL   C29034572   4.902   3.306   6.246  0.0230 -0.0496  0.2398
   62MOL   C29134573   4.924   3.253   6.372 -1.0271 -0.4379  0.2262
   62MOL   C29234574   4.818   3.245   6.459 -0.2601 -1.0361  0.0715
   62MOL   N29334575   4.833   3.167   6.575  0.0664 -0.0993 -0.6273
   62MOL   C29434576   4.698   3.304   6.434  0.0860 -0.1896 -0.4298
   62MOL   C29534577   4.681   3.363   6.312 -0.2799  0.0268  0.1773
   62MOL   O29634578   4.535   3.486   6.091 -0.4929 -0.3316 -0.2123
   62MOL   C29734579   4.761   3.593   5.847 -0.7234  0.3612  0.6831
   62MOL   C29834580   4.759   3.654   5.717  0.0510 -0.0144  0.4726
   62MOL   O29934581   4.745   3.749   5.451 -0.1087  0.0664  0.0094
   62MOL   H30034582   4.459   3.522   5.608  0.0541 -0.3056 -0.7948
   62MOL   H30134583   4.468   3.425   5.846  0.8228 -0.8223 -0.1474
   62MOL   H30234584   4.840   3.420   6.032  0.1403  3.1689  1.1727
   62MOL   H30334585   4.975   3.310   6.167  0.2148 -1.3945  0.3408
   62MOL   H30434586   5.018   3.200   6.383 -1.0241 -1.1314 -2.6511
   62MOL   H30534587   4.849   3.213   6.663 -2.8352  0.5527 -0.3826
   62MOL   H30634588   4.614   3.309   6.501 -1.7697  1.5728 -2.7945
   62MOL   H30734589   4.595   3.425   6.296 -0.5543 -0.2650  0.5253
   62MOL   H30834590   4.836   3.613   5.922 -0.3735 -0.0356  0.4404
   62MOL   H30934591   4.829   3.731   5.689  0.1219 -1.4378 -3.7081
   62MOL   C31034592   4.837   3.034   6.573 -0.6791  0.0185  0.5934
   62MOL   C31134593   4.838   2.964   6.435  0.1153  0.0808 -0.2638
   62MOL   C31234594   4.941   2.879   6.399  0.0393  0.3563 -0.0676
   62MOL   C31334595   4.934   2.811   6.276 -0.0587 -0.0852  0.3903
   62MOL   C31434596   4.823   2.826   6.188  0.3204  0.4765  0.0733
   62MOL   C31534597   4.834   2.783   6.041 -0.4465 -0.6857 -0.2795
   62MOL   N31634598   4.945   2.832   5.988 -0.0640  0.8763  0.1998
   62MOL   C31734599   4.969   2.873   5.852  0.1507  0.0828 -0.3405
   62MOL   C31834600   5.091   2.939   5.819 -0.4344 -0.0281  0.2892
   62MOL   C31934601   5.126   2.978   5.683  0.2855  0.9866 -0.1332
   62MOL   C32034602   5.044   2.938   5.571  0.5904 -0.6350  0.1344
   62MOL   N32134603   5.067   2.956   5.431  0.0331  0.4180  0.8608
   62MOL   C32234604   4.918   2.878   5.609 -0.1210  0.8401 -0.4318
   62MOL   C32334605   4.882   2.845   5.745  0.1152  0.1696  0.2846
   62MOL   O32434606   4.739   2.745   5.981 -0.3309  0.0866 -0.4118
   62MOL   C32534607   4.716   2.903   6.234  0.3677 -0.4209  0.4168
   62MOL   C32634608   4.725   2.965   6.353  0.4216 -0.2262 -0.2378
   62MOL   O32734609   4.864   2.969   6.672 -0.1690 -0.0310 -0.1215
   62MOL   H32834610   5.036   2.874   6.451  0.0521  0.1223 -0.1114
   62MOL   H32934611   5.025   2.757   6.257  0.8045  1.0258  1.2776
   62MOL   H33034612   5.016   2.855   6.056 -0.1037  1.1283  0.1545
   62MOL   H33134613   5.148   2.972   5.905 -1.7274  0.4182  0.9817
   62MOL   H33234614   5.213   3.040   5.666  0.4100  0.6091 -0.8607
   62MOL   H33334615   4.981   2.953   5.377 -0.0961  0.8561  1.0368
   62MOL   H33434616   4.853   2.852   5.527 -0.4235 -1.7872  0.5947
   62MOL   H33534617   4.789   2.791   5.749  1.2103 -1.8538 -0.7638
   62MOL   H33634618   4.621   2.922   6.188 -1.4354 -0.9680  3.7507
   62MOL   H33734619   4.638   3.025   6.374  1.2469  1.2033 -0.7513
   62MOL   C33834620   5.186   2.984   5.371  0.8102  0.3474 -0.3786
   62MOL   C33934621   5.182   3.006   5.226  0.3730  0.4204  0.1809
   62MOL   C34034622   5.298   2.995   5.151  0.7228 -0.1043  0.4049
   62MOL   C34134623   5.299   3.022   5.009  0.1979 -0.4939 -0.8451
   62MOL   C34234624   5.184   3.051   4.939 -0.6132 -0.1941  0.3485
   62MOL   C34334625   5.183   3.074   4.792 -1.1623 -0.1954  0.5480
   62MOL   N34434626   5.096   3.006   4.726  0.2165  0.4488  0.1335
   62MOL   C34534627   5.066   3.012   4.592 -0.3222 -0.0032 -0.2013
   62MOL   C34634628   4.931   3.034   4.551  0.0334 -0.1832  0.3529
   62MOL   C34734629   4.912   3.037   4.409  0.5495  0.2794  0.0030
   62MOL   C34834630   5.018   3.006   4.322  1.0703  0.0062  0.4328
   62MOL   N34934631   4.992   3.023   4.180 -0.7875 -0.3524 -0.0970
   62MOL   C35034632   5.147   2.963   4.367  0.6375  0.3008  0.1467
   62MOL   C35134633   5.166   2.971   4.503 -0.0996 -0.9511 -0.5161
   62MOL   O35234634   5.273   3.138   4.742 -0.5960  0.7153  0.2480
   62MOL   C35334635   5.072   3.075   5.013  0.2970  0.0814 -0.4411
   62MOL   C35434636   5.064   3.053   5.154  0.3439 -0.6242  0.5500
   62MOL   O35534637   5.289   3.006   5.429  0.0162 -0.4073 -0.2225
   62MOL   H35634638   5.385   2.964   5.206 -0.2662 -3.4599  0.1803
   62MOL   H35734639   5.387   3.005   4.950  1.3306  1.8700  0.1186
   62MOL   H35834640   5.038   2.947   4.783 -1.9412  1.8713 -0.5117
   62MOL   H35934641   4.854   3.050   4.626  0.1317 -1.0180  0.6370
   62MOL   H36034642   4.819   3.051   4.356  0.7411 -2.0913 -1.0374
   62MOL   H36134643   4.899   3.043   4.148 -0.5428 -0.7118 -1.0770
   62MOL   H36234644   5.233   2.925   4.314 -0.9351 -4.3456  0.6709
   62MOL   H36334645   5.255   2.925   4.542  0.2944 -0.7153 -1.1247
   62MOL   H36434646   4.981   3.109   4.966  0.7549  1.2371 -0.5021
   62MOL   H36534647   4.969   3.054   5.205  0.7748  1.2465  1.3256
   62MOL   C36634648   5.083   3.029   4.083  0.5742 -0.1336 -0.4967
   62MOL   C36734649   5.064   3.138   3.979  0.0972  0.0313 -0.2710
   62MOL   C36834650   5.116   3.125   3.848  0.2079  0.5067  0.2285
   62MOL   C36934651   5.118   3.238   3.763  0.1657 -0.2157 -0.7016
   62MOL   C37034652   5.051   3.356   3.799 -0.6768 -0.1440 -0.3275
   62MOL   C37134653   5.046   3.459   3.695  0.7622  0.7507  0.4809
   62MOL   N37234654   5.120   3.571   3.720 -0.0015  0.2260  0.6517
   62MOL   C37334655   5.135   3.690   3.637  0.2670 -0.7757  0.2555
   62MOL   C37434656   5.237   3.783   3.664  0.3147  0.4971 -0.4244
   62MOL   C37534657   5.258   3.890   3.580  0.8389  0.2771 -0.0596
   62MOL   C37634658   5.168   3.914   3.475  0.4330  0.1469 -0.3912
   62MOL   N37734659   5.187   4.027   3.391  0.1971  0.3301 -0.0714
   62MOL   C37834660   5.066   3.821   3.445  0.7597 -0.7859 -1.4981
   62MOL   C37934661   5.046   3.712   3.529 -0.1026 -0.0632 -0.5578
   62MOL   O38034662   4.980   3.433   3.593  1.0800  0.3110  0.1002
   62MOL   C38134663   4.996   3.374   3.924  1.1623  0.7255  0.8274
   62MOL   C38234664   5.007   3.262   4.013  0.0785  0.4624  0.1742
   62MOL   O38334665   5.172   2.948   4.060 -0.2734  0.8016 -0.1342
   62MOL   H38434666   5.175   3.038   3.823 -0.2017  0.7360 -1.5749
   62MOL   H38534667   5.158   3.227   3.663  0.3798  1.0726 -0.7689
   62MOL   H38634668   5.165   3.572   3.810 -0.8406 -0.3362  1.0925
   62MOL   H38734669   5.293   3.778   3.756 -2.3424 -2.2523  1.1432
   62MOL   H38834670   5.333   3.958   3.619  0.9630 -0.6982  1.4669
   62MOL   H38934671   5.124   4.043   3.314  1.5603 -0.6856 -1.4435
   62MOL   H39034672   4.994   3.840   3.367  0.6669  1.5473 -0.8629
   62MOL   H39134673   4.960   3.649   3.510 -0.7754  0.5034  0.5759
   62MOL   H39234674   4.940   3.460   3.957  0.7580  1.3666 -1.4175
   62MOL   H39334675   4.962   3.267   4.111 -1.7153 -4.7998 -0.2272
   62MOL   C39434676   5.275   4.129   3.399 -0.7229 -0.8553  0.2130
   62MOL   C39534677   5.230   4.259   3.328  0.2103 -0.8367  0.1573
   62MOL   C39634678   5.310   4.373   3.314  0.2295 -0.0626 -0.2253
   62MOL   C39734679   5.266   4.487   3.250 -0.0783  0.3023  0.0729
   62MOL   C39834680   5.139   4.488   3.190 -0.0848  0.7763 -0.2788
   62MOL   C39934681   5.088   4.609   3.126 -0.0905  0.1231 -0.4064
   62MOL   N40034682   4.976   4.594   3.053 -0.1095  0.3960  0.4515
   62MOL   C40134683   4.885   4.687   2.995 -0.7237  0.2950  0.2427
   62MOL   C40234684   4.747   4.652   2.996  0.4146 -0.6595  0.1863
   62MOL   C40334685   4.653   4.736   2.946 -0.5943 -0.4910  0.3330
   62MOL   C40434686   4.691   4.861   2.897 -0.1633  0.4589  0.3515
   62MOL   N40534687   4.586   4.953   2.869 -0.4049  0.0972 -0.7252
   62MOL   C40634688   4.828   4.894   2.882  0.2591  0.0559 -0.1901
   62MOL   C40734689   4.924   4.812   2.937  0.4349 -0.3785  0.5183
   62MOL   O40834690   5.154   4.714   3.131 -0.7004  0.0848  0.5613
   62MOL   C40934691   5.047   4.381   3.213  0.4604 -0.3925  0.2180
   62MOL   C41034692   5.098   4.267   3.273  0.8984  0.1458 -1.1732
   62MOL   O41134693   5.387   4.132   3.449  0.6283  0.0478 -0.3151
   62MOL   H41234694   5.410   4.377   3.354 -0.6461  0.0259  2.0818
   62MOL   H41334695   5.332   4.571   3.237  0.3674 -0.0653 -0.0867
   62MOL   H41434696   4.938   4.500   3.060  0.3002  0.2027  0.0881
   62MOL   H41534697   4.717   4.567   3.056 -1.8774  1.0669  1.5602
   62MOL   H41634698   4.549   4.715   2.966 -0.4947  1.2277  2.9216
   62MOL   H41734699   4.496   4.922   2.904  1.0247 -0.8165  2.2525
   62MOL   H41834700   4.853   4.992   2.842  0.3297  0.9066  1.8761
   62MOL   H41934701   5.030   4.832   2.938  0.2013  0.8249  1.8290
   62MOL   H42034702   4.947   4.390   3.175  1.3581  0.3973 -2.0081
   62MOL   H42134703   5.031   4.183   3.278 -0.2805  1.1731  1.0526
   62MOL   C42234704   4.575   5.058   2.785  0.2434 -0.2398 -0.3496
   62MOL   C42334705   4.434   5.112   2.762  0.1019 -0.1573 -0.0727
   62MOL   C42434706   4.411   5.247   2.723 -1.1795 -0.1190 -0.1995
   62MOL   C42534707   4.283   5.287   2.689 -0.6903  0.0235 -0.1398
   62MOL   C42634708   4.176   5.197   2.697 -0.3947  0.3932  0.9155
   62MOL   C42734709   4.037   5.250   2.661  0.7084  0.0214 -0.1341
   62MOL   N42834710   4.010   5.377   2.695 -0.2918 -0.1648 -0.0067
   62MOL   C42934711   3.893   5.445   2.663 -0.3366  1.0999  0.0270
   62MOL   C43034712   3.827   5.419   2.544 -0.5877  0.7677 -0.0281
   62MOL   C43134713   3.714   5.494   2.505  0.6212  0.3851 -0.0639
   62MOL   C43234714   3.666   5.603   2.581  0.1564 -0.3207 -1.0194
   62MOL   N43334715   3.549   5.673   2.537  0.2169 -0.1180  0.2749
   62MOL   C43434716   3.734   5.630   2.706 -0.7684  0.1344  0.0149
   62MOL   C43534717   3.844   5.549   2.746 -0.3969  0.2695 -0.3834
   62MOL   O43634718   3.954   5.175   2.616  0.5799  0.3970  0.2428
   62MOL   C43734719   4.198   5.063   2.735  0.3774  1.1954 -0.0128
   62MOL   C43834720   4.329   5.025   2.764 -0.2828  0.4050  0.5619
   62MOL   O43934721   4.674   5.121   2.741  0.0568 -0.2900  0.3279
   62MOL   H44034722   4.498   5.310   2.734  0.2801 -2.2633  0.8240
   62MOL   H44134723   4.267   5.391   2.663 -4.1823 -0.4366 -0.0237
   62MOL   H44234724   4.083   5.424   2.746 -0.2283  0.0656 -0.3050
   62MOL   H44334725   3.864   5.353   2.468  2.6349  0.9688  1.3014
   62MOL   H44434726   3.670   5.481   2.407  1.5258  0.0540 -0.4352
   62MOL   H44534727   3.538   5.690   2.438  1.2619  0.4588  0.2532
   62MOL   H44634728   3.695   5.710   2.765  2.0561  1.2106  0.5165
   62MOL   H44734729   3.889   5.565   2.842 -1.8104  0.3280  0.2777
   62MOL   H44834730   4.112   5.000   2.752  1.0510  0.3305  0.2296
   62MOL   H44934731   4.346   4.926   2.805 -0.6842  2.4505  6.1054
   62MOL   C45034732   3.454   5.734   2.615 -0.0962  0.5968  0.1091
   62MOL   C45134733   3.357   5.824   2.545  0.4962  0.5113 -0.2491
   62MOL   C45234734   3.402   5.907   2.434  0.7562  0.5821  0.2459
   62MOL   C45334735   3.313   5.994   2.372  0.0390 -0.3282 -0.1751
   62MOL   C45434736   3.176   5.988   2.400  0.5010  0.7036 -0.0118
   62MOL   C45534737   3.079   6.069   2.314 -0.2690  0.5479  0.4910
   62MOL   N45634738   2.951   6.017   2.305 -0.1630  0.0092  0.3593
   62MOL   C45734739   2.863   6.050   2.198  0.2801  1.0513 -0.4768
   62MOL   C45834740   2.815   6.179   2.173 -0.1004  0.9566 -0.3993
   62MOL   C45934741   2.718   6.208   2.075  0.8292 -0.0600 -0.0592
   62MOL   C46034742   2.655   6.094   2.010 -0.4024  0.9443 -0.5023
   62MOL   N46134743   2.569   6.134   1.909  0.2191 -0.2921  0.2986
   62MOL   C46234744   2.699   5.960   2.036  0.7106 -0.4695 -0.0401
   62MOL   C46334745   2.799   5.943   2.133  0.3764 -0.8520 -0.1514
   62MOL   O46434746   3.124   6.156   2.236  0.2621  0.0179  0.0469
   62MOL   C46534747   3.133   5.909   2.505  0.8409 -0.7088  0.2327
   62MOL   C46634748   3.225   5.833   2.583 -0.0069  0.9138  0.3596
   62MOL   O46734749   3.424   5.697   2.727  0.3223 -0.0885 -0.5657
   62MOL   H46834750   3.502   5.897   2.394 -0.3946 -0.2131 -2.5024
   62MOL   H46934751   3.350   6.058   2.293 -0.1941  1.6309  1.2762
   62MOL   H47034752   2.935   5.937   2.364 -1.1331  0.4965  0.7569
   62MOL   H47134753   2.851   6.260   2.234  2.2709 -0.5909  0.3020
   62MOL   H47234754   2.677   6.306   2.052  0.5479  0.1907  1.4488
   62MOL   H47334755   2.557   6.235   1.909 -0.7676 -0.4079  0.2142
   62MOL   H47434756   2.660   5.883   1.970 -0.3444  2.3407 -2.8185
   62MOL   H47534757   2.828   5.839   2.138  3.4932 -0.1867 -2.8005
   62MOL   H47634758   3.027   5.916   2.527  1.0775 -0.6008  1.3498
   62MOL   H47734759   3.192   5.770   2.665 -0.5549  2.7098  1.5429
   62MOL   C47834760   2.507   6.059   1.815 -0.8279 -1.1260 -0.1733
   62MOL   C47934761   2.403   6.131   1.733 -0.6152 -0.7857 -1.0117
   62MOL   C48034762   2.378   6.101   1.599 -0.4454  0.2436 -0.1285
   62MOL   C48134763   2.278   6.167   1.522 -0.4158  0.3241  0.3920
   62MOL   C48234764   2.191   6.251   1.586 -0.0416  0.2704 -0.4806
   62MOL   C48334765   2.069   6.301   1.506  0.3582 -0.1751 -0.2213
   62MOL   N48434766   1.975   6.365   1.581 -0.3836  0.2303 -0.0920
   62MOL   C48534767   1.851   6.411   1.541 -0.1423  0.3955 -0.3182
   62MOL   C48634768   1.815   6.446   1.409  0.4841 -0.2460 -0.1076
   62MOL   C48734769   1.693   6.511   1.379 -0.8983  0.3928 -0.0513
   62MOL   C48834770   1.602   6.541   1.486 -0.1648  0.1798  0.3369
   62MOL   N48934771   1.475   6.600   1.468 -0.0170 -0.2476 -0.3269
   62MOL   C49034772   1.643   6.513   1.620 -0.2230  1.1473 -0.5015
   62MOL   C49134773   1.765   6.447   1.646 -0.6051 -0.9350 -0.1187
   62MOL   O49234774   2.056   6.270   1.390 -0.3797  0.6631 -0.6001
   62MOL   C49334775   2.207   6.278   1.725 -0.6868  0.3314 -0.1559
   62MOL   C49434776   2.317   6.225   1.794  0.3900  0.2891  0.0649
   62MOL   O49534777   2.543   5.944   1.780 -0.2501  0.0437 -0.4421
   62MOL   H49634778   2.432   6.023   1.547 -0.7873 -0.7386  0.9575
   62MOL   H49734779   2.264   6.141   1.419  0.2770 -1.3171  0.6893
   62MOL   H49834780   1.992   6.379   1.679  0.2236  1.1805 -0.3261
   62MOL   H49934781   1.867   6.416   1.319  0.7903 -1.3326  0.4226
   62MOL   H50034782   1.673   6.519   1.274 -0.4198  0.8612 -0.1075
   62MOL   H50134783   1.479   6.675   1.401  0.7933  1.5309  1.6767
   62MOL   H50234784   1.577   6.546   1.699  1.8803 -1.7475  2.6381
   62MOL   H50334785   1.796   6.437   1.749 -2.3749 -1.6727  0.3639
   62MOL   H50434786   2.146   6.352   1.774 -0.4411  1.9318 -2.1730
   62MOL   H50534787   2.332   6.249   1.898  1.0215 -4.6339  1.2106
   62MOL   C50634788   1.351   6.562   1.511 -0.0449 -0.0125 -0.5622
   62MOL   C50734789   1.347   6.439   1.598 -0.5767  0.3790  0.5765
   62MOL   C50834790   1.276   6.437   1.719  0.6167 -0.1371 -0.0527
   62MOL   C50934791   1.260   6.317   1.787 -0.5140 -0.3975 -0.1384
   62MOL   C51034792   1.330   6.201   1.747  0.1874 -0.1130 -0.4310
   62MOL   C51134793   1.345   6.085   1.850 -0.2857  0.3530  0.3481
   62MOL   N51234794   1.475   6.046   1.851  0.3827  0.2032  0.0842
   62MOL   C51334795   1.541   5.974   1.960  0.2190  0.6693 -0.0020
   62MOL   C51434796   1.677   5.992   1.957 -0.5836 -0.1338 -0.1156
   62MOL   C51534797   1.755   5.952   2.064 -0.1805  1.2599  0.3207
   62MOL   C51634798   1.697   5.884   2.174  0.6428  0.1599  0.2760
   62MOL   N51734799   1.786   5.828   2.265 -0.1925  0.5336  0.1758
   62MOL   C51834800   1.558   5.860   2.181 -0.6437 -0.6423 -1.0644
   62MOL   C51934801   1.479   5.911   2.068 -0.3467  0.2515 -0.1350
   62MOL   O52034802   1.256   6.041   1.921  0.4705  0.5988 -0.2293
   62MOL   C52134803   1.398   6.197   1.628  0.3432 -0.3604  0.5268
   62MOL   C52234804   1.405   6.312   1.550  0.7099 -0.6493  0.5276
   62MOL   O52334805   1.251   6.632   1.484  0.1142  0.3127  0.7837
   62MOL   H52434806   1.225   6.525   1.754  0.3705 -0.1915 -0.2724
   62MOL   H52534807   1.211   6.303   1.883  0.4747 -2.2887  0.1092
   62MOL   H52634808   1.530   6.095   1.781  0.3018  4.0159  2.5667
   62MOL   H52734809   1.723   6.043   1.874  0.6353  1.3961  1.4474
   62MOL   H52834810   1.861   5.972   2.058  0.0849 -0.0902  0.2162
   62MOL   H52934811   1.785   5.728   2.281  1.2750  0.6491  1.1379
   62MOL   H53034812   1.517   5.810   2.268 -0.2797 -0.9308 -1.0564
   62MOL   H53134813   1.375   5.883   2.066 -0.7500  1.4688  2.2075
   62MOL   H53234814   1.447   6.109   1.590 -2.4161 -1.7752  0.1248
   62MOL   H53334815   1.460   6.315   1.457 -1.1824 -1.0316 -0.6347
   62MOL   C53434816   1.889   5.888   2.324 -0.0773  0.2342 -0.2769
   62MOL   C53534817   1.966   5.797   2.419 -0.2224  0.1097  0.5971
   62MOL   C53634818   2.100   5.833   2.452  0.2345  0.1872  0.1740
   62MOL   C53734819   2.180   5.751   2.531 -0.7170  0.0137 -0.4446
   62MOL   C53834820   2.120   5.649   2.607 -0.5659  0.6440 -0.2580
   62MOL   C53934821   2.195   5.564   2.707  0.5426 -0.2606  0.0715
   62MOL   N54034822   2.318   5.603   2.722  0.2794  0.5041 -0.5721
   62MOL   C54134823   2.411   5.567   2.823 -0.7216 -0.4696  0.5874
   62MOL   C54234824   2.539   5.627   2.804 -0.2879  0.8041  0.0739
   62MOL   C54334825   2.646   5.582   2.888 -0.1355  0.6686  0.1360
   62MOL   C54434826   2.626   5.489   2.990  0.0430  0.4786  0.0090
   62MOL   N54534827   2.738   5.432   3.065 -0.0714  0.2553  0.3679
   62MOL   C54634828   2.495   5.435   3.015  0.2419 -0.1358 -0.1560
   62MOL   C54734829   2.392   5.479   2.934 -0.4771 -0.3928  0.3963
   62MOL   O54834830   2.134   5.477   2.772 -0.3879  0.8330  0.2518
   62MOL   C54934831   1.985   5.612   2.577  0.2774 -0.4007  0.6057
   62MOL   C55034832   1.911   5.683   2.481  0.3908 -0.1720  0.1138
   62MOL   O55134833   1.905   6.007   2.314  0.0604 -0.4600 -0.2079
   62MOL   H55234834   2.144   5.923   2.410  2.4923 -1.3815 -0.9010
   62MOL   H55334835   2.285   5.772   2.544 -0.8038  1.3527 -1.7303
   62MOL   H55434836   2.338   5.683   2.663  2.1354 -0.3782 -1.1754
   62MOL   H55534837   2.563   5.689   2.720  1.8153 -1.4426 -1.0541
   62MOL   H55634838   2.745   5.624   2.875  0.6451 -0.0168  3.4585
   62MOL   H55734839   2.822   5.484   3.088 -1.1073  1.5533  1.3177
   62MOL   H55834840   2.463   5.362   3.088 -1.7768  1.0062  0.1454
   62MOL   H55934841   2.297   5.431   2.952 -1.4960  0.9355 -1.2577
   62MOL   H56034842   1.948   5.520   2.619  1.2909  0.1842  2.8296
   62MOL   H56134843   1.811   5.643   2.469  1.3227 -2.5087 -0.1663
   62MOL   H56234844   2.727   5.345   3.113 -4.4449  0.2960 -0.3973
   63MOL     C134845   3.407   1.461   2.737 -0.3956  0.6958 -0.2577
   63MOL     C234846   3.354   1.386   2.622  0.1724  0.3057  0.5016
   63MOL     C334847   3.334   1.250   2.635 -1.5735  0.3606 -0.3187
   63MOL     C434848   3.288   1.174   2.534 -0.0206 -0.0236  0.2260
   63MOL     C534849   3.259   1.232   2.411 -0.4524  0.8073 -0.2986
   63MOL     C634850   3.211   1.150   2.296 -0.1590  0.6907 -0.7551
   63MOL     N734851   3.150   1.032   2.318  0.5547  0.6231  0.1880
   63MOL     C834852   3.098   0.936   2.224  0.5696  0.5167  0.3285
   63MOL     C934853   3.097   0.804   2.261  0.7135 -0.1028  0.4811
   63MOL    C1034854   3.065   0.704   2.168 -0.2747 -0.7737  0.0093
   63MOL    C1134855   3.011   0.741   2.044 -0.0509 -0.6780 -0.5581
   63MOL    N1234856   2.980   0.644   1.946 -0.3664 -0.8922 -0.7413
   63MOL    C1334857   3.004   0.874   2.002 -0.3105  0.3868  0.1231
   63MOL    C1434858   3.051   0.974   2.093  0.0896 -0.1357  0.2646
   63MOL    O1534859   3.226   1.193   2.183  0.0499  0.2364  0.2359
   63MOL    C1634860   3.274   1.371   2.397 -0.4963  0.8422 -0.3218
   63MOL    C1734861   3.325   1.453   2.496 -0.2030 -0.8003  0.4620
   63MOL    O1834862   3.425   1.415   2.850 -0.5224  0.0039 -0.3886
   63MOL    H1934863   3.351   1.202   2.730 -1.3087  1.6955  0.3201
   63MOL    H2034864   3.259   1.070   2.543  0.3259 -0.3526 -2.1630
   63MOL    H2134865   3.169   0.995   2.410 -0.2955  2.2255  1.0469
   63MOL    H2234866   3.140   0.771   2.354  0.2241 -1.1676  0.3460
   63MOL    H2334867   3.070   0.599   2.196 -2.8680 -0.4721  1.8634
   63MOL    H2434868   2.956   0.679   1.855 -0.8432  0.3936 -0.1387
   63MOL    H2534869   2.967   0.901   1.904 -1.1136  0.6400  0.4893
   63MOL    H2634870   3.043   1.077   2.064 -2.9642  0.2998  2.4337
   63MOL    H2734871   3.257   1.406   2.296  1.5727  0.1132 -0.9379
   63MOL    H2834872   3.337   1.558   2.476  1.9666 -0.5845  2.4877
   63MOL    H2934873   3.433   1.559   2.698 -0.2038  0.4316 -0.7904
   63MOL    C3034874   2.978   0.508   1.947  0.3885 -0.1919  0.4259
   63MOL    C3134875   2.937   0.442   1.826  0.0351  0.2408  0.6118
   63MOL    C3234876   2.828   0.485   1.747  1.3567  0.6028 -0.7460
   63MOL    C3334877   2.809   0.421   1.628  0.5608  0.0976 -0.4636
   63MOL    C3434878   2.883   0.307   1.589 -0.3718  0.0916  0.6892
   63MOL    C3534879   2.857   0.243   1.452 -0.2929  0.3261  0.4550
   63MOL    N3634880   2.923   0.127   1.423 -0.5899  0.0141  0.3072
   63MOL    C3734881   2.917   0.048   1.309 -0.1345  0.4567  0.7546
   63MOL    C3834882   2.933   8.059   1.327  0.1750  0.4344 -0.1858
   63MOL    C3934883   2.911   7.969   1.219  0.8778  0.6145 -0.1907
   63MOL    C4034884   2.897   8.016   1.088 -0.8961  0.1574  0.5332
   63MOL    N4134885   2.864   7.925   0.985  0.3195 -0.3130 -0.0421
   63MOL    C4234886   2.889   0.011   1.074 -0.0896  0.2834  0.2250
   63MOL    C4334887   2.897   0.101   1.183 -0.2690  0.1332  0.4015
   63MOL    O4434888   2.782   0.301   1.369  0.2049  0.4018  0.5098
   63MOL    C4534889   2.984   0.257   1.676 -0.1941 -0.6436  0.2266
   63MOL    C4634890   3.009   0.327   1.794  0.1556 -0.3551  0.4236
   63MOL    O4734891   2.992   0.432   2.047  0.2705  0.0746 -0.1338
   63MOL    H4834892   2.776   0.572   1.784 -0.5247 -0.6186 -0.4843
   63MOL    H4934893   2.729   0.462   1.569 -3.3036 -2.8115  2.4531
   63MOL    H5034894   2.985   0.090   1.494  2.0255  2.0474 -0.8053
   63MOL    H5134895   2.945   8.016   1.425 -2.2892  3.6561  1.6307
   63MOL    H5234896   2.900   7.863   1.240  0.9375  0.9261  1.4573
   63MOL    H5334897   2.789   7.956   0.925 -0.0585 -3.0035 -1.0084
   63MOL    H5434898   2.869   0.057   0.979 -0.7684 -1.4269 -0.4713
   63MOL    H5534899   2.890   0.208   1.166 -1.2502 -0.0070 -0.1115
   63MOL    H5634900   3.037   0.166   1.654 -0.8664 -0.8017 -0.7845
   63MOL    H5734901   3.088   0.295   1.860  0.5318 -1.3053 -0.4755
   63MOL    C5834902   2.940   7.832   0.927 -0.0143 -0.5627 -0.1580
   63MOL    C5934903   2.883   7.758   0.811 -0.6594 -0.0255 -0.5175
   63MOL    C6034904   2.971   7.685   0.725 -0.0217 -0.1902  0.3217
   63MOL    C6134905   2.918   7.599   0.622  0.0205  0.4285 -0.1329
   63MOL    C6234906   2.782   7.560   0.623 -0.3953  0.0566  0.2088
   63MOL    C6334907   2.729   7.458   0.529 -0.1130 -0.3370  0.0159
   63MOL    N6434908   2.807   7.433   0.414 -0.5582 -0.2717  0.3658
   63MOL    C6534909   2.773   7.339   0.311 -0.2688  0.0564  0.1057
   63MOL    C6634910   2.829   7.348   0.184  0.0963  0.0955 -0.1438
   63MOL    C6734911   2.801   7.257   0.085 -0.2005 -0.6223 -0.4343
   63MOL    C6834912   2.732   7.137   0.122  0.2329  0.6742  0.6622
   63MOL    N6934913   2.714   7.034   0.026  0.6927 -0.0793 -0.6530
   63MOL    C7034914   2.692   7.116   0.259 -0.2082 -0.0463  0.3045
   63MOL    C7134915   2.713   7.222   0.353 -0.0129  0.2945  0.0024
   63MOL    O7234916   2.624   7.397   0.554  0.2097 -0.7214 -0.4850
   63MOL    C7334917   2.705   7.619   0.722 -0.9468  0.2449 -1.1452
   63MOL    C7434918   2.750   7.716   0.813  0.5012 -0.0558  0.5956
   63MOL    O7534919   3.054   7.812   0.965  0.2769 -0.7628  0.3687
   63MOL    H7634920   3.077   7.697   0.744  0.3643 -0.0439 -1.7591
   63MOL    H7734921   2.989   7.549   0.557  1.9847  1.3526  1.2352
   63MOL    H7834922   2.890   7.490   0.406 -0.2608 -0.6303  0.8392
   63MOL    H7934923   2.874   7.444   0.160 -0.4341 -0.1567 -2.2813
   63MOL    H8034924   2.840   7.263   8.130 -0.0943 -1.0072 -0.4200
   63MOL    H8134925   2.619   7.000   0.024  0.4214  0.4517  1.3471
   63MOL    H8234926   2.628   7.042   0.304 -2.3477  1.7756  0.3279
   63MOL    H8334927   2.698   7.209   0.459 -3.1902 -0.7769 -0.5041
   63MOL    H8434928   2.603   7.585   0.734  0.4155 -3.2541  1.4059
   63MOL    H8534929   2.672   7.752   0.879 -1.6238 -0.5984 -1.5455
   63MOL    C8634930   2.809   6.977   8.100  0.1645 -0.4890  0.6156
   63MOL    C8734931   2.761   6.850   8.038  0.5759  0.2874  0.2929
   63MOL    C8834932   2.787   6.830   7.900  0.1653  0.6462 -0.2488
   63MOL    C8934933   2.731   6.709   7.835 -0.1695 -0.2665 -0.0215
   63MOL    C9034934   2.656   6.623   7.908  0.0089 -0.9998  0.1709
   63MOL    C9134935   2.607   6.502   7.839  0.0605  0.2438 -0.3840
   63MOL    N9234936   2.693   6.433   7.760 -0.5790 -0.0874 -0.4604
   63MOL    C9334937   2.666   6.317   7.686  0.4042 -0.6542 -0.0425
   63MOL    C9434938   2.561   6.308   7.595  0.5058 -0.2724 -0.3854
   63MOL    C9534939   2.545   6.194   7.517  0.1117 -0.2892 -0.8894
   63MOL    C9634940   2.640   6.094   7.521 -0.2113  0.3422 -0.7606
   63MOL    N9734941   2.623   5.984   7.434  0.0912  0.0734 -0.1175
   63MOL    C9834942   2.752   6.111   7.609  0.1424 -0.6603 -0.5997
   63MOL    C9934943   2.766   6.221   7.693 -0.3291  0.4356  0.5285
   63MOL   O10034944   2.484   6.478   7.856  0.4103  0.2810  0.2095
   63MOL   C10134945   2.638   6.637   8.048 -0.4535  0.9647 -0.3345
   63MOL   C10234946   2.688   6.754   8.114  0.3312 -0.3423  0.0991
   63MOL   O10334947   2.915   7.023   8.060 -0.0299  0.1516  0.4857
   63MOL   H10434948   2.852   6.896   7.846  0.1164  1.7149  0.9894
   63MOL   H10534949   2.755   6.696   7.730  0.9827  1.0635  0.0732
   63MOL   H10634950   2.779   6.483   7.748 -0.8524  0.4320 -0.2594
   63MOL   H10734951   2.494   6.392   7.585  2.7915  1.7368  0.6944
   63MOL   H10834952   2.456   6.177   7.458  0.7242  0.0102 -1.9202
   63MOL   H10934953   2.551   6.008   7.366 -0.3387 -1.4248 -0.1976
   63MOL   H11034954   2.818   6.030   7.633  2.3335  1.3955  0.5381
   63MOL   H11134955   2.841   6.215   7.770  0.5986  0.7853 -0.3397
   63MOL   H11234956   2.585   6.561   8.104  0.8993  0.8095  0.7653
   63MOL   H11334957   2.673   6.768   0.074  2.1545  1.9818  0.0960
   63MOL   C11434958   2.725   5.924   7.373  0.0960 -0.1226 -0.1059
   63MOL   C11534959   2.727   5.950   7.219  0.1070  0.4097  0.0040
   63MOL   C11634960   2.801   5.860   7.131  0.0491 -0.0283 -0.0176
   63MOL   C11734961   2.811   5.877   6.987 -0.1555  0.3765  0.6726
   63MOL   C11834962   2.742   5.987   6.933  0.2168 -0.5021 -0.1709
   63MOL   C11934963   2.754   6.021   6.788  0.1225  0.4150  0.0458
   63MOL   N12034964   2.712   6.140   6.745  0.2921  0.2094 -0.5586
   63MOL   C12134965   2.692   6.179   6.609  1.1145 -0.6635  0.2257
   63MOL   C12234966   2.759   6.294   6.568  0.1663  0.2479  0.2975
   63MOL   C12334967   2.762   6.330   6.437  0.6742  0.7824  0.2614
   63MOL   C12434968   2.690   6.249   6.343 -0.4737 -0.0750  0.5295
   63MOL   N12534969   2.706   6.258   6.196 -0.0284 -0.1138  0.3618
   63MOL   C12634970   2.603   6.148   6.387 -0.4346  0.6660 -0.1463
   63MOL   C12734971   2.603   6.114   6.526  0.1818  0.2983 -0.0628
   63MOL   O12834972   2.803   5.934   6.717 -0.1007 -0.5726  0.2703
   63MOL   C12934973   2.656   6.064   7.014  0.1445 -0.4985  0.3884
   63MOL   C13034974   2.655   6.052   7.157  0.2677 -0.4184  0.0072
   63MOL   O13134975   2.802   5.842   7.423  0.0432 -0.1308 -0.2729
   63MOL   H13234976   2.849   5.777   7.181 -0.9336  0.0366  1.0578
   63MOL   H13334977   2.856   5.807   6.919 -1.3435  1.6808 -1.5330
   63MOL   H13434978   2.696   6.213   6.813 -1.2658 -0.6992  0.0576
   63MOL   H13534979   2.811   6.353   6.642  1.2654  1.1225 -1.1349
   63MOL   H13634980   2.825   6.415   6.413 -0.3165  1.5443  0.3350
   63MOL   H13734981   2.642   6.199   6.144 -0.7279  1.6069 -0.8143
   63MOL   H13834982   2.535   6.104   6.316 -0.3329 -1.1230  0.8245
   63MOL   H13934983   2.539   6.034   6.562 -2.8409  3.4239  1.7690
   63MOL   H14034984   2.586   6.135   6.971  1.9325  2.4001  2.0873
   63MOL   H14134985   2.592   6.117   7.216  1.5806  0.5605  0.3648
   63MOL   C14234986   2.786   6.339   6.121 -0.3382 -0.3086  0.4328
   63MOL   C14334987   2.759   6.347   5.974 -0.1676  0.2506 -0.1260
   63MOL   C14434988   2.865   6.351   5.884 -0.9620 -0.2665 -0.6227
   63MOL   C14534989   2.839   6.362   5.747 -0.5354  0.6810 -0.0408
   63MOL   C14634990   2.706   6.363   5.698  0.4410  0.9163 -0.4810
   63MOL   C14734991   2.687   6.401   5.560  0.1754  0.0497  0.1801
   63MOL   N14834992   2.594   6.340   5.489  0.0252 -0.0400 -0.3015
   63MOL   C14934993   2.545   6.375   5.360 -0.5365  0.0164  0.5705
   63MOL   C15034994   2.468   6.280   5.290  0.7283  0.5817 -0.4665
   63MOL   C15134995   2.431   6.302   5.156  0.4140  0.3671 -0.3542
   63MOL   C15234996   2.458   6.423   5.089 -0.2713  0.1049  0.4726
   63MOL   N15334997   2.397   6.443   4.961  0.1387 -0.5855  0.7111
   63MOL   C15434998   2.525   6.523   5.162  0.4369 -0.1720 -0.4713
   63MOL   C15534999   2.573   6.497   5.294  0.0798  0.3119 -0.1291
   63MOL   O15635000   2.767   6.479   5.513  0.0274  0.1303  0.5388
   63MOL   C15735001   2.596   6.347   5.787  0.5463 -0.1019 -0.5449
   63MOL   C15835002   2.628   6.338   5.928 -0.5491 -0.3779  0.0852
   63MOL   O15935003   2.878   6.405   6.163  0.1619  0.1408  0.4388
   63MOL   H16035004   2.964   6.359   5.926 -1.2357 -0.4534  0.0680
   63MOL   H16135005   2.925   6.386   5.685 -0.6326  1.1394  0.0035
   63MOL   H16235006   2.542   6.268   5.538  0.2534  0.2646  0.3958
   63MOL   H16335007   2.426   6.189   5.331  0.4792  0.8983 -0.0135
   63MOL   H16435008   2.375   6.224   5.105  1.8613  0.2633 -1.8280
   63MOL   H16535009   2.414   6.376   4.888 -2.0311 -0.1902 -0.1894
   63MOL   H16635010   2.545   6.622   5.124  0.2250  0.2939  0.6158
   63MOL   H16735011   2.627   6.576   5.343 -1.6637  0.4929  1.5671
   63MOL   H16835012   2.493   6.341   5.756 -0.4957 -1.9771  3.0455
   63MOL   H16935013   2.552   6.329   6.004  1.1420  0.0609  1.8670
   63MOL   C17035014   2.301   6.539   4.932  0.0253 -0.1874 -0.5462
   63MOL   C17135015   2.219   6.531   4.802  0.1638  0.0903  0.0823
   63MOL   C17235016   2.175   6.405   4.753 -0.0907  0.7258  1.4434
   63MOL   C17335017   2.104   6.395   4.628  0.0856 -0.4259 -0.8272
   63MOL   C17435018   2.080   6.512   4.556  0.5517  0.0186  0.3715
   63MOL   C17535019   1.989   6.506   4.436  0.1670 -0.0241  0.4978
   63MOL   N17635020   1.883   6.583   4.444  0.5091 -0.0017  0.1636
   63MOL   C17735021   1.800   6.631   4.336 -0.3129  0.2115 -0.1051
   63MOL   C17835022   1.736   6.753   4.354 -0.6764  0.3139 -0.2054
   63MOL   C17935023   1.649   6.804   4.253 -0.3510 -0.1016 -0.2143
   63MOL   C18035024   1.626   6.729   4.140  0.4572 -0.2479  0.5106
   63MOL   N18135025   1.531   6.771   4.054  0.5028 -0.5746  0.5368
   63MOL   C18235026   1.691   6.608   4.117 -0.3714 -0.3019  0.0169
   63MOL   C18335027   1.772   6.552   4.220  0.1070  0.0188  0.2956
   63MOL   O18435028   2.022   6.430   4.346 -0.1609 -0.5036  0.7453
   63MOL   C18535029   2.125   6.637   4.604 -0.2154 -0.1003 -0.3412
   63MOL   C18635030   2.201   6.644   4.724 -0.6604  0.1999  0.6803
   63MOL   O18735031   2.276   6.622   5.023  0.1162  0.4969 -0.3106
   63MOL   H18835032   2.193   6.312   4.805  0.5480  1.2664  2.1936
   63MOL   H18935033   2.065   6.302   4.591  1.5048 -1.1116 -0.6244
   63MOL   H19035034   1.877   6.636   4.530 -0.1551 -0.1875  0.2325
   63MOL   H19135035   1.738   6.814   4.443  0.9800 -0.9359  0.6467
   63MOL   H19235036   1.595   6.895   4.272 -0.2335 -0.0192 -0.2737
   63MOL   H19335037   1.462   6.701   4.032  1.9337 -1.4991 -1.0803
   63MOL   H19435038   1.662   6.548   4.032  0.1111  0.5778 -0.7724
   63MOL   H19535039   1.827   6.461   4.202  2.4555  1.9790 -2.9499
   63MOL   H19635040   2.122   6.734   4.558  0.4661  0.0005 -0.1806
   63MOL   H19735041   2.246   6.736   4.759 -2.1556  0.4471  2.0095
   63MOL   C19835042   1.526   6.881   3.975  0.0141 -0.2668  0.2160
   63MOL   C19935043   1.631   6.992   3.975  0.4478 -0.5311 -0.1319
   63MOL   C20035044   1.769   6.972   4.000 -0.1069 -0.1688 -0.2232
   63MOL   C20135045   1.856   7.079   4.011 -0.3821 -0.2894  0.2309
   63MOL   C20235046   1.814   7.208   3.978 -1.2507 -1.4434 -0.3119
   63MOL   C20335047   1.906   7.328   3.993 -0.0802  0.0744 -0.1666
   63MOL   N20435048   2.045   7.309   3.990  0.4123 -0.1516  0.0704
   63MOL   C20535049   2.150   7.398   4.032 -0.0212  0.5018  0.1071
   63MOL   C20635050   2.125   7.522   4.094 -0.0814  0.1924  0.1838
   63MOL   C20735051   2.237   7.599   4.137 -0.0593 -0.1164  0.4960
   63MOL   C20835052   2.366   7.552   4.124  0.4580 -0.6156  0.5479
   63MOL   N20935053   2.466   7.621   4.193 -0.4248 -0.1730  0.0271
   63MOL   C21035054   2.391   7.424   4.062 -0.7129 -0.1599  0.0900
   63MOL   C21135055   2.280   7.352   4.013  0.9031 -0.0374  0.5812
   63MOL   O21235056   1.857   7.443   3.976 -0.2069 -0.3935  0.4444
   63MOL   C21335057   1.681   7.229   3.945  0.0800 -0.8087  0.6225
   63MOL   C21435058   1.588   7.124   3.952 -0.4561  0.1497  0.4817
   63MOL   O21535059   1.422   6.899   3.911 -0.5106  0.0172 -0.3965
   63MOL   H21635060   1.802   6.869   4.009  0.8811  0.1825  0.2141
   63MOL   H21735061   1.961   7.064   4.032 -0.2856 -1.0019 -0.7781
   63MOL   H21835062   2.068   7.214   3.964 -0.9671 -0.3528 -0.4354
   63MOL   H21935063   2.024   7.554   4.113 -0.1953  0.9843 -1.7023
   63MOL   H22035064   2.222   7.702   4.165 -1.9938  0.2167 -1.5968
   63MOL   H22135065   2.478   7.620   4.293 -1.5128 -1.9508  0.1594
   63MOL   H22235066   2.488   7.377   4.063 -0.4627  0.3715  2.1472
   63MOL   H22335067   2.303   7.262   3.957  1.5232  1.0769 -1.0211
   63MOL   H22435068   1.648   7.327   3.915 -0.5280 -0.5521  2.0842
   63MOL   H22535069   1.485   7.151   3.933 -0.1309  2.6788  2.0262
   63MOL   C22635070   2.557   7.698   4.126 -0.1472  0.1265  1.0052
   63MOL   C22735071   2.665   7.738   4.221  0.5624 -0.0607  0.1021
   63MOL   C22835072   2.681   7.690   4.352 -0.1316  0.1033  0.0374
   63MOL   C22935073   2.771   7.747   4.443 -0.4510 -0.2118 -0.0655
   63MOL   C23035074   2.859   7.847   4.397  0.1837 -0.7845 -0.0548
   63MOL   C23135075   2.974   7.895   4.487  0.5204  0.2911 -1.0462
   63MOL   N23235076   2.932   7.947   4.603 -0.6449  0.2462 -0.1198
   63MOL   C23335077   3.001   7.966   4.726 -0.0023 -0.2257  0.4135
   63MOL   C23435078   3.038   7.860   4.808  0.9475  0.2645  1.0908
   63MOL   C23535079   3.093   7.880   4.936  0.0455  0.2942  0.0299
   63MOL   C23635080   3.116   8.009   4.977  0.4784 -1.0261  0.0155
   63MOL   N23735081   3.161   8.034   5.109 -0.0172 -0.1170  0.2870
   63MOL   C23835082   3.080   8.120   4.896  0.0879 -0.1509 -0.0097
   63MOL   C23935083   3.027   8.098   4.770 -0.0263  0.4300  0.5315
   63MOL   O24035084   3.096   7.886   4.455  0.5435  0.0993  0.1578
   63MOL   C24135085   2.864   7.885   4.260  0.3851 -0.4357  0.4028
   63MOL   C24235086   2.770   7.815   4.174  0.0551 -0.5186  0.5487
   63MOL   O24335087   2.555   7.724   4.001 -0.1730 -0.0443 -0.1967
   63MOL   H24435088   2.613   7.612   4.383  0.6304 -0.1361  1.0895
   63MOL   H24535089   2.772   7.727   4.550 -1.8634 -1.5861 -0.2985
   63MOL   H24635090   2.831   7.951   4.602 -0.7435 -1.5801 -0.2573
   63MOL   H24735091   3.025   7.758   4.775 -0.1584  0.8199 -0.2326
   63MOL   H24835092   3.106   7.795   5.001  3.4485  0.1199 -0.7851
   63MOL   H24935093   3.219   7.960   5.148 -0.1439 -2.2542 -3.3566
   63MOL   H25035094   3.094   0.078   4.921  1.6385 -0.2090 -0.5330
   63MOL   H25135095   2.993   0.035   4.710 -1.2073 -1.2073 -1.1053
   63MOL   H25235096   2.947   7.936   4.213 -0.1762  0.6359  0.5759
   63MOL   H25335097   2.781   7.836   4.069 -0.6269  0.6008  0.6901
   63MOL   C25435098   3.135   8.138   5.197 -0.1077 -0.0195 -0.2456
   63MOL   C25535099   3.227   8.143   5.323  0.4915  0.2137 -0.1620
   63MOL   C25635100   3.213   0.109   5.407  0.2104  0.2624 -0.3053
   63MOL   C25735101   3.305   0.127   5.514 -0.6916  0.3801  0.3562
   63MOL   C25835102   3.399   0.029   5.541 -0.3261 -0.0223  0.1080
   63MOL   C25935103   3.490   0.032   5.661  0.3743 -0.2538  0.4016
   63MOL   N26035104   3.569   0.137   5.663 -0.3419  0.0717  0.7258
   63MOL   C26135105   3.651   0.187   5.763  0.8201 -0.1942 -0.3969
   63MOL   C26235106   3.713   0.099   5.857 -0.1256  0.7198  0.4612
   63MOL   C26335107   3.797   0.146   5.966  0.3596 -0.0327  0.8244
   63MOL   C26435108   3.813   0.289   5.976  0.4907 -0.9456 -0.0761
   63MOL   N26535109   3.879   0.357   6.080 -0.4035  0.0363 -0.2517
   63MOL   C26635110   3.760   0.374   5.876  0.4585  0.4363 -0.4146
   63MOL   C26735111   3.681   0.329   5.768 -0.3279 -0.4111 -0.8716
   63MOL   O26835112   3.483   8.087   5.745 -0.4092  0.1605  0.4698
   63MOL   C26935113   3.406   8.059   5.454 -0.8166  0.0952  0.1069
   63MOL   C27035114   3.319   8.039   5.347 -0.6890 -0.3757 -0.3632
   63MOL   O27135115   3.050   0.077   5.171 -0.7067 -0.7281 -0.6917
   63MOL   H27235116   3.134   0.182   5.395  1.3422  1.7129  0.8868
   63MOL   H27335117   3.284   0.210   5.580  2.3351  2.5990 -1.3126
   63MOL   H27435118   3.560   0.200   5.585 -0.7588  0.6180  1.2105
   63MOL   H27535119   3.708   8.138   5.843 -1.6574  0.7219  0.9292
   63MOL   H27635120   3.850   0.082   6.034 -0.5562 -0.7681  0.8503
   63MOL   H27735121   3.875   0.457   6.092  1.9119  0.0055  1.1316
   63MOL   H27835122   3.773   0.481   5.872 -1.1058  0.6100 -0.8101
   63MOL   H27935123   3.637   0.391   5.691 -1.0976  0.1988  0.0380
   63MOL   H28035124   3.477   7.981   5.479 -0.2241  0.3296 -0.8010
   63MOL   H28135125   3.331   7.951   5.286 -1.1695 -0.4639 -0.3330
   63MOL   C28235126   3.987   0.317   6.152 -0.7463  0.7069  0.8834
   63MOL   C28335127   4.054   0.426   6.228 -0.0798  0.9287 -0.6310
   63MOL   C28435128   4.120   0.385   6.344  0.2529  0.2832 -0.3583
   63MOL   C28535129   4.173   0.482   6.432  0.3434 -0.2552 -0.0093
   63MOL   C28635130   4.162   0.617   6.403  0.7948 -0.3316  0.2105
   63MOL   C28735131   4.217   0.725   6.490  0.3474  0.5134 -0.8840
   63MOL   N28835132   4.340   0.738   6.538 -0.4358  0.4470  0.1053
   63MOL   C28935133   4.459   0.661   6.510  0.0219 -0.4568  0.2760
   63MOL   C29035134   4.476   0.594   6.382 -0.1129  0.5787 -0.4681
   63MOL   C29135135   4.584   0.507   6.371  0.2527  0.1042  0.5846
   63MOL   C29235136   4.694   0.498   6.463 -0.6751 -0.4017 -0.1193
   63MOL   N29335137   4.801   0.407   6.446 -0.4534 -0.1111 -0.5634
   63MOL   C29435138   4.684   0.583   6.577  0.0869  0.0040  0.8129
   63MOL   C29535139   4.564   0.654   6.601 -0.0968 -0.3068 -0.5691
   63MOL   O29635140   4.141   0.816   6.511 -0.7108  0.5202 -0.0488
   63MOL   C29735141   4.107   0.655   6.281  0.0437 -0.3141 -0.1370
   63MOL   C29835142   4.044   0.564   6.192  0.0110 -0.3856  0.7631
   63MOL   O29935143   4.021   0.197   6.180 -0.0373  0.0126  0.3712
   63MOL   H30035144   4.117   0.282   6.375  2.3789  0.7259  1.4647
   63MOL   H30135145   4.208   0.455   6.531 -1.2850  1.3300  1.0346
   63MOL   H30235146   4.352   0.810   6.608  0.1025 -0.1735  0.6567
   63MOL   H30335147   4.394   0.595   6.312 -2.0683  0.1168  1.7241
   63MOL   H30435148   4.578   0.458   6.276 -1.3410 -0.1342  0.7847
   63MOL   H30535149   4.871   0.405   6.519  0.9385 -2.5350 -1.8748
   63MOL   H30635150   4.761   0.574   6.653  0.8763 -0.9037 -0.0664
   63MOL   H30735151   4.554   0.687   6.703  0.2082  0.1898 -0.6986
   63MOL   H30835152   4.087   0.760   6.269  0.5699 -0.1430  0.4949
   63MOL   H30935153   3.982   0.593   6.109 -1.0421 -0.2435  1.5838
   63MOL   C31035154   4.827   0.304   6.367  0.3675 -0.1811  0.5428
   63MOL   C31135155   4.736   0.264   6.255 -0.2895 -0.4118 -0.5325
   63MOL   C31235156   4.790   0.277   6.132  0.1141 -0.4132 -0.0515
   63MOL   C31335157   4.719   0.227   6.022 -0.6588  0.2067  0.2238
   63MOL   C31435158   4.602   0.157   6.033 -0.3151  0.5499 -0.3173
   63MOL   C31535159   4.534   0.104   5.915 -0.0875 -0.2659 -0.0659
   63MOL   N31635160   4.414   0.166   5.887  0.6482 -0.0694 -0.1589
   63MOL   C31735161   4.316   0.131   5.787  0.7097 -0.2060 -0.1659
   63MOL   C31835162   4.350   0.068   5.672  0.0973  0.0961  0.8288
   63MOL   C31935163   4.264   0.032   5.575  0.6865 -0.2606 -0.1714
   63MOL   C32035164   4.125   0.069   5.587 -0.1458 -0.3024 -0.0785
   63MOL   N32135165   4.031   0.039   5.481  0.1003 -0.7463 -0.6069
   63MOL   C32235166   4.084   0.121   5.709  0.3615 -0.2087 -0.8272
   63MOL   C32335167   4.182   0.162   5.803 -0.3875 -0.1515  0.1176
   63MOL   O32435168   4.581   0.003   5.856 -0.5568  0.0404  0.6110
   63MOL   C32535169   4.546   0.150   6.167 -0.6899  0.7697  0.0572
   63MOL   C32635170   4.615   0.200   6.278 -0.1664 -0.4818 -0.0239
   63MOL   O32735171   4.935   0.244   6.367  0.0791 -0.2116  0.9255
   63MOL   H32835172   4.882   0.329   6.112 -1.4351  2.4898  0.1233
   63MOL   H32935173   4.757   0.241   5.922 -0.5694 -0.3233  0.1817
   63MOL   H33035174   4.389   0.239   5.952 -3.0458 -0.0991 -1.4554
   63MOL   H33135175   4.451   0.036   5.649 -0.4673  0.4877 -2.5944
   63MOL   H33235176   4.306   8.131   5.487  1.2018  0.6724 -0.4293
   63MOL   H33335177   3.937   0.029   5.517  0.5196  0.2796  0.8093
   63MOL   H33435178   3.978   0.125   5.727  0.5165 -1.1043  0.3516
   63MOL   H33535179   4.155   0.206   5.898 -0.6445 -1.7946  0.8322
   63MOL   H33635180   4.448   0.108   6.183  0.2500 -1.1599  0.8553
   63MOL   H33735181   4.572   0.199   6.377 -1.3469  1.7570 -0.5054
   63MOL   C33835182   4.048   0.058   5.349 -0.1915  0.4100 -0.0282
   63MOL   C33935183   3.931   0.024   5.262  0.6569 -0.2889  0.3465
   63MOL   C34035184   3.955   0.013   5.120 -0.8417 -0.3105 -0.3615
   63MOL   C34135185   3.854   8.098   5.045 -0.1651 -0.0662  0.0786
   63MOL   C34235186   3.730   8.055   5.104  0.4777  0.0334 -0.3301
   63MOL   C34335187   3.611   8.016   5.015  0.7010  0.4720  0.3473
   63MOL   N34435188   3.637   8.007   4.890 -0.0356 -0.0503  0.1881
   63MOL   C34535189   3.559   7.969   4.778 -0.1459 -0.0003  0.8500
   63MOL   C34635190   3.636   7.908   4.675  0.1520 -0.1805 -0.0991
   63MOL   C34735191   3.579   7.868   4.555 -0.1766 -0.0683  0.4612
   63MOL   C34835192   3.437   7.880   4.535  0.7597  0.1908 -0.1432
   63MOL   N34935193   3.370   7.853   4.415  0.0328 -0.1384  0.1107
   63MOL   C35035194   3.365   7.949   4.635  0.4544  0.6035  0.4636
   63MOL   C35135195   3.424   7.988   4.758 -0.5430 -0.2270 -0.4125
   63MOL   O35235196   3.509   7.981   5.067 -0.1133  0.2624 -1.1991
   63MOL   C35335197   3.712   8.073   5.240  0.1143  0.0563  0.2775
   63MOL   C35435198   3.810   8.124   5.318  0.4837 -0.5974  0.1781
   63MOL   O35535199   4.151   0.103   5.299  0.4038 -0.4861  0.0865
   63MOL   H35635200   4.051   0.023   5.073 -0.4043 -3.1868 -0.1444
   63MOL   H35735201   3.868   8.096   4.937 -2.6580 -1.7451 -0.2489
   63MOL   H35835202   3.733   8.028   4.864  0.3963 -1.8810  0.2530
   63MOL   H35935203   3.742   7.895   4.689 -0.0286 -0.7888  0.6935
   63MOL   H36035204   3.643   7.824   4.480 -0.7531  0.2212 -0.2081
   63MOL   H36135205   3.269   7.853   4.416  0.0147 -2.1101  2.0364
   63MOL   H36235206   3.261   7.975   4.620  0.2684  0.4312  1.4119
   63MOL   H36335207   3.352   8.028   4.827 -1.8065 -1.4816 -0.9787
   63MOL   H36435208   3.616   8.043   5.280 -0.1780  1.6919  0.8223
   63MOL   H36535209   3.788   8.113   5.423 -1.5957  0.8315 -0.0720
   63MOL   C36635210   3.422   7.838   4.292 -0.4963 -0.0476 -0.4388
   63MOL   C36735211   3.320   7.815   4.182  0.3087  0.2530 -0.8666
   63MOL   C36835212   3.308   7.909   4.084  0.6707  0.2723  0.2699
   63MOL   C36935213   3.243   7.884   3.962 -0.1235 -0.2010 -0.4356
   63MOL   C37035214   3.181   7.756   3.942  0.0904  0.4446 -0.4803
   63MOL   C37135215   3.116   7.708   3.816 -0.3399 -0.1123  0.2998
   63MOL   N37235216   2.979   7.694   3.825  0.6787 -0.0596 -0.0328
   63MOL   C37335217   2.889   7.730   3.715 -0.0545 -0.1578  0.5108
   63MOL   C37435218   2.851   7.863   3.700  0.1631 -0.2861  0.5320
   63MOL   C37535219   2.773   7.897   3.587 -0.2574 -0.5056 -0.0672
   63MOL   C37635220   2.734   7.803   3.487  0.3556  0.7974 -0.9692
   63MOL   N37735221   2.688   7.839   3.360 -0.1941 -0.4320 -0.1045
   63MOL   C37835222   2.780   7.667   3.503 -0.2113 -0.6989 -0.4167
   63MOL   C37935223   2.845   7.626   3.623 -0.4385  0.4099  0.4867
   63MOL   O38035224   3.173   7.695   3.705  0.2974  0.6375 -0.1042
   63MOL   C38135225   3.179   7.664   4.046  1.0584  0.1606 -0.3875
   63MOL   C38235226   3.245   7.691   4.171  0.7336 -0.3647  0.2579
   63MOL   O38335227   3.539   7.856   4.264  0.0908  0.1913 -0.1901
   63MOL   H38435228   3.360   8.002   4.100  0.7817  0.3678 -0.6182
   63MOL   H38535229   3.234   7.964   3.890 -2.1152  0.5013  0.5793
   63MOL   H38635230   2.931   7.672   3.911 -1.3215  0.9127 -0.8985
   63MOL   H38735231   2.880   7.930   3.780 -0.0534  1.2334 -0.6440
   63MOL   H38835232   2.740   8.000   3.589 -2.1601 -1.1268  1.7814
   63MOL   H38935233   2.699   7.773   3.284  3.3458  0.2722 -0.2733
   63MOL   H39035234   2.755   7.598   3.424 -0.3522 -1.0050 -0.1033
   63MOL   H39135235   2.886   7.526   3.623 -1.9819 -0.2388 -0.0336
   63MOL   H39235236   3.133   7.568   4.030 -1.4872  0.7997  2.5908
   63MOL   H39335237   3.248   7.620   4.253 -0.4380  0.0746  0.6934
   63MOL   C39435238   2.622   7.949   3.328  0.6424  0.0738 -0.2180
   63MOL   C39535239   2.582   7.954   3.184 -0.4858  0.6320  0.4110
   63MOL   C39635240   2.521   7.844   3.123 -0.9664  0.2878 -0.0568
   63MOL   C39735241   2.480   7.855   2.982  0.6059 -0.4099 -0.0393
   63MOL   C39835242   2.496   7.977   2.917  0.4790 -0.1042  0.9241
   63MOL   C39935243   2.442   7.994   2.778 -0.2288  0.3725 -0.1015
   63MOL   N40035244   2.313   7.999   2.770 -0.2701 -0.1368  1.2205
   63MOL   C40135245   2.226   8.018   2.650  0.4713 -0.5705 -0.2620
   63MOL   C40235246   2.097   8.067   2.673  0.0383  0.1142  0.0640
   63MOL   C40335247   2.012   8.112   2.573  0.2755 -0.3112  0.2851
   63MOL   C40435248   2.061   8.118   2.438 -0.2562  0.0296 -0.1827
   63MOL   N40535249   1.984   0.031   2.334 -0.3782 -0.4298 -0.5986
   63MOL   C40635250   2.190   8.058   2.412 -0.4991 -0.0945  0.1140
   63MOL   C40735251   2.272   8.013   2.518 -0.6056 -0.8924  0.7319
   63MOL   O40835252   2.518   8.015   2.683 -0.3741  0.4375  0.2040
   63MOL   C40935253   2.563   8.082   2.978 -0.2493  0.5857  0.6393
   63MOL   C41035254   2.600   8.072   3.111  0.3136 -0.1502  0.4112
   63MOL   O41135255   2.596   8.049   3.393 -0.0664  0.2356 -0.7268
   63MOL   H41235256   2.503   7.756   3.183 -0.7831  0.7312  0.6535
   63MOL   H41335257   2.433   7.767   2.941 -1.5927  0.8219 -0.2247
   63MOL   H41435258   2.261   7.981   2.855 -0.0953 -0.8644  1.1755
   63MOL   H41535259   2.052   8.069   2.771 -1.5828 -1.2481 -0.6313
   63MOL   H41635260   1.912   8.142   2.597 -0.7260 -2.3496 -1.2193
   63MOL   H41735261   1.970   8.138   2.242  0.0104  0.0269 -0.8601
   63MOL   H41835262   2.223   8.044   2.311 -2.1921 -0.9535 -0.3393
   63MOL   H41935263   2.372   7.980   2.495 -0.3465 -1.1476  2.1826
   63MOL   H42035264   2.588   0.031   2.933  1.6006 -0.7511 -1.2103
   63MOL   H42135265   2.637   0.019   3.152  0.4486  0.4858 -1.1139
   63MOL   C42235266   1.935   0.158   2.346  0.1856  0.0604 -0.4855
   63MOL   C42335267   1.998   0.253   2.447 -0.2185  0.5184  0.0613
   63MOL   C42435268   2.130   0.303   2.433 -0.5373  0.3075  0.2812
   63MOL   C42535269   2.185   0.398   2.528  0.2954  0.5808 -0.2061
   63MOL   C42635270   2.109   0.449   2.637 -0.4031 -0.1819  0.2220
   63MOL   C42735271   2.171   0.537   2.735 -0.6606  0.3688  0.2135
   63MOL   N42835272   2.113   0.539   2.850 -0.3580 -0.6508  0.4507
   63MOL   C42935273   2.145   0.619   2.964  0.1728  0.0355  0.1047
   63MOL   C43035274   2.252   0.707   2.977 -1.3263 -0.1477  1.1782
   63MOL   C43135275   2.267   0.785   3.096 -0.0753 -0.3723  0.3985
   63MOL   C43235276   2.173   0.772   3.201 -0.1212 -0.5795  0.1202
   63MOL   N43335277   2.177   0.876   3.305  0.3503 -0.3445  0.1745
   63MOL   C43435278   2.078   0.664   3.195  0.4492 -0.1516  0.6385
   63MOL   C43535279   2.061   0.593   3.075 -0.4160  0.5316 -0.5021
   63MOL   O43635280   2.268   0.603   2.707 -0.4671 -0.2465 -0.2534
   63MOL   C43735281   1.975   0.392   2.641  0.1123  0.6990 -0.1727
   63MOL   C43835282   1.923   0.291   2.557 -0.7249 -0.0488 -0.2287
   63MOL   O43935283   1.845   0.196   2.275  0.2196  0.4790  0.2392
   63MOL   H44035284   2.197   0.277   2.352 -0.5080 -3.5865  1.4812
   63MOL   H44135285   2.287   0.428   2.513 -0.0516  2.1174  0.3922
   63MOL   H44235286   2.029   0.483   2.850  0.5469 -2.0333  0.1928
   63MOL   H44335287   2.331   0.724   2.906  0.0499  1.8004  3.1022
   63MOL   H44435288   2.341   0.864   3.101 -1.7115  1.2501 -0.3856
   63MOL   H44535289   2.263   0.919   3.336 -0.8101  0.4597  2.4650
   63MOL   H44635290   2.014   0.632   3.276  1.0459 -0.5664  0.9441
   63MOL   H44735291   1.981   0.521   3.063  0.2401 -0.1807 -0.6719
   63MOL   H44835292   1.904   0.423   2.717 -0.9261  0.4398 -1.0335
   63MOL   H44935293   1.818   0.266   2.565 -1.5961  3.5425  0.3939
   63MOL   C45035294   2.069   0.916   3.370  0.6433  0.2710  0.2554
   63MOL   C45135295   2.091   1.023   3.465  0.2803  0.2593 -0.1616
   63MOL   C45235296   2.011   1.137   3.456  0.2352 -0.0143  0.4154
   63MOL   C45335297   2.022   1.247   3.541  0.1239  0.2512  0.3884
   63MOL   C45435298   2.118   1.239   3.644  0.0937 -0.3956 -0.3142
   63MOL   C45535299   2.117   1.349   3.747 -0.2531 -0.4675 -0.0405
   63MOL   N45635300   2.019   1.442   3.738 -0.1997  1.0626  0.0914
   63MOL   C45735301   1.934   1.490   3.842 -0.0619 -0.6197  0.0703
   63MOL   C45835302   1.819   1.560   3.802  0.4529  0.5282 -1.0163
   63MOL   C45935303   1.728   1.596   3.898  0.3888  0.0508 -0.0264
   63MOL   C46035304   1.746   1.585   4.035  0.2502  0.3743  0.1651
   63MOL   N46135305   1.639   1.626   4.116  0.3211 -0.1265 -0.9260
   63MOL   C46235306   1.859   1.512   4.076 -0.0681  0.1041 -0.2554
   63MOL   C46335307   1.954   1.469   3.981  0.5343  0.6025 -0.2567
   63MOL   O46435308   2.195   1.340   3.846 -0.2678  1.0973 -0.2657
   63MOL   C46535309   2.202   1.127   3.660  0.1213  0.8025 -0.2806
   63MOL   C46635310   2.187   1.018   3.569 -0.2629 -0.2615 -0.1955
   63MOL   O46735311   1.957   0.885   3.343 -0.0590 -0.4752  0.1073
   63MOL   H46835312   1.935   1.136   3.378  0.4067  1.3065  0.2329
   63MOL   H46935313   1.951   1.326   3.520 -0.5550 -0.4596  0.0217
   63MOL   H47035314   1.979   1.453   3.646 -1.5357 -0.2820  0.4754
   63MOL   H47135315   1.785   1.570   3.700  0.8840 -2.0592 -1.4499
   63MOL   H47235316   1.642   1.642   3.852  0.5907  0.4698  0.0066
   63MOL   H47335317   1.550   1.655   4.078  1.5914  1.4458 -2.7999
   63MOL   H47435318   1.873   1.494   4.181  1.1216 -0.1230 -0.4467
   63MOL   H47535319   2.042   1.416   4.016 -0.3573 -0.4718  0.4043
   63MOL   H47635320   2.272   1.119   3.741 -0.6355 -0.1417  0.2875
   63MOL   H47735321   2.244   0.926   3.562 -0.6584 -0.5684  0.5806
   63MOL   C47835322   1.642   1.632   4.246  0.6975 -0.5769 -0.1022
   63MOL   C47935323   1.505   1.613   4.295 -0.1106 -0.0952  0.5362
   63MOL   C48035324   1.453   1.690   4.402  0.8772  0.8331  0.4868
   63MOL   C48135325   1.328   1.667   4.458  0.2797  0.3240 -0.4622
   63MOL   C48235326   1.254   1.553   4.420 -0.0754 -0.4563 -0.0762
   63MOL   C48335327   1.116   1.529   4.478 -0.4243  0.3114  0.2347
   63MOL   N48435328   1.075   1.400   4.498  0.2010  0.0919  0.2248
   63MOL   C48535329   0.953   1.347   4.529 -0.2231 -0.0412 -0.2672
   63MOL   C48635330   0.912   1.219   4.478 -0.4015 -0.3542 -0.3326
   63MOL   C48735331   0.794   1.159   4.527  0.3269 -0.0242 -0.5187
   63MOL   C48835332   0.715   1.225   4.623 -0.5212  0.2403  0.1161
   63MOL   N48935333   0.608   1.166   4.694  0.4246  0.0652 -0.0663
   63MOL   C49035334   0.757   1.341   4.684 -0.1404  0.0379  0.5212
   63MOL   C49135335   0.877   1.405   4.631 -0.1469  0.2256  0.2963
   63MOL   O49235336   1.040   1.625   4.511 -0.2374  0.1025 -0.2434
   63MOL   C49335337   1.306   1.475   4.316  1.1348  0.0685  0.5285
   63MOL   C49435338   1.419   1.509   4.248 -0.2577 -0.0870  0.4464
   63MOL   O49535339   1.730   1.652   4.326 -0.1214  0.5605 -0.6443
   63MOL   H49635340   1.524   1.765   4.434 -0.0269  2.2272 -0.7026
   63MOL   H49735341   1.284   1.742   4.523 -0.7162  0.0379 -0.7955
   63MOL   H49835342   1.147   1.338   4.466 -0.7886  0.9868 -4.0584
   63MOL   H49935343   0.966   1.163   4.403  1.9765  0.4616  0.7122
   63MOL   H50035344   0.757   1.070   4.478  2.1354  0.1046 -2.1916
   63MOL   H50135345   0.575   1.204   4.782 -3.5335 -0.3497 -1.2462
   63MOL   H50235346   0.711   1.384   4.772  0.6975  0.5508  0.7072
   63MOL   H50335347   0.908   1.495   4.681  0.5338 -0.5925  1.3715
   63MOL   H50435348   1.252   1.388   4.279 -0.3730  0.0771  2.6401
   63MOL   H50535349   1.454   1.455   4.161 -0.4811  0.5274 -0.0280
   63MOL   C50635350   0.528   1.066   4.652 -0.3447 -0.2711 -0.1529
   63MOL   C50735351   0.409   1.040   4.740  0.6981 -0.8903  0.1513
   63MOL   C50835352   0.326   1.139   4.793  0.2243  0.2014 -0.0229
   63MOL   C50935353   0.202   1.115   4.845  0.2540  0.0967  0.3468
   63MOL   C51035354   0.170   0.979   4.873 -0.9079  0.2452  0.4809
   63MOL   C51135355   0.037   0.951   4.940 -0.8724 -0.2164 -0.3664
   63MOL   N51235356   0.008   0.821   4.970 -0.6421  0.4798  0.1049
   63MOL   C51335357   8.045   0.765   5.045  0.3741 -0.3109  0.2393
   63MOL   C51435358   7.928   0.831   5.104 -0.5110 -0.1628 -0.5000
   63MOL   C51535359   7.837   0.767   5.199 -0.2415 -0.1752 -0.2853
   63MOL   C51635360   7.852   0.628   5.217 -0.0427 -0.1495  0.4420
   63MOL   N51735361   7.754   0.565   5.300 -0.2693  0.1005 -0.1840
   63MOL   C51835362   7.957   0.561   5.151  0.5001 -0.3638 -0.7962
   63MOL   C51935363   8.045   0.623   5.060 -1.0647  0.0017 -0.2558
   63MOL   O52035364   8.112   1.048   4.969  0.5087 -0.2274  0.2797
   63MOL   C52135365   0.259   0.874   4.838  0.4777 -0.1611 -0.0240
   63MOL   C52235366   0.369   0.907   4.766  0.0559  0.0715  0.8373
   63MOL   O52335367   0.540   1.003   4.545  0.1249  0.4840 -0.3216
   63MOL   H52435368   0.354   1.241   4.774 -1.7352  0.3213 -2.5094
   63MOL   H52535369   0.135   1.199   4.862  0.6294  0.1222  1.8352
   63MOL   H52635370   0.083   0.761   4.942 -0.7705  0.6620 -0.6500
   63MOL   H52735371   7.932   0.938   5.095  0.2371 -0.0983  0.5297
   63MOL   H52835372   7.759   0.822   5.249 -1.2796 -1.8320 -0.0405
   63MOL   H52935373   7.705   0.621   5.368 -0.1519  0.2149 -0.1933
   63MOL   H53035374   7.960   0.453   5.161  0.6108 -0.5274 -2.4579
   63MOL   H53135375   8.122   0.568   5.008  0.2959  0.6584  1.0440
   63MOL   H53235376   0.228   0.771   4.850 -1.3951  0.3820 -0.0425
   63MOL   H53335377   0.439   0.835   4.727 -0.3884 -0.6747  1.4206
   63MOL   C53435378   7.696   0.446   5.278 -0.9688 -0.5333 -0.2561
   63MOL   C53535379   7.571   0.425   5.356  0.0702 -0.7211 -0.0815
   63MOL   C53635380   7.551   0.493   5.476  0.3291 -0.2996 -0.2757
   63MOL   C53735381   7.430   0.484   5.551  0.1031  0.3612  0.3499
   63MOL   C53835382   7.324   0.409   5.500 -0.4268  0.3078  0.3462
   63MOL   C53935383   7.198   0.402   5.573 -0.0125 -0.0968  0.0088
   63MOL   N54035384   7.125   0.298   5.542  0.1317  0.1348  0.4487
   63MOL   C54135385   7.012   0.244   5.621 -0.1916  0.2460  0.1737
   63MOL   C54235386   7.019   0.101   5.636  0.4270  0.2304  0.2355
   63MOL   C54335387   6.927   0.040   5.723 -0.0138 -0.2701 -0.8306
   63MOL   C54435388   6.822   0.119   5.781  0.1020  0.4308  0.4333
   63MOL   N54535389   6.720   0.060   5.858  0.1292 -0.0297 -0.4863
   63MOL   C54635390   6.823   0.258   5.761 -0.0748  0.3500 -0.1706
   63MOL   C54735391   6.921   0.321   5.693  0.6216 -0.1244 -0.9702
   63MOL   O54835392   7.173   0.499   5.652  0.6306  0.1143 -0.3529
   63MOL   C54935393   7.349   0.338   5.378 -0.4146  0.1613 -0.7626
   63MOL   C55035394   7.469   0.337   5.310 -0.1844 -0.0226 -0.9476
   63MOL   O55135395   7.734   0.365   5.194 -0.3382 -0.1270  0.4762
   63MOL   H55235396   7.633   0.538   5.531  1.4036 -0.6401 -1.5961
   63MOL   H55335397   7.428   0.539   5.644 -1.1733  2.6509 -0.9905
   63MOL   H55435398   7.161   0.232   5.475  1.7050 -0.8879  2.2159
   63MOL   H55535399   7.100   0.048   5.588  0.2445 -0.9003  1.1750
   63MOL   H55635400   6.925   8.078   5.723  0.1577 -0.2718 -1.9790
   63MOL   H55735401   6.749   8.140   5.928  2.7089  0.3112 -1.2089
   63MOL   H55835402   6.750   0.318   5.815 -2.0699 -1.9938 -0.1624
   63MOL   H55935403   6.938   0.428   5.701  0.9230 -0.3730  2.2870
   63MOL   H56035404   7.272   0.268   5.350  2.0775 -2.1762 -1.9670
   63MOL   H56135405   7.478   0.283   5.217 -2.2915  0.7625 -1.6393
   63MOL   H56235406   6.651   0.123   5.896 -0.1238 -0.7924  0.3311
   64MOL     C135407   3.330   5.608   3.444 -0.3039  0.2750  0.0627
   64MOL     C235408   3.448   5.634   3.531  0.0184 -0.0658 -0.8996
   64MOL     C335409   3.566   5.568   3.500  0.0032  0.5949  0.6265
   64MOL     C435410   3.679   5.593   3.578 -0.2444 -0.0752 -0.1321
   64MOL     C535411   3.682   5.682   3.693  0.7308 -0.6182  0.2363
   64MOL     C635412   3.798   5.705   3.786  0.4090  0.4657  0.8473
   64MOL     N735413   3.872   5.597   3.813 -0.1481  0.6353 -0.1717
   64MOL     C835414   3.989   5.588   3.884 -0.4506 -0.6369  0.1519
   64MOL     C935415   4.032   5.465   3.930 -0.3488  0.6923  0.2864
   64MOL    C1035416   4.154   5.453   4.002 -0.5971 -0.5859  0.4396
   64MOL    C1135417   4.234   5.562   4.029 -0.3880 -0.0204  0.0029
   64MOL    N1235418   4.365   5.557   4.081  0.0171  0.3414  0.1787
   64MOL    C1335419   4.192   5.688   3.993  0.4658  0.0037  0.2141
   64MOL    C1435420   4.065   5.702   3.924  0.2951 -0.2136 -0.3260
   64MOL    O1535421   3.810   5.818   3.844  0.3528  0.4828  0.0607
   64MOL    C1635422   3.560   5.754   3.716  0.4891 -0.2557  0.1924
   64MOL    C1735423   3.443   5.730   3.639  0.3458  0.1554 -0.2668
   64MOL    O1835424   3.213   5.642   3.474  0.5307  0.3721 -0.6119
   64MOL    H1935425   3.568   5.506   3.412 -0.6171 -0.8444  1.6135
   64MOL    H2035426   3.765   5.527   3.572 -2.9443 -3.7757 -0.1187
   64MOL    H2135427   3.834   5.511   3.774 -0.1262  0.7885 -0.5337
   64MOL    H2235428   3.973   5.378   3.905 -0.7757  1.0750 -0.0504
   64MOL    H2335429   4.193   5.352   4.013  3.6891  0.9589  0.2701
   64MOL    H2435430   4.429   5.626   4.044  1.6426  0.4193  3.0461
   64MOL    H2535431   4.259   5.770   4.013 -1.5203  2.0589 -1.3040
   64MOL    H2635432   4.033   5.801   3.897  3.7850  0.9825 -0.3681
   64MOL    H2735433   3.561   5.826   3.796 -0.0972  1.3510 -1.2076
   64MOL    H2835434   3.349   5.779   3.661  0.2134  0.1518 -0.8261
   64MOL    H2935435   3.353   5.550   3.355 -2.3268 -0.9602  0.3089
   64MOL    C3035436   4.418   5.473   4.166  0.6482 -0.3912 -0.4261
   64MOL    C3135437   4.565   5.506   4.187  0.5286  0.2801 -0.2668
   64MOL    C3235438   4.658   5.414   4.149 -0.4932 -0.0703 -0.5350
   64MOL    C3335439   4.798   5.439   4.179  0.3201 -1.0447  0.4934
   64MOL    C3435440   4.837   5.558   4.240  0.3980 -0.1770  0.2211
   64MOL    C3535441   4.983   5.590   4.252 -0.3411 -0.2232 -0.0450
   64MOL    N3635442   5.007   5.723   4.256 -1.0995  0.0891  0.4737
   64MOL    C3735443   5.132   5.779   4.298  0.2043  0.2387 -0.8173
   64MOL    C3835444   5.255   5.739   4.245 -0.0863  0.0342 -0.4444
   64MOL    C3935445   5.374   5.797   4.290  0.1785  0.9706 -0.3380
   64MOL    C4035446   5.372   5.896   4.396 -0.5887  0.4780 -1.0449
   64MOL    N4135447   5.487   5.963   4.446  0.2030 -0.3058 -0.2131
   64MOL    C4235448   5.245   5.927   4.449  0.1269  0.2780  0.3421
   64MOL    C4335449   5.129   5.880   4.401  0.7081 -0.0796  0.8566
   64MOL    O4435450   5.072   5.507   4.238 -0.3152  0.0129 -0.7470
   64MOL    C4535451   4.735   5.644   4.290  0.2064  0.2802 -0.2676
   64MOL    C4635452   4.602   5.617   4.257  0.5664  0.4011 -0.4851
   64MOL    O4735453   4.361   5.380   4.224 -0.3136 -0.0271  0.2490
   64MOL    H4835454   4.640   5.315   4.109 -1.2190  0.4197 -1.4451
   64MOL    H4935455   4.874   5.369   4.147  1.7553  0.5667  0.3600
   64MOL    H5035456   4.935   5.793   4.251 -0.2592  0.9136 -0.2989
   64MOL    H5135457   5.253   5.663   4.168  2.3041  0.7637 -1.2696
   64MOL    H5235458   5.466   5.755   4.252  0.1293  0.9936 -0.4822
   64MOL    H5335459   5.476   6.021   4.528  3.6999  0.9291 -0.5366
   64MOL    H5435460   5.235   6.004   4.525  0.4592  1.1029 -0.4355
   64MOL    H5535461   5.040   5.930   4.435  2.4415  2.8780  1.2243
   64MOL    H5635462   4.754   5.735   4.345 -0.7803  0.6037 -0.4434
   64MOL    H5735463   4.529   5.689   4.292 -1.1846 -1.1156 -0.9430
   64MOL    C5835464   5.611   5.919   4.453 -0.3126 -0.3745 -0.1636
   64MOL    C5935465   5.688   5.989   4.553  0.4638 -0.4064 -0.4379
   64MOL    C6035466   5.824   6.025   4.533  0.0198  0.0412  0.4365
   64MOL    C6135467   5.901   6.096   4.628 -0.0947 -0.2149  0.1545
   64MOL    C6235468   5.841   6.141   4.744  0.7264  0.3709 -0.7036
   64MOL    C6335469   5.919   6.230   4.842  0.0404 -0.8279 -0.5039
   64MOL    N6435470   5.843   6.326   4.897  0.2845 -0.3579  0.1486
   64MOL    C6535471   5.852   6.391   5.022 -0.5380  0.6538  0.0455
   64MOL    C6635472   5.939   6.347   5.126 -0.5138 -0.4546 -0.6822
   64MOL    C6735473   5.955   6.420   5.244 -0.5265 -0.3922 -0.7771
   64MOL    C6835474   5.886   6.540   5.264 -0.6669  0.4016 -0.1110
   64MOL    N6935475   5.903   6.616   5.379  0.3415  0.0639 -0.1278
   64MOL    C7035476   5.783   6.576   5.171 -0.8815 -0.6651  0.1520
   64MOL    C7135477   5.787   6.511   5.049  0.1917 -0.1468 -0.0670
   64MOL    O7235478   6.038   6.211   4.871 -0.4357  0.5479 -0.1192
   64MOL    C7335479   5.710   6.096   4.773  1.0001  0.6630  0.3215
   64MOL    C7435480   5.630   6.022   4.680 -0.8063  0.1964  0.4798
   64MOL    O7535481   5.657   5.831   4.383 -0.8154  0.6427 -0.2789
   64MOL    H7635482   5.865   5.991   4.440 -2.7860 -0.7502 -0.5751
   64MOL    H7735483   6.003   6.112   4.598 -0.3032 -1.1546 -1.1074
   64MOL    H7835484   5.762   6.350   4.841  0.6659  0.3058 -0.1158
   64MOL    H7935485   6.000   6.258   5.112  2.0307  1.0596  0.4437
   64MOL    H8035486   6.024   6.379   5.317 -1.4116 -0.6067 -0.0475
   64MOL    H8135487   5.823   6.676   5.391  0.5778  0.4624 -0.5100
   64MOL    H8235488   5.722   6.664   5.188  2.5978  2.0451 -0.7091
   64MOL    H8335489   5.720   6.541   4.970  0.8035 -0.7259 -0.8058
   64MOL    H8435490   5.677   6.116   4.874  1.5408  1.5783  0.3255
   64MOL    H8535491   5.536   5.975   4.707 -1.3538  1.1657  0.2744
   64MOL    C8635492   6.014   6.634   5.457  0.2243 -0.5809  0.6222
   64MOL    C8735493   5.994   6.740   5.565  0.3449 -1.0101  0.9907
   64MOL    C8835494   5.933   6.861   5.544  0.3841  0.3713  0.0409
   64MOL    C8935495   5.890   6.943   5.650 -0.1904  0.1244  0.3541
   64MOL    C9035496   5.896   6.896   5.781 -0.3612  0.8319 -0.7843
   64MOL    C9135497   5.837   6.972   5.899 -0.1955  0.2052 -0.5543
   64MOL    N9235498   5.750   7.065   5.865  0.3873  0.0909  0.7525
   64MOL    C9335499   5.665   7.132   5.951  0.1405  0.3974 -0.1666
   64MOL    C9435500   5.708   7.185   6.079 -0.0846 -0.0613 -0.0044
   64MOL    C9535501   5.613   7.245   6.158 -0.5436 -0.4360  0.1944
   64MOL    C9635502   5.476   7.245   6.125 -0.2795 -0.4727 -0.4949
   64MOL    N9735503   5.376   7.275   6.226  0.1143  0.6888 -0.0186
   64MOL    C9835504   5.434   7.180   6.012 -0.0772  0.3251  0.2356
   64MOL    C9935505   5.528   7.126   5.920  0.2532  0.4583  0.6430
   64MOL   O10035506   5.870   6.937   6.016 -0.1731 -0.3272 -0.0477
   64MOL   C10135507   5.970   6.778   5.802 -0.0297  0.1295 -0.4084
   64MOL   C10235508   6.012   6.697   5.693 -0.6987 -0.6469 -0.9658
   64MOL   O10335509   6.120   6.572   5.440  0.3634 -0.6352 -0.0905
   64MOL   H10435510   5.924   6.881   5.438 -1.0185 -2.2197 -0.3644
   64MOL   H10535511   5.853   7.037   5.613  1.5905  0.9882  0.7371
   64MOL   H10635512   5.721   7.067   5.768  1.0317 -1.7229  0.5059
   64MOL   H10735513   5.810   7.201   6.108 -0.0247  2.9101 -1.6156
   64MOL   H10835514   5.642   7.301   6.246  0.4010 -0.7227  0.0662
   64MOL   H10935515   5.284   7.233   6.228  0.3572  0.1694  0.5905
   64MOL   H11035516   5.327   7.166   6.002  0.4128 -4.3707  0.5528
   64MOL   H11135517   5.481   7.076   5.837  0.7338  1.1609 -0.0658
   64MOL   H11235518   5.979   6.744   5.904 -0.2485 -2.0877 -1.0982
   64MOL   H11335519   6.054   6.598   5.706 -0.1796 -0.3038  0.0466
   64MOL   C11435520   5.382   7.354   6.333  0.0799  0.4742 -0.1351
   64MOL   C11535521   5.273   7.343   6.435 -0.5561  0.0609  0.0024
   64MOL   C11635522   5.158   7.257   6.411 -0.6492  0.2309  0.2481
   64MOL   C11735523   5.056   7.246   6.506  0.2963  0.7900 -0.5501
   64MOL   C11835524   5.060   7.322   6.629  0.1390 -0.1766 -0.6533
   64MOL   C11935525   4.951   7.323   6.732  0.3268 -0.5086  0.1303
   64MOL   N12035526   4.826   7.354   6.697  0.3155 -0.3756 -0.2780
   64MOL   C12135527   4.753   7.373   6.575 -0.3118 -0.1173 -0.4046
   64MOL   C12235528   4.631   7.306   6.559 -0.5331 -0.5084  0.8350
   64MOL   C12335529   4.556   7.330   6.446 -0.2193  0.1415  0.2821
   64MOL   C12435530   4.604   7.416   6.345 -0.6536 -0.5812 -0.1217
   64MOL   N12535531   4.525   7.438   6.235  0.2903  0.1534  0.2948
   64MOL   C12635532   4.729   7.478   6.355  0.4096  0.5789  0.0312
   64MOL   C12735533   4.808   7.453   6.469  0.5286  0.0399 -0.0689
   64MOL   O12835534   4.971   7.299   6.852  0.3305  0.2308 -0.4056
   64MOL   C12935535   5.176   7.393   6.654  0.2698  0.3040  0.3037
   64MOL   C13035536   5.279   7.409   6.560 -0.3096 -0.4057  0.7039
   64MOL   O13135537   5.479   7.434   6.343 -0.6263 -0.2801  0.1772
   64MOL   H13235538   5.138   7.201   6.321 -1.1902 -0.1605  0.6021
   64MOL   H13335539   4.966   7.191   6.482  0.3269 -0.1379  1.3797
   64MOL   H13435540   4.767   7.357   6.779 -0.9392  0.1954 -1.1838
   64MOL   H13535541   4.593   7.248   6.642 -0.9074  0.6038  1.4392
   64MOL   H13635542   4.468   7.269   6.434 -1.2213  1.9442 -1.9062
   64MOL   H13735543   4.575   7.468   6.153  2.1023 -0.9247  0.9756
   64MOL   H13835544   4.777   7.544   6.284  0.8491  0.5132  0.2700
   64MOL   H13935545   4.900   7.508   6.478  0.2924  0.5043 -0.4250
   64MOL   H14035546   5.180   7.446   6.748 -0.7351 -0.3204  0.7072
   64MOL   H14135547   5.362   7.472   6.588 -0.1048  0.9653 -2.7275
   64MOL   C14235548   4.390   7.430   6.216  0.0707  0.1901  0.1478
   64MOL   C14335549   4.341   7.444   6.077  0.4004 -0.3897  0.7428
   64MOL   C14435550   4.235   7.531   6.056  0.2121 -0.6398 -0.5562
   64MOL   C14535551   4.169   7.543   5.935  0.2576  0.3340 -0.2870
   64MOL   C14635552   4.214   7.463   5.830  0.5446 -0.2291  0.1024
   64MOL   C14735553   4.156   7.455   5.688  0.5818  0.2705 -0.1586
   64MOL   N14835554   4.020   7.479   5.683 -0.1539 -0.8545  0.3852
   64MOL   C14935555   3.940   7.467   5.572  0.4335 -0.0447  0.4435
   64MOL   C15035556   3.986   7.509   5.443 -0.0111  0.5917 -0.2856
   64MOL   C15135557   3.909   7.487   5.323  0.2562  0.1092 -0.1302
   64MOL   C15235558   3.782   7.424   5.339 -0.7584  0.7241  0.1406
   64MOL   N15335559   3.703   7.392   5.230 -0.6793  0.5822 -0.0100
   64MOL   C15435560   3.736   7.380   5.466 -0.2443 -0.7953 -0.3801
   64MOL   C15535561   3.817   7.401   5.584 -0.3197 -0.1193 -0.1582
   64MOL   O15635562   4.227   7.415   5.592  0.6000 -0.2294 -0.2722
   64MOL   C15735563   4.324   7.378   5.844  0.4999  0.4267  0.6123
   64MOL   C15835564   4.389   7.365   5.973 -0.0302  0.2144  0.0921
   64MOL   O15935565   4.302   7.419   6.309 -0.0802  0.0160 -0.0513
   64MOL   H16035566   4.213   7.593   6.142 -1.1713 -3.6312  1.3593
   64MOL   H16135567   4.093   7.619   5.922  2.1622  2.3388  0.0732
   64MOL   H16235568   3.980   7.494   5.775  0.4765  1.5109  0.3132
   64MOL   H16335569   4.083   7.557   5.434 -0.2351  1.0232 -0.3869
   64MOL   H16435570   3.952   7.522   5.230 -1.0959 -0.6350 -1.0469
   64MOL   H16535571   3.619   7.339   5.251  0.8663 -1.8973  0.1777
   64MOL   H16635572   3.641   7.333   5.484 -1.4519  1.5359 -0.4488
   64MOL   H16735573   3.780   7.371   5.681 -0.0059  1.1219  0.3566
   64MOL   H16835574   4.362   7.320   5.761  0.4567 -0.1797  1.0071
   64MOL   H16935575   4.460   7.284   5.988  1.9305  2.0824  1.0735
   64MOL   C17035576   3.730   7.399   5.098  0.3500  0.1462 -0.6523
   64MOL   C17135577   3.617   7.348   5.012  0.8270 -0.1281  0.0964
   64MOL   C17235578   3.647   7.312   4.879  0.1142 -0.3153 -0.3480
   64MOL   C17335579   3.542   7.261   4.797 -0.5634 -0.4034  0.6593
   64MOL   C17435580   3.411   7.239   4.846  0.0627 -0.2511 -0.8206
   64MOL   C17535581   3.296   7.188   4.767 -0.0660 -0.7386 -0.3369
   64MOL   N17635582   3.322   7.117   4.655  0.0623 -1.1897  0.2608
   64MOL   C17735583   3.235   7.069   4.549 -0.3496 -0.0992  0.0476
   64MOL   C17835584   3.295   6.988   4.447 -0.9070 -0.3442  0.6345
   64MOL   C17935585   3.220   6.935   4.342 -0.4036  0.4469  0.2085
   64MOL   C18035586   3.080   6.944   4.341  0.7017  0.0399  0.9572
   64MOL   N18135587   3.013   6.880   4.240 -0.1551  0.7546  1.1698
   64MOL   C18235588   3.020   7.006   4.447  0.1207  0.4427  0.5307
   64MOL   C18335589   3.093   7.067   4.547  0.2018  0.2838 -0.6083
   64MOL   O18435590   3.182   7.211   4.815  0.7965  0.3917  0.5392
   64MOL   C18535591   3.387   7.280   4.977 -0.0327  0.2826 -0.3000
   64MOL   C18635592   3.486   7.328   5.058  0.3763 -0.3010  0.0814
   64MOL   O18735593   3.838   7.430   5.046  0.3123 -0.2623  0.3054
   64MOL   H18835594   3.746   7.327   4.837  0.6504 -0.6967  0.7408
   64MOL   H18935595   3.567   7.229   4.696 -1.0610 -0.6628  0.6174
   64MOL   H19035596   3.421   7.097   4.650  0.4961  0.7231  0.7213
   64MOL   H19135597   3.400   6.968   4.430 -0.8824 -0.3430  0.7798
   64MOL   H19235598   3.276   6.892   4.260  0.9852  1.0548  0.8336
   64MOL   H19335599   3.058   6.799   4.200 -0.4104  0.5434  1.3117
   64MOL   H19435600   2.912   7.006   4.452 -0.0612  2.2781 -2.2135
   64MOL   H19535601   3.046   7.115   4.632  0.5000 -0.1590 -0.1958
   64MOL   H19635602   3.289   7.259   5.018 -0.2496 -1.1390 -1.4942
   64MOL   H19735603   3.460   7.359   5.158 -2.0612 -0.5115 -0.4609
   64MOL   C19835604   2.887   6.894   4.198 -0.0921  1.1013 -0.3270
   64MOL   C19935605   2.841   6.800   4.089  1.0108  0.5846  0.3874
   64MOL   C20035606   2.704   6.776   4.079  0.4298 -0.4408 -0.3750
   64MOL   C20135607   2.651   6.674   3.991  0.3959 -0.1003 -0.2151
   64MOL   C20235608   2.739   6.599   3.911  0.2654 -0.2010 -0.1628
   64MOL   C20335609   2.688   6.482   3.827  0.3084 -0.4729 -0.8601
   64MOL   N20435610   2.760   6.365   3.838  0.3614 -0.7234  0.1421
   64MOL   C20535611   2.830   6.314   3.950 -0.5276 -0.1354  0.0700
   64MOL   C20635612   2.943   6.233   3.925 -0.2317  0.6420  0.8227
   64MOL   C20735613   3.008   6.180   4.041 -0.1418  0.1212 -0.2349
   64MOL   C20835614   2.969   6.202   4.173 -0.0173  0.3514  0.0525
   64MOL   N20935615   3.037   6.140   4.275 -0.4826  0.2813 -0.3994
   64MOL   C21035616   2.867   6.294   4.196 -0.1572 -0.0076  0.0407
   64MOL   C21135617   2.797   6.347   4.085 -0.1837 -0.4022 -0.1746
   64MOL   O21235618   2.591   6.490   3.756 -0.4974  0.4393 -0.0999
   64MOL   C21335619   2.876   6.637   3.913  0.3052 -0.5104  0.2330
   64MOL   C21435620   2.930   6.737   3.997 -0.1040 -0.1871 -0.2271
   64MOL   O21535621   2.814   6.990   4.228 -0.8599  0.1918  0.0454
   64MOL   H21635622   2.640   6.820   4.154  1.2114 -1.2483  0.7611
   64MOL   H21735623   2.543   6.667   3.989  0.2068  2.0693  0.3713
   64MOL   H21835624   2.746   6.298   3.764  4.7549 -3.5963  1.6788
   64MOL   H21935625   2.966   6.200   3.825 -0.3524  3.2506 -0.1010
   64MOL   H22035626   3.091   6.116   4.017 -0.8716 -1.0609  0.3487
   64MOL   H22135627   3.134   6.120   4.254 -0.7698 -3.0862  1.0864
   64MOL   H22235628   2.824   6.313   4.293 -0.9494  1.6085 -0.6062
   64MOL   H22335629   2.708   6.404   4.107 -0.1024  0.3224 -1.6234
   64MOL   H22435630   2.953   6.591   3.852  1.1281  0.1067  0.7949
   64MOL   H22535631   3.036   6.755   3.998 -0.0975 -0.2281 -0.0994
   64MOL   C22635632   2.990   6.079   4.380 -0.2898 -0.5824  0.8628
   64MOL   C22735633   3.097   6.022   4.467  0.8247  0.6177 -0.0504
   64MOL   C22835634   3.069   5.977   4.598  0.5468 -0.2307  0.8626
   64MOL   C22935635   3.168   5.919   4.679 -0.3709 -0.6565 -0.2498
   64MOL   C23035636   3.303   5.914   4.635 -0.6047  0.1152  0.3629
   64MOL   C23135637   3.412   5.861   4.726 -0.3393 -0.0220  0.5898
   64MOL   N23235638   3.377   5.775   4.822 -1.0305  0.7817 -0.7741
   64MOL   C23335639   3.445   5.741   4.944  0.0480 -0.5224 -0.4587
   64MOL   C23435640   3.521   5.843   5.004  0.5623 -0.7915 -0.2776
   64MOL   C23535641   3.594   5.811   5.126  0.6280 -0.8482  0.9042
   64MOL   C23635642   3.571   5.696   5.196 -0.4195 -0.7633 -0.0838
   64MOL   N23735643   3.629   5.664   5.324 -0.1912 -0.3847 -0.0646
   64MOL   C23835644   3.485   5.597   5.141 -0.4555  0.1841 -0.2558
   64MOL   C23935645   3.426   5.622   5.009 -0.1575 -0.7606 -0.4262
   64MOL   O24035646   3.531   5.898   4.711 -0.3584 -0.4063  0.2122
   64MOL   C24135647   3.332   5.958   4.508 -0.0482  0.3686 -0.2477
   64MOL   C24235648   3.228   6.014   4.428  0.5403  0.7531 -0.5109
   64MOL   O24335649   2.871   6.069   4.412  0.2007  0.3849  0.1507
   64MOL   H24435650   2.972   5.990   4.644  0.6038  0.1401  0.8836
   64MOL   H24535651   3.127   5.896   4.777  1.7680  1.6690  1.2342
   64MOL   H24635652   3.285   5.734   4.819 -1.2179  1.1914 -0.5353
   64MOL   H24735653   3.539   5.940   4.960 -0.4710 -0.0735  0.8425
   64MOL   H24835654   3.651   5.899   5.155  0.7068 -0.2948 -0.8964
   64MOL   H24935655   3.632   5.567   5.354 -0.1152 -0.4362 -0.2394
   64MOL   H25035656   3.470   5.507   5.200 -2.8013  1.0234  0.4566
   64MOL   H25135657   3.351   5.551   4.978 -0.0260  0.1608 -2.9406
   64MOL   H25235658   3.436   5.965   4.477  0.5743 -1.3269  1.3265
   64MOL   H25335659   3.258   6.066   4.338  1.0803  0.9216 -0.2357
   64MOL   C25435660   3.681   5.745   5.415 -0.0039  0.2697 -0.8405
   64MOL   C25535661   3.735   5.680   5.545  0.2593  0.4118  0.0845
   64MOL   C25635662   3.792   5.548   5.541 -0.5524  0.1183  0.5457
   64MOL   C25735663   3.860   5.494   5.649  0.1350 -0.1945 -0.0745
   64MOL   C25835664   3.891   5.569   5.766 -0.3850 -0.3408  0.1467
   64MOL   C25935665   3.966   5.509   5.878  0.0517  0.1178  0.1905
   64MOL   N26035666   3.934   5.546   5.997 -0.8051  0.9533 -0.0463
   64MOL   C26135667   3.994   5.513   6.124 -0.6449  0.4344  0.0531
   64MOL   C26235668   4.012   5.383   6.169  0.2190  0.6146  0.4564
   64MOL   C26335669   4.051   5.356   6.301  0.3427  0.4918 -1.4329
   64MOL   C26435670   4.087   5.462   6.394  0.0741 -0.4405  0.9047
   64MOL   N26535671   4.125   5.425   6.525  0.1477 -0.3420  0.6848
   64MOL   C26635672   4.077   5.597   6.349 -0.5104 -0.5330  0.9066
   64MOL   C26735673   4.031   5.620   6.212 -0.1065  0.3055 -0.9723
   64MOL   O26835674   4.052   5.423   5.858 -0.1780 -0.2920  0.0592
   64MOL   C26935675   3.829   5.696   5.779 -0.5921  0.4804  0.0131
   64MOL   C27035676   3.752   5.747   5.669 -0.0118 -0.2050  0.0732
   64MOL   O27135677   3.668   5.865   5.410  0.4510 -0.2112 -0.5714
   64MOL   H27235678   3.774   5.479   5.460 -3.4838  0.9520  0.4400
   64MOL   H27335679   3.893   5.392   5.635 -2.7311 -1.1210 -0.4484
   64MOL   H27435680   3.855   5.610   5.999 -1.7199 -0.1841  1.7380
   64MOL   H27535681   3.981   5.301   6.105  1.7300 -0.9986  1.7347
   64MOL   H27635682   4.049   5.250   6.320 -1.9670  0.6714 -0.5245
   64MOL   H27735683   4.082   5.346   6.570 -0.6990 -1.3420 -1.7981
   64MOL   H27835684   4.088   5.678   6.420 -1.4448  0.9166 -0.5612
   64MOL   H27935685   4.011   5.718   6.171  0.7358  0.4272 -1.1051
   64MOL   H28035686   3.851   5.755   5.867 -1.0287 -0.3136  0.6670
   64MOL   H28135687   3.708   5.843   5.690  1.5438  0.3623  0.8060
   64MOL   C28235688   4.227   5.488   6.595 -0.7309 -0.5588  0.1278
   64MOL   C28335689   4.260   5.443   6.729 -0.1268  0.8132 -0.7006
   64MOL   C28435690   4.269   5.309   6.774  0.3622  0.1572 -0.1904
   64MOL   C28535691   4.302   5.279   6.907  0.1740  0.4436 -0.0575
   64MOL   C28635692   4.349   5.384   6.995 -0.1210  0.2307  0.2321
   64MOL   C28735693   4.400   5.345   7.131  0.3310  0.4782 -0.0969
   64MOL   N28835694   4.490   5.428   7.188  0.0120  0.0236 -0.0778
   64MOL   C28935695   4.546   5.421   7.325 -0.4719  0.6319 -0.2401
   64MOL   C29035696   4.638   5.314   7.347 -1.1872 -0.1581  0.3548
   64MOL   C29135697   4.704   5.322   7.474 -0.9873  0.7295 -0.0562
   64MOL   C29235698   4.681   5.421   7.566  0.4054  0.0758 -0.1794
   64MOL   N29335699   4.766   5.443   7.678  0.0667  0.2543  0.5638
   64MOL   C29435700   4.587   5.528   7.539 -0.3899  0.1288  0.6414
   64MOL   C29535701   4.519   5.528   7.416  0.1375  1.1534  0.0716
   64MOL   O29635702   4.374   5.239   7.186  0.1522  0.3026  0.7963
   64MOL   C29735703   4.322   5.515   6.961  1.1540 -0.4443 -0.1401
   64MOL   C29835704   4.278   5.543   6.828  0.3200 -0.2182  0.1155
   64MOL   O29935705   4.295   5.577   6.548  0.6846 -0.0283  0.3962
   64MOL   H30035706   4.248   5.231   6.702 -0.5210  0.4955 -0.3077
   64MOL   H30135707   4.306   5.177   6.942  1.4765  0.3167 -0.5463
   64MOL   H30235708   4.511   5.504   7.125 -0.0470 -1.4494 -1.9195
   64MOL   H30335709   4.663   5.239   7.274  1.3416  0.9014  0.0810
   64MOL   H30435710   4.775   5.242   7.490  0.6913  2.1405 -0.2245
   64MOL   H30535711   4.773   5.535   7.719  1.0891  0.8446 -0.8874
   64MOL   H30635712   4.561   5.601   7.613 -0.5416 -0.3498  1.0673
   64MOL   H30735713   4.439   5.596   7.394 -2.9600 -2.3174  0.0435
   64MOL   H30835714   4.342   5.589   7.037  1.2675 -2.0190  1.3964
   64MOL   H30935715   4.265   5.642   6.787  1.7334  0.1630  0.5566
   64MOL   C31035716   4.851   5.351   7.736 -0.1038  0.2080 -0.3466
   64MOL   C31135717   4.954   5.385   7.839  0.7807 -0.2178  0.4061
   64MOL   C31235718   4.920   5.489   7.929  0.0236 -0.2359  0.3096
   64MOL   C31335719   5.013   5.523   8.031  0.5821 -0.5004 -0.3850
   64MOL   C31435720   5.138   5.445   8.046 -0.7174 -0.5467  0.3470
   64MOL   C31535721   5.228   5.473   0.022  0.2052 -1.1100 -0.0456
   64MOL   N31635722   5.255   5.601   0.045 -0.5352  0.1213 -0.1614
   64MOL   C31735723   5.340   5.654   0.138  0.0212  0.2534 -0.0760
   64MOL   C31835724   5.415   5.763   0.096  0.3127 -0.1787  0.8667
   64MOL   C31935725   5.498   5.827   0.188  0.0304 -0.8744  0.3882
   64MOL   C32035726   5.496   5.790   0.325  0.6629 -0.3717  0.6309
   64MOL   N32135727   5.552   5.879   0.421  0.0751  0.2873  0.3728
   64MOL   C32235728   5.424   5.670   0.365 -0.2563 -0.1521  0.8551
   64MOL   C32335729   5.350   5.602   0.265 -0.1396  0.5631 -0.9624
   64MOL   O32435730   5.253   5.378   0.095  0.6452  0.3676  0.2053
   64MOL   C32535731   5.165   5.343   7.950 -0.6169 -0.2042  0.6127
   64MOL   C32635732   5.068   5.308   7.855  0.0484  0.3086 -0.2633
   64MOL   O32735733   4.853   5.236   7.697 -0.6170 -0.5524  0.7691
   64MOL   H32835734   4.820   5.528   7.931 -0.3701 -1.2093 -0.0178
   64MOL   H32935735   4.981   5.599   8.101 -1.2546 -1.6411  0.0495
   64MOL   H33035736   5.229   5.665   8.117 -0.4516  0.7802  0.3738
   64MOL   H33135737   5.416   5.804   8.142  1.7138 -0.4504  0.7548
   64MOL   H33235738   5.562   5.909   0.159 -1.6410  1.1498  2.2318
   64MOL   H33335739   5.518   5.972   0.400  0.4140 -0.1085 -1.9938
   64MOL   H33435740   5.414   5.652   0.471  2.2565  0.4436  1.2103
   64MOL   H33535741   5.287   5.519   0.292  3.3730 -1.6131  0.9236
   64MOL   H33635742   5.254   5.284   7.961 -0.0655  0.4997 -0.0229
   64MOL   H33735743   5.092   5.227   7.788  1.3941  2.2972 -2.2559
   64MOL   C33835744   5.597   5.855   0.543 -0.6176  0.3037  0.3969
   64MOL   C33935745   5.650   5.721   0.577 -0.0099 -0.0450  0.1413
   64MOL   C34035746   5.748   5.659   0.493  0.1293 -0.4393 -0.3896
   64MOL   C34135747   5.797   5.529   0.520 -0.4346  0.2433 -0.1705
   64MOL   C34235748   5.747   5.460   0.635 -0.0284  0.5543 -0.2329
   64MOL   C34335749   5.792   5.324   0.657 -0.3636 -0.3251  0.3767
   64MOL   N34435750   5.793   5.249   0.543  0.0018 -0.5785  0.2721
   64MOL   C34535751   5.819   5.111   0.538 -0.3145 -0.3598  0.5395
   64MOL   C34635752   5.763   5.054   0.419  0.7989  0.0488  0.7805
   64MOL   C34735753   5.786   4.919   0.391 -0.6569  0.1921 -0.1973
   64MOL   C34835754   5.869   4.842   0.476 -0.2605  0.3942  0.1612
   64MOL   N34935755   5.890   4.708   0.437  0.1096  0.2576  0.4150
   64MOL   C35035756   5.918   4.899   0.597 -0.1212  0.0333 -0.6589
   64MOL   C35135757   5.899   5.037   0.626  0.5328  0.6268  0.2853
   64MOL   O35235758   5.796   5.278   0.770  0.6172 -0.6595  0.0247
   64MOL   C35335759   5.653   5.525   0.714  0.4323 -0.0622 -0.0733
   64MOL   C35435760   5.597   5.652   0.688  1.0437  0.0594 -0.1323
   64MOL   O35535761   5.595   5.941   0.635 -0.3235  0.0529 -0.7501
   64MOL   H35635762   5.786   5.711   0.406  0.0328  0.5886  0.1846
   64MOL   H35735763   5.864   5.482   0.449 -2.7602  1.0215 -2.9701
   64MOL   H35835764   5.771   5.295   0.456 -1.5830  0.2295  1.0763
   64MOL   H35935765   5.704   5.107   0.346  3.1971  2.4405  0.5015
   64MOL   H36035766   5.746   4.875   0.301 -2.4720 -0.9405  1.1359
   64MOL   H36135767   5.873   4.686   0.340  1.7220 -0.7148  0.3297
   64MOL   H36235768   5.969   4.836   0.668 -0.5927  1.4501  0.9509
   64MOL   H36335769   5.945   5.085   0.711  0.8742  0.1390  0.3766
   64MOL   H36435770   5.625   5.469   0.801  2.5404  0.2210  0.8288
   64MOL   H36535771   5.524   5.697   0.753  1.2239 -0.4667  0.4407
   64MOL   C36635772   5.897   4.599   0.516  0.3518 -0.0985 -0.4315
   64MOL   C36735773   5.895   4.469   0.438 -0.2395 -0.9955  0.2301
   64MOL   C36835774   5.832   4.356   0.497 -0.0686 -0.0887 -0.6056
   64MOL   C36935775   5.811   4.243   0.423 -0.1934  1.0580  1.0017
   64MOL   C37035776   5.861   4.232   0.287  0.3750 -0.2208 -0.0671
   64MOL   C37135777   5.811   4.123   0.196 -0.1319  0.0103 -0.3439
   64MOL   N37235778   5.689   4.090   0.229  0.0224  0.0778 -0.5558
   64MOL   C37335779   5.581   4.041   0.150  1.1709  0.7731 -0.2769
   64MOL   C37435780   5.448   4.076   0.198 -0.7159  0.2596 -0.2133
   64MOL   C37535781   5.329   4.031   0.125  0.1783 -1.1495 -0.2523
   64MOL   C37635782   5.352   3.972   8.144 -0.3010  0.0529 -0.0246
   64MOL   N37735783   5.238   3.939   8.066 -0.0556  0.2398 -0.5935
   64MOL   C37835784   5.480   3.951   8.099 -0.6115 -0.3812 -0.1818
   64MOL   C37935785   5.594   3.985   0.025 -0.0672  0.2249  0.9795
   64MOL   O38035786   5.877   4.085   0.100  0.0493 -0.6216  0.4972
   64MOL   C38135787   5.933   4.339   0.231  0.3991  0.2104 -0.6956
   64MOL   C38235788   5.953   4.457   0.308  0.0560  0.1677  0.2536
   64MOL   O38335789   5.895   4.601   0.640  0.5752  0.8303 -0.1190
   64MOL   H38435790   5.790   4.365   0.596  2.5786  2.2577  0.3691
   64MOL   H38535791   5.746   4.169   0.466  0.9050 -0.6797 -0.2881
   64MOL   H38635792   5.673   4.131   0.320  1.9572 -0.4717  0.0592
   64MOL   H38735793   5.440   4.133   0.290  0.8628 -0.2909  0.2803
   64MOL   H38835794   5.230   4.045   0.165  0.3081 -2.4815  0.5709
   64MOL   H38935795   5.155   3.981   8.105  0.2497  0.6203 -0.3477
   64MOL   H39035796   5.498   3.906   8.002 -0.4794  0.0386 -0.3508
   64MOL   H39135797   5.692   3.966   8.129  0.3001  0.0662  1.8978
   64MOL   H39235798   5.962   4.333   0.127 -1.3489  0.1947 -1.1956
   64MOL   H39335799   5.996   4.547   0.268  2.9691 -0.6724  1.3446
   64MOL   C39435800   5.214   3.863   7.958 -0.1808  0.8555  0.3930
   64MOL   C39535801   5.068   3.831   7.924 -0.4865 -0.3080 -0.2027
   64MOL   C39635802   4.964   3.843   8.023  0.1238 -0.5500  0.2654
   64MOL   C39735803   4.835   3.821   7.985 -0.5920  0.4796 -0.0043
   64MOL   C39835804   4.803   3.784   7.853 -0.2070 -0.2929  0.0408
   64MOL   C39935805   4.658   3.780   7.810  0.2342 -0.0713 -0.5436
   64MOL   N40035806   4.640   3.784   7.675  0.1718 -0.1508  0.5609
   64MOL   C40135807   4.517   3.772   7.612  0.6913  0.1056  0.4072
   64MOL   C40235808   4.401   3.713   7.667  0.6480  0.4774  0.1091
   64MOL   C40335809   4.281   3.706   7.596  0.1587 -0.1670  0.1749
   64MOL   C40435810   4.279   3.757   7.463  0.6747  0.1340 -0.4240
   64MOL   N40535811   4.172   3.749   7.369 -0.4935 -0.9985 -0.1783
   64MOL   C40635812   4.397   3.810   7.402  0.0436  1.0820 -0.4427
   64MOL   C40735813   4.514   3.815   7.476  0.0273 -0.5799  0.1507
   64MOL   O40835814   4.568   3.795   7.893  0.0837  0.0823 -0.6766
   64MOL   C40935815   4.907   3.762   7.762  0.6080  0.0422  0.6557
   64MOL   C41035816   5.036   3.787   7.796  0.0438 -0.8344  0.8300
   64MOL   O41135817   5.303   3.816   7.886  0.7495 -0.6507 -0.7632
   64MOL   H41235818   4.982   3.883   8.122 -1.3330 -1.9456  1.1246
   64MOL   H41335819   4.757   3.862   8.048 -0.5062  0.4152  0.1427
   64MOL   H41435820   4.722   3.785   7.617  0.1705 -0.0165  0.5614
   64MOL   H41535821   4.397   3.670   7.765 -1.3279  1.2808  0.4066
   64MOL   H41635822   4.192   3.673   7.646  0.3097  0.1678  0.6653
   64MOL   H41735823   4.189   3.787   7.277 -2.8110 -2.3213 -1.1787
   64MOL   H41835824   4.400   3.852   7.303  2.1645  1.0129 -0.4450
   64MOL   H41935825   4.601   3.860   7.430 -1.4337  0.6051 -1.5121
   64MOL   H42035826   4.883   3.712   7.669  0.4187  0.9039  0.2378
   64MOL   H42135827   5.109   3.778   7.716  0.5569  0.4881  1.1321
   64MOL   C42235828   4.064   3.667   7.376 -0.5506 -0.1937  0.0246
   64MOL   C42335829   3.987   3.637   7.247  0.2834  1.1337 -0.4948
   64MOL   C42435830   3.854   3.584   7.252 -0.6496 -0.0892 -0.5716
   64MOL   C42535831   3.786   3.548   7.138  0.7816  0.2780  0.1568
   64MOL   C42635832   3.842   3.577   7.012  0.3910 -0.1413 -0.6696
   64MOL   C42735833   3.777   3.540   6.884 -0.1218  0.2018 -0.5815
   64MOL   N42835834   3.834   3.593   6.773 -0.1040  0.5742 -0.3408
   64MOL   C42935835   3.799   3.567   6.637 -0.3004 -0.1893 -0.3340
   64MOL   C43035836   3.754   3.439   6.602 -0.0595 -0.3714 -0.1552
   64MOL   C43135837   3.736   3.403   6.469  0.3618 -0.5417  0.2876
   64MOL   C43235838   3.743   3.495   6.364  0.1632  0.7033  0.1849
   64MOL   N43335839   3.706   3.454   6.236 -0.5808  0.0971 -0.3855
   64MOL   C43435840   3.803   3.619   6.398 -0.2489  0.7798 -0.5770
   64MOL   C43535841   3.834   3.650   6.532 -0.5899  0.7455  0.5380
   64MOL   O43635842   3.680   3.465   6.887 -0.0119 -0.0509  0.1837
   64MOL   C43735843   3.979   3.610   7.006 -0.4250  0.6564 -0.6105
   64MOL   C43835844   4.050   3.644   7.121  0.5947 -0.0093 -0.0522
   64MOL   O43935845   4.013   3.632   7.483 -0.3033 -0.1357 -0.1558
   64MOL   H44035846   3.811   3.573   7.350 -1.0898  1.8791 -0.5162
   64MOL   H44135847   3.687   3.508   7.150  1.2266 -0.7264  0.5101
   64MOL   H44235848   3.909   3.660   6.779  1.2933 -0.9642 -0.1682
   64MOL   H44335849   3.756   3.361   6.677  0.6067  0.7133  0.9724
   64MOL   H44435850   3.707   3.302   6.445  0.1535 -1.1591  2.9427
   64MOL   H44535851   3.682   3.356   6.227 -3.6335  0.7841 -0.4440
   64MOL   H44635852   3.824   3.692   6.321 -1.0909  0.5244 -1.0543
   64MOL   H44735853   3.880   3.745   6.557 -0.5305  0.6781  0.6831
   64MOL   H44835854   4.028   3.617   6.910 -0.6515 -0.2674 -0.7978
   64MOL   H44935855   4.147   3.691   7.115  1.1968 -1.2505 -0.2017
   64MOL   C45035856   3.662   3.523   6.132  0.4274  0.0880 -0.2828
   64MOL   C45135857   3.538   3.462   6.063  0.6518  0.4942 -0.0737
   64MOL   C45235858   3.515   3.473   5.927 -0.0579  0.5396  0.1186
   64MOL   C45335859   3.407   3.410   5.872 -0.1700  0.3192  0.1589
   64MOL   C45435860   3.313   3.337   5.948  0.4630  0.0680  0.5517
   64MOL   C45535861   3.201   3.263   5.879  0.0814 -0.4070  0.6868
   64MOL   N45635862   3.098   3.226   5.963 -0.1871  0.3121 -0.1489
   64MOL   C45735863   2.984   3.147   5.939  0.4292  0.2428 -0.0254
   64MOL   C45835864   2.957   3.089   5.810 -0.1639  0.7475 -0.2210
   64MOL   C45935865   2.840   3.014   5.792  0.3480 -0.5241 -0.0866
   64MOL   C46035866   2.752   2.982   5.905 -1.0394 -0.0318  0.2963
   64MOL   N46135867   2.641   2.894   5.871 -0.1169 -0.3855  0.6671
   64MOL   C46235868   2.779   3.040   6.033 -0.4272 -0.0644  0.1943
   64MOL   C46335869   2.893   3.126   6.047 -0.0679  0.7711 -1.0062
   64MOL   O46435870   3.201   3.239   5.760  0.0489  0.7291 -0.6751
   64MOL   C46535871   3.343   3.314   6.087 -0.5980 -0.2535 -1.2481
   64MOL   C46635872   3.447   3.382   6.139 -0.3769  0.1964 -0.0320
   64MOL   O46735873   3.698   3.640   6.100 -0.0516  0.1506 -0.0274
   64MOL   H46835874   3.580   3.524   5.857 -1.9360  1.3227 -1.0623
   64MOL   H46935875   3.384   3.417   5.767 -0.9004  4.5485  0.5245
   64MOL   H47035876   3.116   3.261   6.056  3.4031 -2.3152  0.2234
   64MOL   H47135877   3.025   3.088   5.727  1.1322 -0.8660  0.8179
   64MOL   H47235878   2.836   2.979   5.690 -1.7777  0.9449 -0.5302
   64MOL   H47335879   2.656   2.824   5.800  1.6474  0.6297  0.0098
   64MOL   H47435880   2.704   3.016   6.107 -1.1532  1.0537 -0.1542
   64MOL   H47535881   2.911   3.175   6.141 -1.4072 -0.0023 -0.3270
   64MOL   H47635882   3.291   3.245   6.151  1.8227 -1.3053 -0.3462
   64MOL   H47735883   3.462   3.359   6.244 -0.4371  2.5268  0.5238
   64MOL   C47835884   2.538   2.853   5.944  0.2910  0.2330  0.3423
   64MOL   C47935885   2.500   2.709   5.925 -0.4212  0.5659  0.5135
   64MOL   C48035886   2.594   2.605   5.937 -0.1520 -0.0061 -0.3290
   64MOL   C48135887   2.555   2.470   5.956  0.2163 -0.0636 -0.3479
   64MOL   C48235888   2.416   2.443   5.955  1.3473  0.7142  0.3147
   64MOL   C48335889   2.364   2.303   5.959 -0.1748 -0.3603 -0.2343
   64MOL   N48435890   2.447   2.219   6.022  0.2158  0.8301 -0.0928
   64MOL   C48535891   2.427   2.083   6.050  0.2112 -0.0256  0.2275
   64MOL   C48635892   2.506   2.023   6.152  0.0325  0.7525 -0.7347
   64MOL   C48735893   2.495   1.887   6.185 -0.7125  0.1719  0.0897
   64MOL   C48835894   2.390   1.809   6.120 -0.1303  0.0557  0.5228
   64MOL   N48935895   2.397   1.675   6.147 -0.2865 -0.2282  0.5274
   64MOL   C49035896   2.307   1.865   6.025  0.0545 -0.3449 -0.3160
   64MOL   C49135897   2.326   2.003   5.990  0.3041  0.1504 -0.3045
   64MOL   O49235898   2.258   2.270   5.910  0.0423  0.0307  0.1184
   64MOL   C49335899   2.328   2.546   5.933  0.2355  0.2220  0.0828
   64MOL   C49435900   2.368   2.677   5.926  0.0709 -0.3498  0.2474
   64MOL   O49535901   2.467   2.930   6.010  0.0255  0.0228  0.6771
   64MOL   H49635902   2.699   2.629   5.942  0.0467 -0.9192 -0.0535
   64MOL   H49735903   2.628   2.391   5.971  0.0863 -0.2167 -0.5080
   64MOL   H49835904   2.531   2.256   6.065 -0.3913  0.6727  1.2529
   64MOL   H49935905   2.574   2.089   6.203 -2.0638  2.4729 -0.0469
   64MOL   H50035906   2.565   1.846   6.256  0.9369 -0.4143 -1.8239
   64MOL   H50135907   2.360   1.614   6.075  0.0947 -1.8069  1.6359
   64MOL   H50235908   2.234   1.795   5.988 -0.7990  1.7839 -2.7849
   64MOL   H50335909   2.246   2.049   5.935 -0.1881  0.7197  0.8595
   64MOL   H50435910   2.221   2.533   5.930  0.5062 -1.7379 -1.6514
   64MOL   H50535911   2.299   2.757   5.905 -0.6577 -0.8420  0.7638
   64MOL   C50635912   2.433   1.598   6.250 -0.4265  0.5658  0.1082
   64MOL   C50735913   2.418   1.451   6.217 -0.1214 -0.4484 -0.3912
   64MOL   C50835914   2.357   1.359   6.306 -0.1801 -0.0735  1.0692
   64MOL   C50935915   2.345   1.228   6.252  0.5324 -0.5423 -0.4981
   64MOL   C51035916   2.409   1.182   6.141  0.0845  0.0620  0.0359
   64MOL   C51135917   2.387   1.041   6.094 -0.9799 -0.1034  0.1018
   64MOL   N51235918   2.480   0.979   6.016  0.7101  0.3243  0.4284
   64MOL   C51335919   2.469   0.848   5.955  0.2316  0.6142 -0.2628
   64MOL   C51435920   2.342   0.797   5.915  0.1916  0.0343  0.5772
   64MOL   C51535921   2.333   0.665   5.864  0.2133  0.8269 -0.0906
   64MOL   C51635922   2.447   0.581   5.850  0.0372 -0.5560 -0.4771
   64MOL   N51735923   2.449   0.452   5.796 -0.6181 -0.5753  0.2287
   64MOL   C51835924   2.579   0.634   5.884 -0.4665 -0.6491  0.8463
   64MOL   C51935925   2.584   0.765   5.941  0.1972 -0.1868 -0.4598
   64MOL   O52035926   2.303   0.969   6.140  0.5147 -0.0960 -0.0668
   64MOL   C52135927   2.476   1.269   6.059 -0.1024 -0.0791  0.8243
   64MOL   C52235928   2.475   1.400   6.094  1.0094  0.0314 -0.2448
   64MOL   O52335929   2.444   1.635   6.363 -0.1105  0.3004 -0.0476
   64MOL   H52435930   2.308   1.383   6.399 -2.5025  2.9554 -0.8035
   64MOL   H52535931   2.297   1.158   6.319 -2.2758 -0.0294 -1.8895
   64MOL   H52635932   2.565   1.031   5.997  0.0860  1.7069  1.3508
   64MOL   H52735933   2.258   0.864   5.920 -0.1870 -0.2205 -1.5130
   64MOL   H52835934   2.238   0.623   5.837  0.7432 -1.5487  1.5479
   64MOL   H52935935   2.541   0.415   5.777 -0.8494 -1.3689  0.6508
   64MOL   H53035936   2.668   0.576   5.863 -0.5820  0.0087 -1.5990
   64MOL   H53135937   2.676   0.814   5.972  0.1209  1.0505 -2.1225
   64MOL   H53235938   2.532   1.241   5.972  0.4459  0.1859  1.0890
   64MOL   H53335939   2.530   1.465   6.028  2.9151 -1.2371  0.0713
   64MOL   C53435940   2.344   0.368   5.778 -0.2384  1.0955 -0.2025
   64MOL   C53535941   2.381   0.236   5.725  0.4046  0.1341 -0.4797
   64MOL   C53635942   2.501   0.206   5.652  0.5230  0.3191  0.0352
   64MOL   C53735943   2.533   0.077   5.606  0.2871  0.6143  0.6834
   64MOL   C53835944   2.439   8.119   5.630 -0.2721 -0.8324  0.0296
   64MOL   C53935945   2.465   7.983   5.578 -0.6010  0.5963 -0.1168
   64MOL   N54035946   2.355   7.937   5.515  0.1045 -0.2253  0.9220
   64MOL   C54135947   2.356   7.816   5.434 -0.4990  0.8482 -0.7055
   64MOL   C54235948   2.242   7.737   5.440 -0.3196  1.4115 -0.1855
   64MOL   C54335949   2.221   7.638   5.345  0.3892 -0.9104  0.1423
   64MOL   C54435950   2.314   7.608   5.251  0.2155 -0.2724  0.1056
   64MOL   N54535951   2.292   7.505   5.158 -0.1704  0.5949  0.2389
   64MOL   C54635952   2.438   7.680   5.246 -0.3166 -0.4931  0.3841
   64MOL   C54735953   2.457   7.784   5.339  0.3587  0.1382  0.1885
   64MOL   O54835954   2.572   7.932   5.583 -0.1465 -0.1181 -0.3246
   64MOL   C54935955   2.321   8.141   5.700 -0.0556 -0.7575  0.2266
   64MOL   C55035956   2.294   0.128   5.746 -0.3675  0.7701 -0.5623
   64MOL   O55135957   2.223   0.388   5.800 -0.0236 -0.8098  0.1609
   64MOL   H55235958   2.564   0.290   5.629 -0.8284  1.7574  1.4652
   64MOL   H55335959   2.629   0.059   5.561 -0.4798  0.5036 -0.9564
   64MOL   H55435960   2.264   7.979   5.516 -0.0416 -0.2288 -3.1716
   64MOL   H55535961   2.165   7.758   5.514 -1.6000  1.5418 -1.5297
   64MOL   H55635962   2.132   7.578   5.355 -1.2269  1.5094  0.5495
   64MOL   H55735963   2.200   7.486   5.121  1.9311 -2.2965 -3.9906
   64MOL   H55835964   2.516   7.667   5.172 -0.7571 -0.2954 -0.1226
   64MOL   H55935965   2.556   7.828   5.334  0.7915 -0.8824 -0.4884
   64MOL   H56035966   2.257   8.056   5.721  1.1013 -1.4764  0.9198
   64MOL   H56135967   2.202   0.153   5.798 -1.0496 -0.9419 -0.8899
   64MOL   H56235968   2.363   7.482   5.089 -1.3421  1.4929 -1.2930
   65MOL     C135969   6.701   1.067   5.895  0.3093 -0.1130  0.1837
   65MOL     C235970   6.773   1.131   5.783  0.4307  0.0254 -0.0102
   65MOL     C335971   6.768   1.269   5.767  0.3573 -0.3843  0.1760
   65MOL     C435972   6.846   1.343   5.676  0.1474  0.3923 -0.0306
   65MOL     C535973   6.940   1.264   5.594 -0.2798 -0.2962 -0.8859
   65MOL     C635974   7.036   1.334   5.501  0.2412  0.1709 -0.6636
   65MOL     N735975   7.089   1.259   5.397 -0.1124  0.4165 -0.9747
   65MOL     C835976   7.195   1.287   5.309 -0.4310 -0.5316 -0.2798
   65MOL     C935977   7.300   1.374   5.340 -0.3256 -0.0181 -0.6717
   65MOL    C1035978   7.403   1.400   5.248 -0.7732  1.5465 -0.0531
   65MOL    C1135979   7.406   1.336   5.122 -0.5280  0.1341  0.6111
   65MOL    N1235980   7.495   1.381   5.021 -0.4387 -0.5045  1.0932
   65MOL    C1335981   7.307   1.239   5.096  0.2803  0.2222 -0.2516
   65MOL    C1435982   7.204   1.217   5.185  0.5968  0.1319  0.0210
   65MOL    O1535983   7.050   1.453   5.508 -0.2027  0.1511 -0.0515
   65MOL    C1635984   6.961   1.127   5.623  0.1967  0.4418 -0.1424
   65MOL    C1735985   6.876   1.062   5.719  0.0593  0.7443  0.1907
   65MOL    O1835986   6.704   0.942   5.924 -0.0921  0.1499 -0.2278
   65MOL    H1935987   6.700   1.331   5.823 -0.0056 -1.2576  0.6987
   65MOL    H2035988   6.828   1.449   5.661  1.0076  0.6922  1.0020
   65MOL    H2135989   7.048   1.168   5.382 -2.2150  1.0922  0.5277
   65MOL    H2235990   7.320   1.419   5.437  3.4101 -0.4925 -1.1651
   65MOL    H2335991   7.474   1.477   5.274 -0.4290  1.3923 -0.5320
   65MOL    H2435992   7.475   1.470   4.977  0.8197 -0.7589 -0.0112
   65MOL    H2535993   7.312   1.187   5.001 -3.2289 -2.3350  0.8707
   65MOL    H2635994   7.119   1.158   5.156 -0.0187  1.6683 -1.3707
   65MOL    H2735995   7.040   1.072   5.574 -0.2530 -0.6369  0.3426
   65MOL    H2835996   6.898   0.960   5.745  0.4095  0.2633 -1.8894
   65MOL    H2935997   6.643   1.130   5.963 -2.2261 -2.3866  0.2187
   65MOL    C3035998   7.595   1.310   4.967  0.1562 -0.1713  0.0625
   65MOL    C3135999   7.664   1.372   4.857 -1.1653  0.4274 -0.0668
   65MOL    C3236000   7.687   1.515   4.859 -0.2720  0.0380  0.2669
   65MOL    C3336001   7.737   1.584   4.752  0.0448  0.3913  0.3737
   65MOL    C3436002   7.772   1.507   4.636  0.3913  0.1818 -0.2476
   65MOL    C3536003   7.805   1.582   4.513 -0.2937  0.2364  0.3088
   65MOL    N3636004   7.931   1.555   4.472 -0.1450  0.2899 -0.2559
   65MOL    C3736005   8.006   1.623   4.367  0.5726  0.1134 -1.0811
   65MOL    C3836006   8.129   1.562   4.343  0.3316  0.1629 -0.2832
   65MOL    C3936007   0.072   1.619   4.249  0.2312  0.0295 -0.0757
   65MOL    C4036008   0.043   1.739   4.183  0.2271  0.2157  0.4128
   65MOL    N4136009   0.129   1.815   4.093 -0.4010  0.0019 -0.7597
   65MOL    C4236010   8.070   1.804   4.221 -0.6942 -0.2159  0.5127
   65MOL    C4336011   7.972   1.742   4.296  0.0381  0.1494 -0.4228
   65MOL    O4436012   7.723   1.649   4.454  0.8994  0.7556 -0.0848
   65MOL    C4536013   7.766   1.366   4.636  0.0874 -0.2987  0.1362
   65MOL    C4636014   7.711   1.297   4.750 -0.2646 -0.2965 -0.7579
   65MOL    O4736015   7.621   1.193   4.996 -0.1047  0.4347 -0.1010
   65MOL    H4836016   7.656   1.575   4.943  1.2291  1.4484 -0.1735
   65MOL    H4936017   7.749   1.691   4.752  0.9273  0.2974  0.1668
   65MOL    H5036018   7.977   1.491   4.535  0.0980  1.8512  1.2047
   65MOL    H5136019   0.012   1.474   4.399  0.7222  0.4184 -0.0785
   65MOL    H5236020   0.161   1.560   4.237 -2.6068 -4.1121 -1.8368
   65MOL    H5336021   0.114   1.915   4.085 -1.4683  0.0284  1.2272
   65MOL    H5436022   8.071   1.910   4.200 -0.7779 -0.6155 -1.6351
   65MOL    H5536023   7.885   1.803   4.312  0.1686  0.4294 -0.7775
   65MOL    H5636024   7.796   1.306   4.552  0.4648  1.9158 -1.3422
   65MOL    H5736025   7.699   1.189   4.756  1.1399 -0.3689  1.2617
   65MOL    C5836026   0.238   1.757   4.033  0.5096  0.4649 -0.4979
   65MOL    C5936027   0.323   1.854   3.957 -0.6658  0.3681  0.0811
   65MOL    C6036028   0.264   1.955   3.884  0.2433 -0.1738  0.5816
   65MOL    C6136029   0.344   2.034   3.795 -0.6524  0.7440 -0.6689
   65MOL    C6236030   0.479   2.002   3.764 -0.5968  0.0754  0.0362
   65MOL    C6336031   0.554   2.071   3.652 -0.1092  0.4158  0.3646
   65MOL    N6436032   0.676   2.024   3.615  0.0920 -0.0158 -0.3071
   65MOL    C6536033   0.766   2.083   3.527 -0.0736  0.0551 -0.0881
   65MOL    C6636034   0.716   2.152   3.412  0.1333 -0.1627  0.1821
   65MOL    C6736035   0.794   2.206   3.311 -0.3823 -0.0173 -0.1683
   65MOL    C6836036   0.936   2.188   3.331 -0.1111 -0.1218 -0.2039
   65MOL    N6936037   1.021   2.246   3.238 -0.2650  0.1918  0.4398
   65MOL    C7036038   0.983   2.119   3.444 -0.1096 -0.3499  0.0873
   65MOL    C7136039   0.903   2.074   3.546 -0.0964  0.1409  0.2643
   65MOL    O7236040   0.507   2.173   3.618  0.2477  0.1744 -0.4057
   65MOL    C7336041   0.538   1.911   3.855  1.1689  0.0175 -0.1254
   65MOL    C7436042   0.459   1.827   3.942  0.3389 -0.1445  0.2909
   65MOL    O7536043   0.267   1.640   4.046  0.3264  0.1881 -0.4680
   65MOL    H7636044   0.160   1.979   3.900  0.0607 -0.9359  0.5793
   65MOL    H7736045   0.283   2.102   3.738  1.4725  3.5217  0.2112
   65MOL    H7836046   0.708   1.942   3.665  0.2528  0.4082  0.2892
   65MOL    H7936047   0.612   2.178   3.399  0.4221 -0.3531 -2.9067
   65MOL    H8036048   0.762   2.261   3.224 -0.4019  0.2015 -0.0241
   65MOL    H8136049   0.964   2.310   3.184  0.5775 -0.9644 -1.9205
   65MOL    H8236050   1.089   2.112   3.461 -0.7268  0.1517  4.9518
   65MOL    H8336051   0.954   2.029   3.630  2.8243  0.3164 -1.3397
   65MOL    H8436052   0.642   1.884   3.852  1.2909  0.6002 -1.5005
   65MOL    H8536053   0.511   1.756   4.004 -1.6950 -1.9537 -0.0430
   65MOL    C8636054   1.148   2.224   3.204  0.3361 -0.0925  0.1205
   65MOL    C8736055   1.192   2.329   3.106 -0.7566  0.1516  0.6502
   65MOL    C8836056   1.313   2.397   3.126  0.5538 -0.0218  0.9104
   65MOL    C8936057   1.357   2.504   3.047  0.5661 -0.0420 -0.0335
   65MOL    C9036058   1.277   2.545   2.938  0.3503  0.6216  0.5515
   65MOL    C9136059   1.309   2.665   2.853  0.7526  0.0055  0.1481
   65MOL    N9236060   1.257   2.659   2.725 -0.4314  0.6020  0.4801
   65MOL    C9336061   1.242   2.760   2.622  0.4622  0.4863  0.0493
   65MOL    C9436062   1.308   2.883   2.621 -0.5749  0.0489  0.3286
   65MOL    C9536063   1.282   2.977   2.520 -0.1208  0.5447  0.0024
   65MOL    C9636064   1.189   2.951   2.421  0.2958  0.3078 -0.7117
   65MOL    N9736065   1.185   3.053   2.322 -0.1823 -0.4167  0.6502
   65MOL    C9836066   1.120   2.825   2.417  0.3996 -0.4168 -0.1408
   65MOL    C9936067   1.144   2.735   2.521  0.4661 -0.4582 -0.0181
   65MOL   O10036068   1.374   2.760   2.900 -0.3185  0.6375 -0.0060
   65MOL   C10136069   1.163   2.469   2.909 -0.2120  0.1357  0.0010
   65MOL   C10236070   1.116   2.367   2.992 -0.7331  0.3718  1.0000
   65MOL   O10336071   1.228   2.148   3.256  0.0362 -0.2060 -0.0263
   65MOL   H10436072   1.351   2.349   3.215  0.1959 -0.4738  0.8202
   65MOL   H10536073   1.452   2.550   3.068  1.3448  0.0354 -3.5071
   65MOL   H10636074   1.200   2.578   2.708 -0.8771  0.9663  0.2529
   65MOL   H10736075   1.378   2.905   2.701  0.1493 -0.9014 -0.0402
   65MOL   H10836076   1.344   3.066   2.526  2.3068 -1.1214  0.6809
   65MOL   H10936077   1.261   3.120   2.321 -0.0053 -0.6164 -0.8367
   65MOL   H11036078   1.066   2.787   2.331  1.0227 -1.6527 -0.0033
   65MOL   H11136079   1.089   2.642   2.521 -0.0653 -0.1582 -1.4375
   65MOL   H11236080   1.103   2.495   2.823  0.2569  0.9009 -0.1005
   65MOL   H11336081   1.021   2.321   2.968  0.6696 -0.7369 -2.8743
   65MOL   C11436082   1.095   3.088   2.230  0.8823 -0.2942  0.0846
   65MOL   C11536083   1.130   3.210   2.145 -0.5367 -0.2236 -0.1784
   65MOL   C11636084   1.198   3.322   2.196 -0.4015  0.0409 -0.4819
   65MOL   C11736085   1.235   3.436   2.112  0.4263 -0.4142 -0.1870
   65MOL   C11836086   1.195   3.441   1.978 -0.0607  0.1114  0.1379
   65MOL   C11936087   1.204   3.564   1.896  0.2955 -0.3078  1.0052
   65MOL   N12036088   1.251   3.545   1.772  0.4647  0.5496  0.1690
   65MOL   C12136089   1.249   3.631   1.655  0.3649  0.2135  0.0266
   65MOL   C12236090   1.144   3.719   1.630 -0.5489  0.3505 -0.3076
   65MOL   C12336091   1.139   3.797   1.519 -0.0140 -0.1790  0.4068
   65MOL   C12436092   1.242   3.784   1.420  0.0943  0.6945 -0.8340
   65MOL   N12536093   1.236   3.855   1.302  0.2015  0.4342  0.4237
   65MOL   C12636094   1.353   3.697   1.445 -0.1681  0.5870 -0.5252
   65MOL   C12736095   1.357   3.626   1.566 -0.1163 -0.3653 -0.0507
   65MOL   O12836096   1.176   3.678   1.936  0.7986 -0.2524 -0.5177
   65MOL   C12936097   1.132   3.328   1.930  0.3989  0.3542 -0.4094
   65MOL   C13036098   1.099   3.213   2.008  0.4520 -0.3691 -0.0463
   65MOL   O13136099   0.990   3.024   2.216 -0.2604 -0.2841  0.3282
   65MOL   H13236100   1.222   3.316   2.301 -1.7179  1.9693 -0.0440
   65MOL   H13336101   1.294   3.513   2.160 -0.0464 -0.2316  0.1070
   65MOL   H13436102   1.299   3.456   1.767 -1.4005 -0.6300  2.4607
   65MOL   H13536103   1.066   3.733   1.703 -0.4953  1.4996 -0.4729
   65MOL   H13636104   1.054   3.861   1.504 -0.8512 -1.3942 -0.1081
   65MOL   H13736105   1.274   3.948   1.305  4.0626 -1.0593  0.6553
   65MOL   H13836106   1.437   3.695   1.376  0.3899  0.2668  0.1638
   65MOL   H13936107   1.448   3.571   1.585  1.2635  1.9874  0.3738
   65MOL   H14036108   1.090   3.320   1.831 -2.0218  0.5466  0.5537
   65MOL   H14136109   1.046   3.134   1.957  0.1354 -0.7670  0.9022
   65MOL   C14236110   1.180   3.807   1.188 -0.2796 -0.0495 -0.5785
   65MOL   C14336111   1.099   3.682   1.199  0.1486 -0.2468 -0.2232
   65MOL   C14436112   0.961   3.692   1.226 -0.2426 -1.2108 -0.5404
   65MOL   C14536113   0.896   3.578   1.275  0.1728  0.1583  0.2721
   65MOL   C14636114   0.966   3.464   1.310  0.1009  0.1421  0.5257
   65MOL   C14736115   0.900   3.349   1.383  0.0714 -0.0990  0.1048
   65MOL   N14836116   0.975   3.278   1.469  0.1140  0.4436 -0.5044
   65MOL   C14936117   0.931   3.187   1.571  0.0558 -0.0471  0.2725
   65MOL   C15036118   0.817   3.220   1.641 -0.1392  0.9120  0.3463
   65MOL   C15136119   0.786   3.138   1.752  0.3029  0.4880  1.0312
   65MOL   C15236120   0.866   3.024   1.790 -0.7625 -0.2545 -0.9673
   65MOL   N15336121   0.818   2.951   1.894  0.1946  0.1390  0.1787
   65MOL   C15436122   0.990   3.006   1.720 -0.7122  0.2125  0.3180
   65MOL   C15536123   1.021   3.087   1.613  0.3288  0.2123 -0.1148
   65MOL   O15636124   0.781   3.328   1.362  0.2685  0.3852 -0.5317
   65MOL   C15736125   1.100   3.452   1.278  0.2955  0.1060 -0.6369
   65MOL   C15836126   1.168   3.559   1.214 -0.5178 -0.7140 -0.1750
   65MOL   O15936127   1.179   3.876   1.087  0.1792 -0.0928 -0.2988
   65MOL   H16036128   0.901   3.781   1.217 -1.4879 -2.2651 -3.1021
   65MOL   H16136129   0.793   3.573   1.304  0.1124 -1.7376 -0.1775
   65MOL   H16236130   1.074   3.295   1.459 -0.1146  1.4261 -1.1378
   65MOL   H16336131   0.765   3.309   1.607  0.3739  1.0449 -0.0902
   65MOL   H16436132   0.692   3.156   1.801 -0.6107 -0.5982 -0.2688
   65MOL   H16536133   0.720   2.971   1.909  0.3317  0.4783  0.6327
   65MOL   H16636134   1.056   2.923   1.741  0.1367  1.5936  3.3102
   65MOL   H16736135   1.112   3.078   1.554 -1.5750 -1.6820 -2.9092
   65MOL   H16836136   1.161   3.364   1.289 -1.3250 -0.6402  2.8422
   65MOL   H16936137   1.273   3.547   1.192  0.1797  0.5200  2.2800
   65MOL   C17036138   0.867   2.837   1.944  0.1424  0.2744 -0.0820
   65MOL   C17136139   0.773   2.768   2.039 -0.7880  0.6194 -1.0273
   65MOL   C17236140   0.633   2.792   2.033  0.2075 -0.3371  0.0880
   65MOL   C17336141   0.550   2.735   2.127 -0.1892  0.4832  0.4419
   65MOL   C17436142   0.602   2.648   2.226  0.2121 -0.0318  0.2345
   65MOL   C17536143   0.505   2.586   2.325  0.4325  0.0560 -0.0438
   65MOL   N17636144   0.562   2.596   2.452  0.9596 -0.0835 -0.3607
   65MOL   C17736145   0.530   2.505   2.556 -0.6280 -0.6050  0.1203
   65MOL   C17836146   0.630   2.462   2.645  0.2641 -0.6685 -0.0398
   65MOL   C17936147   0.601   2.383   2.757  0.0548  0.5071  0.3733
   65MOL   C18036148   0.466   2.346   2.781 -0.4591 -0.7090 -0.2367
   65MOL   N18136149   0.424   2.265   2.891  0.4812 -0.2252 -0.2868
   65MOL   C18236150   0.368   2.386   2.693 -0.4856 -0.3293 -0.2179
   65MOL   C18336151   0.394   2.469   2.583  0.3245  0.2875  0.2298
   65MOL   O18436152   0.395   2.544   2.290 -0.5292 -0.0577 -0.0615
   65MOL   C18536153   0.737   2.624   2.236 -0.3600 -0.2342 -0.5158
   65MOL   C18636154   0.826   2.690   2.145  0.2386  0.2747  0.2143
   65MOL   O18736155   0.976   2.789   1.929  0.6236 -0.2061 -0.3182
   65MOL   H18836156   0.586   2.848   1.954 -0.4196 -0.7291  0.1793
   65MOL   H18936157   0.442   2.743   2.118 -0.3233 -0.7527  0.8150
   65MOL   H19036158   0.645   2.650   2.471  2.6402 -2.7982  0.4088
   65MOL   H19136159   0.728   2.501   2.623 -0.8425  1.7069 -1.0477
   65MOL   H19236160   0.681   2.336   2.813  1.9055  1.5071 -1.3656
   65MOL   H19336161   0.335   2.292   2.929  0.5061  1.1106 -1.1344
   65MOL   H19436162   0.265   2.356   2.702  0.0539 -2.0760  0.3834
   65MOL   H19536163   0.319   2.511   2.518  2.7564  0.9701 -2.1828
   65MOL   H19636164   0.773   2.555   2.311 -1.6048 -0.0343  0.2921
   65MOL   H19736165   0.933   2.687   2.157  0.2362  2.3809  0.9546
   65MOL   C19836166   0.491   2.180   2.970 -0.0517 -0.9460 -0.3819
   65MOL   C19936167   0.413   2.132   3.092  0.0186 -0.1719  0.1905
   65MOL   C20036168   0.477   2.051   3.185  0.4420 -0.0390 -0.1494
   65MOL   C20136169   0.416   2.025   3.310  0.5306  0.3361  0.6227
   65MOL   C20236170   0.284   2.070   3.335  0.3407  1.4955  0.0291
   65MOL   C20336171   0.220   2.026   3.465 -0.3769  0.1969 -0.7489
   65MOL   N20436172   0.124   2.093   3.525  0.8735  0.4963  0.2198
   65MOL   C20536173   0.089   2.226   3.500 -0.3403 -0.4921  0.0337
   65MOL   C20636174   8.104   2.260   3.466 -0.2670 -0.6884  0.8326
   65MOL   C20736175   8.073   2.389   3.421  0.0513 -0.2218 -0.1493
   65MOL   C20836176   0.026   2.488   3.418  0.4856  0.0217 -0.0908
   65MOL   N20936177   0.009   2.607   3.347 -0.6604 -0.1489 -0.0017
   65MOL   C21036178   0.155   2.457   3.458  0.3266  0.0454 -0.3856
   65MOL   C21136179   0.186   2.330   3.500  0.7947 -0.0544  0.2635
   65MOL   O21236180   0.255   1.918   3.509  0.2958  0.4839  0.4115
   65MOL   C21336181   0.215   2.126   3.228  0.4642  0.0253  0.0466
   65MOL   C21436182   0.279   2.159   3.106 -0.4132 -0.0150  0.2270
   65MOL   O21536183   0.605   2.137   2.939 -0.0490 -0.0398 -0.7608
   65MOL   H21636184   0.581   2.025   3.170  0.0223 -0.7648 -1.9592
   65MOL   H21736185   0.467   1.973   3.390  1.1265 -0.2828 -0.1472
   65MOL   H21836186   0.060   2.045   3.587  0.4063 -0.9003 -1.2826
   65MOL   H21936187   8.027   2.183   3.461  0.0587 -0.9678  0.0884
   65MOL   H22036188   7.971   2.398   3.386 -0.6870  0.1755  2.0385
   65MOL   H22136189   0.092   2.653   3.311  0.0330 -0.7562  0.8139
   65MOL   H22236190   0.234   2.529   3.445  1.6783 -1.2810  0.2499
   65MOL   H22336191   0.290   2.302   3.509  1.5116  2.5443  0.4777
   65MOL   H22436192   0.108   2.140   3.232  0.4284  0.4833 -2.1760
   65MOL   H22536193   0.223   2.196   3.021  0.5111 -0.0581 -0.4131
   65MOL   C22636194   8.035   2.668   3.330 -0.7174 -0.1397  0.4379
   65MOL   C22736195   8.025   2.785   3.237 -0.5055  0.4722 -0.1165
   65MOL   C22836196   8.100   2.782   3.113 -0.4433  0.2981 -0.2857
   65MOL   C22936197   8.089   2.895   3.028 -0.2304  0.0764  0.1073
   65MOL   C23036198   8.012   3.008   3.065  0.0715 -0.3556 -0.6771
   65MOL   C23136199   8.008   3.126   2.966 -0.3782 -0.3448  0.4911
   65MOL   N23236200   7.977   3.252   3.011 -0.1873 -0.2078  0.6042
   65MOL   C23336201   7.987   3.373   2.939  0.3917 -0.9887 -0.5197
   65MOL   C23436202   7.996   3.491   3.018 -0.6037  0.0110  0.1306
   65MOL   C23536203   7.991   3.620   2.959  0.0535 -0.2106  0.1603
   65MOL   C23636204   7.977   3.640   2.821  0.2736  0.1527 -0.0121
   65MOL   N23736205   7.992   3.771   2.766 -0.0197 -0.3615 -0.1885
   65MOL   C23836206   7.960   3.522   2.742  0.1197 -0.2215 -0.1157
   65MOL   C23936207   7.963   3.390   2.798  0.0718  0.0211 -0.8727
   65MOL   O24036208   8.024   3.103   2.846 -0.1854  0.1884  0.0493
   65MOL   C24136209   7.937   3.008   3.183 -0.4450 -0.1152  0.2420
   65MOL   C24236210   7.947   2.902   3.274  0.4108 -0.0179  0.4183
   65MOL   O24336211   7.941   2.646   3.403  0.9289  0.6418  0.6486
   65MOL   H24436212   0.009   2.697   3.074 -1.7850 -0.0721 -1.4137
   65MOL   H24536213   8.139   2.892   2.932 -0.7136  0.4525 -0.1622
   65MOL   H24636214   7.972   3.255   3.112 -1.5346  2.8264  0.5147
   65MOL   H24736215   8.015   3.490   3.124  0.3314  3.2911  0.0378
   65MOL   H24836216   7.999   3.709   3.020  1.0343 -0.6775  0.7218
   65MOL   H24936217   8.052   3.828   2.825 -0.4042 -1.1645  1.0069
   65MOL   H25036218   7.951   3.532   2.635  1.9623  1.0636 -0.1780
   65MOL   H25136219   7.952   3.314   2.721  1.1746 -0.1002 -0.9104
   65MOL   H25236220   7.869   3.086   3.214 -2.5826 -1.7704 -0.1690
   65MOL   H25336221   7.900   2.897   3.371  0.1378  0.8946  0.3388
   65MOL   C25436222   7.936   3.835   2.660 -0.3539 -0.0300 -0.1091
   65MOL   C25536223   7.980   3.978   2.636 -0.2527 -0.5545  0.1606
   65MOL   C25636224   7.961   4.073   2.736  0.3066 -0.3187  0.1047
   65MOL   C25736225   7.986   4.212   2.720  1.0477  0.9349 -0.7390
   65MOL   C25836226   8.050   4.251   2.598 -0.0286 -0.1965  0.1656
   65MOL   C25936227   8.103   4.390   2.576 -1.6539  0.1751  0.3983
   65MOL   N26036228   0.086   4.405   2.624  0.9252 -0.4151  0.0993
   65MOL   C26136229   0.148   4.310   2.697 -0.1990  0.0779  0.6402
   65MOL   C26236230   0.189   4.189   2.635 -0.1595  0.6622  0.4048
   65MOL   C26336231   0.219   4.082   2.714  0.9397 -0.4809 -0.1580
   65MOL   C26436232   0.194   4.086   2.852  0.0624  0.2413  0.0541
   65MOL   N26536233   0.205   3.963   2.923 -0.2406  0.1480 -0.2783
   65MOL   C26636234   0.149   4.204   2.910 -0.4178 -0.1870  0.6569
   65MOL   C26736235   0.131   4.317   2.832 -1.2252  0.0778  0.0482
   65MOL   O26836236   8.030   4.482   2.526  0.0124  0.0199  0.3782
   65MOL   C26936237   8.073   4.148   2.495 -0.3410  0.0510 -1.0520
   65MOL   C27036238   8.034   4.014   2.512  0.2886 -0.0258  0.4291
   65MOL   O27136239   7.855   3.786   2.576  0.0559  0.0054  0.2863
   65MOL   H27236240   7.912   4.042   2.827 -0.0212  0.8682  0.3425
   65MOL   H27336241   7.973   4.277   2.805 -1.2516  0.9951 -1.0916
   65MOL   H27436242   0.110   4.503   2.630 -1.9859  0.4832 -1.7462
   65MOL   H27536243   0.190   4.177   2.528  0.2813  0.7963  0.3909
   65MOL   H27636244   0.245   3.989   2.666 -2.0178 -0.6371 -1.6218
   65MOL   H27736245   0.277   3.901   2.888 -1.0206 -1.4373  0.8909
   65MOL   H27836246   0.131   4.221   3.016 -1.0985 -0.6324  0.6108
   65MOL   H27936247   0.091   4.405   2.879  0.3995  0.9551 -0.1718
   65MOL   H28036248   8.120   4.177   2.402 -0.9002  0.0576 -1.3386
   65MOL   H28136249   8.045   3.943   2.431 -0.8265 -0.5082  0.6789
   65MOL   C28236250   0.127   3.922   3.027  0.3254 -0.3620 -0.6637
   65MOL   C28336251   0.180   3.802   3.104  0.1095  0.0759  0.6054
   65MOL   C28436252   0.316   3.763   3.098 -0.1559 -0.8066 -0.9105
   65MOL   C28536253   0.364   3.659   3.183  0.0460  0.6969 -0.0958
   65MOL   C28636254   0.278   3.594   3.270 -0.6075 -0.4357 -0.6442
   65MOL   C28736255   0.335   3.477   3.348 -0.3062 -0.3776 -1.3087
   65MOL   N28836256   0.294   3.494   3.480 -0.4751  0.2362 -0.1631
   65MOL   C28936257   0.333   3.400   3.578 -0.2873 -0.4046  0.3776
   65MOL   C29036258   0.352   3.259   3.554  0.3077 -0.1408 -0.5681
   65MOL   C29136259   0.392   3.173   3.660 -0.2999 -0.2138  0.0086
   65MOL   C29236260   0.408   3.234   3.787  0.2808 -0.2150  0.1620
   65MOL   N29336261   0.438   3.155   3.901  0.5096  0.2401  0.0876
   65MOL   C29436262   0.376   3.366   3.814 -0.0946  0.0922 -0.4087
   65MOL   C29536263   0.344   3.453   3.707 -0.0946  0.6853  0.5611
   65MOL   O29636264   0.399   3.382   3.308  0.5247 -0.2046  0.3526
   65MOL   C29736265   0.143   3.631   3.269 -0.0298 -0.4476 -0.2392
   65MOL   C29836266   0.092   3.739   3.196 -0.9985 -0.0698 -0.3381
   65MOL   O29936267   0.011   3.970   3.049 -0.6947  0.6637  0.4673
   65MOL   H30036268   0.383   3.813   3.029  0.0886 -1.5744 -1.2414
   65MOL   H30136269   0.469   3.636   3.180  0.3308  2.0804 -1.3696
   65MOL   H30236270   0.246   3.580   3.501  1.6609  1.0709  1.3851
   65MOL   H30336271   0.322   3.217   3.460 -1.7013  0.1709 -0.0914
   65MOL   H30436272   0.397   3.066   3.648  1.2720 -0.2917  1.1531
   65MOL   H30536273   0.373   3.130   3.974  0.8684  0.6246  0.5394
   65MOL   H30636274   0.375   3.404   3.915 -0.3474 -2.1658  0.4652
   65MOL   H30736275   0.323   3.555   3.735  0.4716  0.6629  1.0838
   65MOL   H30836276   0.068   3.581   3.328 -0.2684 -1.4144 -1.3442
   65MOL   H30936277   8.136   3.770   3.212  0.0511  3.0409  0.5949
   65MOL   C31036278   0.545   3.074   3.897 -0.0082 -0.2922 -0.3087
   65MOL   C31136279   0.544   2.972   4.004 -0.0321  1.0060  0.2018
   65MOL   C31236280   0.602   2.997   4.128 -0.1206 -0.6001 -0.7151
   65MOL   C31336281   0.569   2.903   4.233  0.2391 -0.2883 -0.3710
   65MOL   C31436282   0.489   2.787   4.212 -0.4824 -0.6832  0.7744
   65MOL   C31536283   0.459   2.686   4.322  0.7389 -1.0118  0.0275
   65MOL   N31636284   0.557   2.633   4.390 -0.1524 -1.3214  0.1510
   65MOL   C31736285   0.553   2.523   4.477  0.7543  0.2265  0.4574
   65MOL   C31836286   0.671   2.445   4.476 -0.4466  0.3713 -0.1471
   65MOL   C31936287   0.685   2.334   4.555  0.6107 -0.2105  0.4750
   65MOL   C32036288   0.575   2.301   4.635  0.7207 -0.2196  0.0097
   65MOL   N32136289   0.569   2.185   4.713 -0.1942 -0.0000 -0.9659
   65MOL   C32236290   0.459   2.375   4.635  0.1887 -0.2060  0.2888
   65MOL   C32336291   0.447   2.493   4.562  0.4314  0.1606 -0.0998
   65MOL   O32436292   0.340   2.647   4.321  0.0527  0.4948  0.6187
   65MOL   C32536293   0.436   2.766   4.086  0.1391  0.5049 -0.0520
   65MOL   C32636294   0.460   2.862   3.981 -0.0966  0.1037  0.7401
   65MOL   O32736295   0.633   3.064   3.815  0.4048 -0.2619 -0.0043
   65MOL   H32836296   0.657   3.084   4.161 -0.7368 -1.4269  2.6065
   65MOL   H32936297   0.604   2.918   4.334 -0.4832 -1.4881  0.0779
   65MOL   H33036298   0.649   2.670   4.371 -1.1530  1.7497  0.9750
   65MOL   H33136299   0.746   2.473   4.404 -1.3117 -1.0866 -1.6630
   65MOL   H33236300   0.780   2.284   4.543  0.0139 -0.7029 -2.6381
   65MOL   H33336301   0.499   2.184   4.786 -0.0087 -0.0709 -0.7874
   65MOL   H33436302   0.377   2.367   4.705  1.0975 -2.1660  1.1525
   65MOL   H33536303   0.358   2.552   4.576  0.3726  0.2148 -0.7273
   65MOL   H33636304   0.373   2.680   4.071  1.5639 -0.4005 -0.9775
   65MOL   H33736305   0.413   2.850   3.884  2.2275  0.5240 -0.4745
   65MOL   C33836306   0.626   2.069   4.688 -0.5100 -0.2205 -0.9945
   65MOL   C33936307   0.559   1.953   4.756 -0.1230  0.0152 -0.2661
   65MOL   C34036308   0.642   1.841   4.779  0.2186 -0.4837  0.1953
   65MOL   C34136309   0.594   1.723   4.839 -0.1916 -0.2607  0.4922
   65MOL   C34236310   0.455   1.723   4.880  0.3403  0.0602 -0.2185
   65MOL   C34336311   0.402   1.600   4.947  0.3571  1.1475 -0.4196
   65MOL   N34436312   0.320   1.624   5.052 -0.3112 -0.3847  0.0773
   65MOL   C34536313   0.238   1.533   5.119 -0.1498 -0.1279  0.2205
   65MOL   C34636314   0.199   1.407   5.062 -0.4593 -0.7966 -0.9332
   65MOL   C34736315   0.114   1.326   5.134  0.0822  0.7166 -0.2566
   65MOL   C34836316   0.073   1.359   5.266 -0.1850  0.2203 -0.0137
   65MOL   N34936317   0.009   1.265   5.354  0.6091  0.0030 -0.0498
   65MOL   C35036318   0.105   1.484   5.317  0.5411  0.1625  0.2277
   65MOL   C35136319   0.190   1.568   5.245 -0.3069 -0.1516  0.1958
   65MOL   O35236320   0.456   1.488   4.928  0.0754 -0.7786 -0.3137
   65MOL   C35336321   0.371   1.832   4.862 -0.4304 -0.2689 -0.0905
   65MOL   C35436322   0.422   1.954   4.797  0.0997  0.3655 -0.2433
   65MOL   O35536323   0.736   2.054   4.636  0.2488 -0.2887 -0.2346
   65MOL   H35636324   0.746   1.846   4.749  0.4589  0.7370  1.1819
   65MOL   H35736325   0.666   1.645   4.855 -1.6334 -1.8709 -0.6449
   65MOL   H35836326   0.300   1.721   5.071  0.6792 -0.2586  0.4976
   65MOL   H35936327   0.240   1.376   4.967  1.8632  3.4660 -1.4765
   65MOL   H36036328   0.088   1.227   5.098 -2.1602  1.9455 -2.1671
   65MOL   H36136329   8.087   1.300   5.421  0.6646 -1.7802  0.9645
   65MOL   H36236330   0.087   1.506   5.421  0.7782 -2.7378  0.9191
   65MOL   H36336331   0.237   1.662   5.269  0.6661 -0.5068 -0.2873
   65MOL   H36436332   0.266   1.832   4.886 -0.7465  1.4482 -1.3689
   65MOL   H36536333   0.356   2.034   4.769 -0.4200  0.6471  1.7092
   65MOL   C36636334   0.022   1.132   5.357  0.7245  0.1358 -0.5506
   65MOL   C36736335   8.070   1.061   5.449  0.3138  0.7401  0.0241
   65MOL   C36836336   8.037   0.925   5.429 -0.6422 -0.3470  0.1933
   65MOL   C36936337   7.942   0.862   5.505 -0.2409 -0.0397 -0.4460
   65MOL   C37036338   7.877   0.936   5.608 -0.6118  0.0350  0.2033
   65MOL   C37136339   7.761   0.869   5.679 -0.0016  0.1004 -0.1348
   65MOL   N37236340   7.695   0.942   5.768 -0.3511  0.1323 -0.0982
   65MOL   C37336341   7.610   0.904   5.872 -0.4498 -0.5482  0.4758
   65MOL   C37436342   7.557   0.775   5.885  0.2911  0.4247  0.5502
   65MOL   C37536343   7.459   0.742   5.977 -0.5953 -0.4089  0.2475
   65MOL   C37636344   7.409   0.849   6.060 -0.4323 -0.0325  0.0835
   65MOL   N37736345   7.298   0.827   6.151  0.0220  0.8532  0.1878
   65MOL   C37836346   7.460   0.976   6.048  0.2784  0.2784 -0.5510
   65MOL   C37936347   7.560   1.003   5.956 -0.3177  0.1150 -0.3080
   65MOL   O38036348   7.725   0.756   5.643  0.1832 -0.4462 -0.2512
   65MOL   C38136349   7.915   1.068   5.639  0.5826 -0.1452  0.1018
   65MOL   C38236350   8.004   1.135   5.551  0.2982  0.3021 -0.6922
   65MOL   O38336351   0.099   1.073   5.286 -0.3577  0.1666 -0.2479
   65MOL   H38436352   8.083   0.869   5.349  1.6834 -0.7264  1.7341
   65MOL   H38536353   7.921   0.757   5.490 -0.2706 -0.5416  2.6943
   65MOL   H38636354   7.703   1.042   5.763 -1.9539  0.3187  0.6893
   65MOL   H38736355   7.590   0.692   5.823  0.5122  0.3339  0.7874
   65MOL   H38836356   7.416   0.644   5.962 -0.0272 -0.6144 -0.0345
   65MOL   H38936357   7.239   0.909   6.155 -1.3947 -0.1186 -0.3012
   65MOL   H39036358   7.423   1.064   6.099  0.6213  0.3498 -0.4186
   65MOL   H39136359   7.595   1.105   5.961 -3.8356  1.3641  0.2826
   65MOL   H39236360   7.864   1.117   5.721  1.7007 -0.3844  0.9396
   65MOL   H39336361   8.027   1.237   5.578 -3.0103  0.4456  1.9616
   65MOL   C39436362   7.265   0.718   6.229  0.6225  0.1335 -0.1456
   65MOL   C39536363   7.146   0.731   6.317  0.1344  0.2802 -0.3252
   65MOL   C39636364   7.067   0.616   6.358 -0.0593 -0.1786 -0.3116
   65MOL   C39736365   6.975   0.632   6.462  0.3365  0.3071  0.9541
   65MOL   C39836366   6.937   0.757   6.518  0.2992 -0.5531  0.8394
   65MOL   C39936367   6.836   0.765   6.630 -1.1889  0.0448  0.1914
   65MOL   N40036368   6.779   0.885   6.645  0.5432 -0.1697  0.0408
   65MOL   C40136369   6.695   0.931   6.746  0.7273 -0.0816 -0.1966
   65MOL   C40236370   6.639   1.063   6.715  0.4183  0.0913 -0.4757
   65MOL   C40336371   6.552   1.126   6.806  0.2921  0.3428  0.2322
   65MOL   C40436372   6.535   1.063   6.931  0.4537 -0.6467  0.6291
   65MOL   N40536373   6.445   1.142   7.011  0.2827  0.5137 -0.3363
   65MOL   C40636374   6.599   0.939   6.971  0.2388  0.8029 -0.1002
   65MOL   C40736375   6.671   0.870   6.872 -0.4130  0.3044  0.7732
   65MOL   O40836376   6.816   0.670   6.702 -0.4122  0.3153  0.2124
   65MOL   C40936377   6.998   0.873   6.468  0.1808 -0.1805 -0.0818
   65MOL   C41036378   7.106   0.855   6.377  0.3710  0.1140  0.1912
   65MOL   O41136379   7.326   0.607   6.239  0.1851  0.8134 -0.1860
   65MOL   H41236380   7.068   0.525   6.300 -0.2828 -0.1416 -0.3757
   65MOL   H41336381   6.919   0.549   6.502  0.1114  0.7251  1.5174
   65MOL   H41436382   6.795   0.948   6.568 -1.2772 -0.5538 -0.6710
   65MOL   H41536383   6.666   1.109   6.621 -1.6334  3.3388  0.4266
   65MOL   H41636384   6.508   1.222   6.784  0.2545  0.2691 -0.0280
   65MOL   H41736385   6.411   1.227   6.968 -2.0536  1.0783  2.5279
   65MOL   H41836386   6.580   0.890   7.065  2.2922 -1.3474 -0.7500
   65MOL   H41936387   6.715   0.776   6.903  1.2958  0.4950 -1.0121
   65MOL   H42036388   6.966   0.976   6.481 -3.6697 -1.4649  1.2155
   65MOL   H42136389   7.166   0.939   6.346  0.7180  0.8208  2.6629
   65MOL   C42236390   6.398   1.112   7.134  0.4457  0.5685  0.5106
   65MOL   C42336391   6.332   1.222   7.213 -0.4522  0.0198  0.0579
   65MOL   C42436392   6.190   1.224   7.228  0.4017  0.1611 -0.0944
   65MOL   C42536393   6.136   1.338   7.294 -0.4507  0.4270 -0.1269
   65MOL   C42636394   6.222   1.444   7.349 -0.6341 -0.2311  1.0620
   65MOL   C42736395   6.161   1.560   7.420  0.3848  0.0150  0.2132
   65MOL   N42836396   6.246   1.654   7.465  0.0882  1.1018 -0.4015
   65MOL   C42936397   6.218   1.784   7.505 -0.3761 -0.5182 -0.5415
   65MOL   C43036398   6.103   1.808   7.590 -0.4969 -0.0062  0.2366
   65MOL   C43136399   6.073   1.941   7.623  0.5083 -0.3588 -0.4004
   65MOL   C43236400   6.146   2.052   7.574  0.5868 -0.2370 -0.1007
   65MOL   N43336401   6.104   2.181   7.613 -0.0711 -0.2825  0.5341
   65MOL   C43436402   6.265   2.024   7.500  0.2302  0.2093  0.1654
   65MOL   C43536403   6.304   1.890   7.466 -0.3773  0.1607  0.1560
   65MOL   O43636404   6.040   1.565   7.435  0.0153  0.3442 -0.2744
   65MOL   C43736405   6.366   1.432   7.324  0.6555 -0.0313 -0.6266
   65MOL   C43836406   6.421   1.321   7.261  0.2343 -0.2630 -0.2902
   65MOL   O43936407   6.413   1.002   7.189  0.2537 -0.2860  0.5240
   65MOL   H44036408   6.131   1.139   7.196  1.4810 -0.7940  0.4328
   65MOL   H44136409   6.031   1.355   7.311 -0.4902 -0.4066  0.4998
   65MOL   H44236410   6.344   1.637   7.448  0.5521  1.2152  1.9450
   65MOL   H44336411   6.044   1.726   7.629  1.9016 -1.6047  0.5835
   65MOL   H44436412   5.999   1.964   7.699  0.3664  0.6278 -0.8398
   65MOL   H44536413   6.027   2.190   7.678 -1.5643 -2.4403 -0.8475
   65MOL   H44636414   6.328   2.107   7.469  0.7475 -1.2174 -2.7768
   65MOL   H44736415   6.396   1.866   7.415 -0.7551 -1.2890  0.1531
   65MOL   H44836416   6.434   1.510   7.357 -0.7670 -0.3546  3.4153
   65MOL   H44936417   6.526   1.310   7.239  0.4574 -0.6235  0.9357
   65MOL   C45036418   6.133   2.297   7.550 -0.0622 -0.1298  0.4793
   65MOL   C45136419   6.038   2.410   7.587 -0.6276 -0.3144 -0.3474
   65MOL   C45236420   6.080   2.541   7.560 -0.3358 -0.3673  0.4442
   65MOL   C45336421   6.004   2.655   7.582  0.1865  0.2558 -0.1918
   65MOL   C45436422   5.876   2.633   7.632  0.4854  0.1973 -1.5060
   65MOL   C45536423   5.787   2.752   7.662 -0.2346  0.7893 -0.1247
   65MOL   N45636424   5.766   2.835   7.555  0.0763  0.2041 -0.0286
   65MOL   C45736425   5.681   2.958   7.550 -0.5790 -0.1032  0.1169
   65MOL   C45836426   5.676   3.047   7.661  0.2674  0.2705 -0.0722
   65MOL   C45936427   5.586   3.159   7.655  0.3154  0.1475 -0.0912
   65MOL   C46036428   5.528   3.192   7.529  0.7061 -0.3839  0.2203
   65MOL   N46136429   5.469   3.316   7.502 -0.4568  0.0086 -0.4616
   65MOL   C46236430   5.538   3.109   7.416 -0.2239  0.6446 -0.8976
   65MOL   C46336431   5.607   2.986   7.432  0.5085 -0.2127 -0.5695
   65MOL   O46436432   5.731   2.757   7.771 -0.4358 -0.3008 -0.0738
   65MOL   C46536433   5.834   2.503   7.662 -0.0939 -0.5039  0.7562
   65MOL   C46636434   5.906   2.389   7.630 -0.3954 -0.6226 -0.2741
   65MOL   O46736435   6.225   2.309   7.466  0.3472 -0.1168 -0.4768
   65MOL   H46836436   6.181   2.552   7.524 -1.2541 -0.3936 -2.2677
   65MOL   H46936437   6.033   2.755   7.556  1.4414  1.0753  4.1478
   65MOL   H47036438   5.811   2.806   7.469  3.4031  0.2543  1.6270
   65MOL   H47136439   5.733   3.021   7.750 -1.3144 -1.0066  0.5861
   65MOL   H47236440   5.575   3.217   7.746  1.6146 -0.9631  0.7978
   65MOL   H47336441   5.477   3.349   7.407  0.9283  1.6908  0.2179
   65MOL   H47436442   5.476   3.119   7.328 -0.7319 -3.2229 -1.0802
   65MOL   H47536443   5.607   2.914   7.352 -1.7149 -0.6458 -0.2103
   65MOL   H47636444   5.731   2.493   7.693 -0.2801 -4.4815 -0.9253
   65MOL   H47736445   5.863   2.292   7.653  0.1056 -0.8640 -0.3342
   65MOL   C47836446   5.379   3.380   7.578 -0.0100 -0.0010 -0.0933
   65MOL   C47936447   5.307   3.496   7.504  0.5994 -0.9532 -0.5143
   65MOL   C48036448   5.255   3.473   7.376 -0.1378 -0.0659  0.0506
   65MOL   C48136449   5.187   3.569   7.303  0.6044 -0.3904 -0.3969
   65MOL   C48236450   5.169   3.703   7.358 -0.0275  0.0279  0.1929
   65MOL   C48336451   5.108   3.812   7.275 -0.2297  0.5772  0.3118
   65MOL   N48436452   5.155   3.812   7.144  0.7562  0.4627 -0.3700
   65MOL   C48536453   5.113   3.892   7.038  0.0231 -0.0733  0.0128
   65MOL   C48636454   5.163   3.852   6.912 -0.3124  0.3176 -0.2821
   65MOL   C48736455   5.107   3.907   6.797 -0.8459  0.7231  0.3297
   65MOL   C48836456   5.008   4.009   6.798  0.0649  0.0015 -0.1505
   65MOL   N48936457   4.964   4.062   6.677  0.7375 -0.8303 -0.1118
   65MOL   C49036458   4.961   4.053   6.927 -0.3377  0.1398 -0.1600
   65MOL   C49136459   5.014   3.993   7.043  0.4276  0.3938  0.1102
   65MOL   O49236460   5.032   3.889   7.327  0.2651 -0.2368  0.6613
   65MOL   C49336461   5.229   3.725   7.481 -0.3380 -0.2357 -0.1922
   65MOL   C49436462   5.293   3.626   7.558 -0.0453  1.1430 -0.2062
   65MOL   O49536463   5.347   3.339   7.687  0.9023  0.1881 -0.1838
   65MOL   H49636464   5.264   3.380   7.322 -1.0399 -0.5551  0.7387
   65MOL   H49736465   5.153   3.541   7.205 -0.2413 -0.0785 -0.1912
   65MOL   H49836466   5.228   3.744   7.124  0.9202  1.0976 -1.9831
   65MOL   H49936467   5.243   3.779   6.912 -0.2860  0.3449 -0.6653
   65MOL   H50036468   5.156   3.885   6.703 -0.3647 -0.4549  0.8493
   65MOL   H50136469   4.984   4.006   6.596  2.2293 -0.6453  0.1088
   65MOL   H50236470   4.883   4.128   6.932 -1.0402 -0.6361  0.9267
   65MOL   H50336471   4.976   4.021   7.141 -2.4548 -3.1653  0.1436
   65MOL   H50436472   5.228   3.824   7.524 -2.5607  0.0046 -0.7172
   65MOL   H50536473   5.340   3.653   7.651  0.4868 -3.6602  1.0413
   65MOL   C50636474   4.914   4.180   6.650  0.5077 -0.2806 -0.2471
   65MOL   C50736475   4.898   4.210   6.505 -0.6821 -0.2605  0.6128
   65MOL   C50836476   4.935   4.123   6.404  0.2125  0.0709 -0.7667
   65MOL   C50936477   4.906   4.147   6.269  0.1487 -0.0685  0.0101
   65MOL   C51036478   4.846   4.271   6.233 -0.0092 -0.8500 -0.9821
   65MOL   C51136479   4.858   4.320   6.092 -0.6322  0.0739  0.7534
   65MOL   N51236480   4.776   4.245   6.016  0.6831 -0.4209  0.7662
   65MOL   C51336481   4.756   4.265   5.876  0.2863  0.4416  0.5306
   65MOL   C51436482   4.626   4.268   5.834  0.6164 -0.4179 -0.2035
   65MOL   C51536483   4.594   4.278   5.696 -0.4232 -0.8839  0.1242
   65MOL   C51636484   4.701   4.283   5.604 -0.5975  0.4274 -0.7352
   65MOL   N51736485   4.686   4.288   5.464  0.2831  0.9569 -0.1098
   65MOL   C51836486   4.834   4.295   5.650 -0.0881  0.8424  0.1713
   65MOL   C51936487   4.863   4.282   5.787 -0.0263 -0.5209 -0.1768
   65MOL   O52036488   4.912   4.420   6.063 -0.2863 -0.5998  0.3648
   65MOL   C52136489   4.811   4.362   6.334  0.8104 -0.5313 -0.1456
   65MOL   C52236490   4.840   4.332   6.468 -0.5715 -0.1011  0.5061
   65MOL   O52336491   4.882   4.265   6.733 -0.1121 -0.4143 -0.0449
   65MOL   H52436492   4.976   4.026   6.428 -0.1349 -0.1818 -1.2002
   65MOL   H52536493   4.940   4.079   6.192 -0.9387 -0.1898 -0.3883
   65MOL   H52636494   4.735   4.167   6.065  1.5635 -0.3226  1.6771
   65MOL   H52736495   4.539   4.259   5.897  2.2754  0.4990  2.2983
   65MOL   H52836496   4.489   4.278   5.672 -0.5461 -0.7661  0.6491
   65MOL   H52936497   4.758   4.326   5.405  0.4210  0.3862 -0.3028
   65MOL   H53036498   4.911   4.304   5.575  0.0950 -0.0199  0.2547
   65MOL   H53136499   4.966   4.274   5.816 -0.1204  0.4546  0.4806
   65MOL   H53236500   4.786   4.463   6.307  0.2266 -1.5313 -3.5260
   65MOL   H53336501   4.807   4.398   6.547 -1.3650 -0.1889  0.2567
   65MOL   C53436502   4.582   4.245   5.393 -0.0071  0.2647  0.3836
   65MOL   C53536503   4.595   4.275   5.248 -0.0907 -0.3291  0.2109
   65MOL   C53636504   4.718   4.254   5.180 -0.0593 -0.5417  1.0264
   65MOL   C53736505   4.727   4.273   5.042  0.0014  0.0155  0.5745
   65MOL   C53836506   4.618   4.319   4.962 -0.7589 -0.0944 -0.3475
   65MOL   C53936507   4.625   4.346   4.816  0.4628 -0.2581 -0.6864
   65MOL   N54036508   4.645   4.235   4.738  0.3168 -0.3309 -0.1215
   65MOL   C54136509   4.666   4.238   4.597  0.1175 -0.2620  0.3145
   65MOL   C54236510   4.747   4.332   4.531  1.2141  0.0791 -0.3488
   65MOL   C54336511   4.755   4.337   4.397  0.1184 -0.6649  0.3285
   65MOL   C54436512   4.690   4.237   4.318 -0.2776 -0.3209 -0.0136
   65MOL   N54536513   4.716   4.246   4.182 -0.3083 -0.3019 -0.3463
   65MOL   C54636514   4.593   4.151   4.378  0.1455 -0.3702 -0.0261
   65MOL   C54736515   4.583   4.157   4.521 -0.5803  0.1236  0.7019
   65MOL   O54836516   4.597   4.459   4.779 -0.5723 -0.1968  0.3748
   65MOL   C54936517   4.498   4.338   5.033  0.3563 -0.1280 -0.3672
   65MOL   C55036518   4.486   4.318   5.169 -0.3099 -0.2260 -0.0449
   65MOL   O55136519   4.486   4.183   5.436 -0.2894 -0.2165 -0.2517
   65MOL   H55236520   4.805   4.221   5.235  2.0526  2.0701 -0.6277
   65MOL   H55336521   4.826   4.259   5.001  0.4171 -0.0666  1.6049
   65MOL   H55436522   4.659   4.145   4.781  1.1740 -0.0590  0.1681
   65MOL   H55536523   4.803   4.401   4.592  0.6744 -0.9137  1.3175
   65MOL   H55636524   4.819   4.414   4.357 -0.5467 -0.7979 -1.0226
   65MOL   H55736525   4.641   4.221   4.119 -0.1345  0.0629 -0.6996
   65MOL   H55836526   4.536   4.074   4.327  0.7849  0.4635 -2.0604
   65MOL   H55936527   4.522   4.085   4.573  0.2588 -1.5367 -0.5349
   65MOL   H56036528   4.405   4.372   4.991  0.3278  0.3419  0.0699
   65MOL   H56136529   4.393   4.335   5.222 -0.7968 -0.2596 -0.8930
   65MOL   H56236530   4.748   4.332   4.141 -1.2337 -0.0943 -0.6512
   66MOL     C136531   1.563   5.396   4.858  0.7866  0.1762  0.1046
   66MOL     C236532   1.563   5.434   5.004 -0.7072  0.0815  0.0850
   66MOL     C336533   1.693   5.439   5.069  0.0388 -0.0857  0.7042
   66MOL     C436534   1.700   5.474   5.202 -0.3391  0.0130 -0.1478
   66MOL     C536535   1.587   5.504   5.277  0.0200  0.0689 -0.2039
   66MOL     C636536   1.593   5.552   5.416 -0.0511 -0.2696 -0.6935
   66MOL     N736537   1.691   5.500   5.493  0.1729  0.5823 -0.1825
   66MOL     C836538   1.728   5.543   5.617  0.3264 -0.0506 -0.2653
   66MOL     C936539   1.625   5.567   5.715 -0.4124  0.6394 -0.1768
   66MOL    C1036540   1.660   5.607   5.843  0.0169  0.0425 -0.2516
   66MOL    C1136541   1.795   5.612   5.881  0.5834 -0.2180 -0.0864
   66MOL    N1236542   1.812   5.651   6.014  0.0551  0.3744  0.0413
   66MOL    C1336543   1.894   5.583   5.785 -0.1460  0.3133  0.5108
   66MOL    C1436544   1.859   5.554   5.654  0.7520  0.5598  0.1008
   66MOL    O1536545   1.509   5.641   5.449  0.4852  0.1621 -0.3293
   66MOL    C1636546   1.463   5.495   5.213  0.4366 -0.1915  0.6548
   66MOL    C1736547   1.450   5.463   5.076  0.1869 -0.0608  0.3854
   66MOL    O1836548   1.665   5.367   4.796  0.0286 -0.5858  0.1715
   66MOL    H1936549   1.772   5.410   5.001 -2.9406 -1.1502 -2.4584
   66MOL    H2036550   1.799   5.481   5.245 -0.6294  0.5967  0.4335
   66MOL    H2136551   1.747   5.422   5.463 -2.3342 -2.0500  1.7239
   66MOL    H2236552   1.521   5.550   5.694 -0.2469 -1.2787  0.4723
   66MOL    H2336553   1.578   5.637   5.906  0.6413 -3.0058  2.1184
   66MOL    H2436554   1.731   5.662   6.073 -1.4728 -0.1867 -1.9077
   66MOL    H2536555   2.000   5.586   5.802  0.2360  0.0423 -1.7312
   66MOL    H2636556   1.932   5.522   5.581  0.6640 -1.7683  0.9938
   66MOL    H2736557   1.376   5.527   5.268  1.0713  1.0666  0.9608
   66MOL    H2836558   1.348   5.455   5.043  1.1608 -2.0850 -2.2318
   66MOL    H2936559   1.464   5.404   4.813 -0.3569 -0.7284  2.3519
   66MOL    C3036560   1.922   5.657   6.094 -0.4069 -0.4599 -0.7406
   66MOL    C3136561   1.901   5.742   6.215  0.1386 -0.3398 -0.1011
   66MOL    C3236562   1.772   5.767   6.262  0.3200  0.6928 -0.0024
   66MOL    C3336563   1.749   5.854   6.374  0.3802 -0.4238  0.1423
   66MOL    C3436564   1.864   5.912   6.430  0.1981  0.3037  0.7018
   66MOL    C3536565   1.845   6.016   6.535  0.4134  0.5050  0.1568
   66MOL    N3636566   1.811   6.138   6.483 -0.3459 -0.3616  0.3749
   66MOL    C3736567   1.829   6.267   6.545  0.2997  0.2771 -0.6525
   66MOL    C3836568   1.843   6.285   6.689  0.5054 -0.0199 -0.0525
   66MOL    C3936569   1.835   6.417   6.740  0.1258  0.4198 -0.5931
   66MOL    C4036570   1.827   6.528   6.657  0.1218  0.4012 -0.1055
   66MOL    N4136571   1.827   6.657   6.713  0.0401  0.2759 -0.2024
   66MOL    C4236572   1.826   6.507   6.518 -0.1826  0.2042 -0.3579
   66MOL    C4336573   1.819   6.378   6.460 -0.4398  0.1896 -0.3545
   66MOL    O4436574   1.864   5.991   6.654  0.0036 -0.2019  0.0559
   66MOL    C4536575   1.989   5.886   6.384  0.1044  0.1094 -0.2182
   66MOL    C4636576   2.015   5.797   6.284 -0.1120  0.5763  0.1218
   66MOL    O4736577   2.041   5.622   6.064  0.1825  0.3822 -0.1436
   66MOL    H4836578   1.691   5.729   6.203  0.2883 -1.2840  1.2994
   66MOL    H4936579   1.652   5.885   6.409  1.3968  0.3408  2.3685
   66MOL    H5036580   1.810   6.139   6.382  0.3925  0.4492  0.3758
   66MOL    H5136581   1.847   6.197   6.752 -1.5809 -0.9210 -1.1353
   66MOL    H5236582   1.821   6.431   6.846 -0.6457 -2.2741 -0.2999
   66MOL    H5336583   1.777   6.664   6.800 -0.5100  2.0659 -0.6377
   66MOL    H5436584   1.816   6.582   6.441  0.1562  1.5282  0.8722
   66MOL    H5536585   1.810   6.371   6.352 -1.5915 -1.4024 -0.1652
   66MOL    H5636586   2.070   5.939   6.432 -0.1005 -0.0437  0.3031
   66MOL    H5736587   2.115   5.779   6.245  0.9578  1.1923  2.4998
   66MOL    C5836588   1.904   6.761   6.675 -0.5275  0.3005  0.5352
   66MOL    C5936589   1.883   6.887   6.754  0.0924 -0.1125 -0.2004
   66MOL    C6036590   1.956   7.003   6.729 -0.8523  0.4540  0.3191
   66MOL    C6136591   1.937   7.122   6.804  0.0552  0.5629  0.0476
   66MOL    C6236592   1.840   7.130   6.907  0.0452  0.7752 -0.6814
   66MOL    C6336593   1.818   7.256   6.981  0.2953  0.6430  0.0049
   66MOL    N6436594   1.841   7.260   7.114 -0.1645  0.6626  0.8035
   66MOL    C6536595   1.828   7.373   7.207 -0.2285 -0.2379 -0.2639
   66MOL    C6636596   1.775   7.495   7.169  0.6463  0.7865  0.3880
   66MOL    C6736597   1.777   7.605   7.254  0.1874 -0.5480 -0.2021
   66MOL    C6836598   1.840   7.592   7.378  0.7702 -0.1934 -0.1953
   66MOL    N6936599   1.866   7.702   7.467  0.1958  0.3162 -0.0970
   66MOL    C7036600   1.881   7.467   7.418 -0.3168  0.7430  0.3439
   66MOL    C7136601   1.870   7.354   7.342  0.4946  0.0001 -0.4512
   66MOL    O7236602   1.799   7.348   6.909 -0.4661 -0.0518 -0.2920
   66MOL    C7336603   1.770   7.008   6.931 -0.9485 -0.4593 -0.6984
   66MOL    C7436604   1.786   6.891   6.858  0.2701 -0.8441 -0.2174
   66MOL    O7536605   1.985   6.757   6.581  0.3845  0.2405  0.1576
   66MOL    H7636606   2.028   7.007   6.648  1.6239  0.2483  2.4590
   66MOL    H7736607   1.986   7.214   6.776  0.0776  0.2248 -1.0806
   66MOL    H7836608   1.874   7.174   7.155  0.0975 -0.3454 -1.4933
   66MOL    H7936609   1.731   7.518   7.073  0.4661 -0.7249  0.0861
   66MOL    H8036610   1.740   7.697   7.210  3.6495  0.7734 -0.4666
   66MOL    H8136611   1.926   7.673   7.543  0.2105 -1.4699 -0.7720
   66MOL    H8236612   1.921   7.463   7.518  1.3031 -1.0805 -0.3536
   66MOL    H8336613   1.931   7.271   7.376  1.9168  1.6388  1.0557
   66MOL    H8436614   1.699   7.023   7.010  3.6525  0.8975  3.4134
   66MOL    H8536615   1.733   6.804   6.893 -1.0807  0.5374  1.2431
   66MOL    C8636616   1.830   7.828   7.456 -0.0650 -0.2936 -0.3874
   66MOL    C8736617   1.899   7.931   7.547 -0.0911  0.4386 -0.0928
   66MOL    C8836618   1.920   8.059   7.493  0.2656  0.4982 -0.1661
   66MOL    C8936619   1.993   0.008   7.575 -0.7262 -0.6006  0.8788
   66MOL    C9036620   2.026   8.133   7.708 -0.0838 -0.4376  0.4429
   66MOL    C9136621   2.093   0.092   7.789  0.3878 -0.7474  0.0532
   66MOL    N9236622   2.074   0.081   7.921 -0.4996  0.1585  0.1978
   66MOL    C9336623   2.130   0.162   8.028  0.4486  0.5013  0.3733
   66MOL    C9436624   2.081   0.147   0.011 -0.2019  0.2884  0.1118
   66MOL    C9536625   2.141   0.208   0.122  0.0616  0.0832  0.4908
   66MOL    C9636626   2.254   0.295   0.099 -0.5493 -0.7588  0.1650
   66MOL    N9736627   2.316   0.359   0.212  0.1742  0.0356  0.2372
   66MOL    C9836628   2.295   0.327   8.115 -0.3137 -0.7823 -0.1977
   66MOL    C9936629   2.225   0.264   8.011  0.4055 -0.9278  0.9804
   66MOL   O10036630   2.166   0.174   7.734 -0.3174  0.6735 -0.5341
   66MOL   C10136631   1.996   8.007   7.762 -0.1066 -0.7044 -0.4733
   66MOL   C10236632   1.941   7.907   7.679 -0.5258 -0.5445  0.0262
   66MOL   O10336633   1.752   7.872   7.373  0.2201  0.7366 -0.3152
   66MOL   H10436634   1.880   8.085   7.396 -2.5304  1.1595  1.1217
   66MOL   H10536635   2.019   0.103   7.530  0.5973 -2.2475 -1.9287
   66MOL   H10636636   2.024   8.143   7.948  1.3732 -1.3804 -1.0520
   66MOL   H10736637   1.997   0.082   0.031 -3.2191  2.9896 -3.0065
   66MOL   H10836638   2.094   0.187   0.216 -0.8753 -0.6678 -0.1305
   66MOL   H10936639   2.339   0.457   0.221  1.3588 -0.1391 -0.7453
   66MOL   H11036640   2.374   0.400   8.110  0.1561 -1.1444  1.5057
   66MOL   H11136641   2.236   0.300   7.910 -0.7494 -0.0207  1.1673
   66MOL   H11236642   2.009   7.975   7.864  0.3622 -2.4675 -1.0587
   66MOL   H11336643   1.908   7.817   7.729  2.7644 -1.1861  1.1399
   66MOL   C11436644   2.372   0.290   0.310 -0.2707 -0.0223 -0.7342
   66MOL   C11536645   2.407   0.147   0.274  0.8483 -0.0872 -0.4281
   66MOL   C11636646   2.479   0.117   0.161  0.3795 -0.3736  0.4294
   66MOL   C11736647   2.505   8.134   0.119 -0.0150 -0.5797 -0.5666
   66MOL   C11836648   2.457   8.026   0.201 -0.7862 -0.0582 -0.1931
   66MOL   C11936649   2.474   7.883   0.162 -0.6563 -0.1830 -0.1419
   66MOL   N12036650   2.532   7.864   0.040 -0.5847  0.3587  0.6802
   66MOL   C12136651   2.558   7.739   8.120  0.6360  0.0527 -0.2167
   66MOL   C12236652   2.584   7.753   7.986  0.1902  0.0698  0.3928
   66MOL   C12336653   2.593   7.645   7.903 -0.4295 -0.6109 -0.6096
   66MOL   C12436654   2.582   7.514   7.953  0.1603 -0.2481 -0.0418
   66MOL   N12536655   2.557   7.396   7.878 -0.8266  0.2082 -0.1840
   66MOL   C12636656   2.567   7.495   8.093  0.5306  0.2972 -0.2671
   66MOL   C12736657   2.553   7.611   0.033  0.4505  0.0847  0.7001
   66MOL   O12836658   2.423   7.790   0.224  0.7958 -0.5795  0.4532
   66MOL   C12936659   2.395   8.056   0.324 -0.3193 -0.0977  0.3724
   66MOL   C13036660   2.368   0.045   0.362 -0.1056  0.2981  0.3628
   66MOL   O13136661   2.407   0.339   0.418  0.1015  0.7405  0.2104
   66MOL   H13236662   2.513   0.190   0.089  2.1716 -1.9234 -0.3587
   66MOL   H13336663   2.554   8.118   0.025 -1.7028  0.4466 -1.6505
   66MOL   H13436664   2.543   7.950   8.134 -1.0047  1.3281  2.1675
   66MOL   H13536665   2.595   7.850   7.939 -1.9575 -0.7336 -1.8296
   66MOL   H13636666   2.604   7.659   7.796  0.9852  1.2449 -0.2485
   66MOL   H13736667   2.545   7.308   7.926  0.9170 -0.7370 -1.4134
   66MOL   H13836668   2.557   7.401   8.144 -1.5851  1.4108  1.4232
   66MOL   H13936669   2.528   7.588   0.135 -1.4160 -3.8940 -0.5608
   66MOL   H14036670   2.363   7.973   0.385 -0.2197 -0.6545 -0.3305
   66MOL   H14136671   2.321   0.059   0.458 -0.7946 -3.2550  0.6136
   66MOL   C14236672   2.566   7.372   7.747  0.4200 -0.7151  0.5149
   66MOL   C14336673   2.548   7.226   7.695 -0.0420  0.0306  0.6938
   66MOL   C14436674   2.554   7.114   7.781  0.7076  0.4201  0.1135
   66MOL   C14536675   2.533   6.987   7.730  0.0958 -0.4565 -0.0830
   66MOL   C14636676   2.507   6.965   7.592 -0.2569 -0.2149  0.2599
   66MOL   C14736677   2.484   6.829   7.540 -0.1825 -0.1573  0.6424
   66MOL   N14836678   2.398   6.832   7.435  0.6313  0.5561 -0.2235
   66MOL   C14936679   2.372   6.722   7.344  0.1887 -0.4515  0.3269
   66MOL   C15036680   2.431   6.593   7.363 -0.2646 -0.1297  0.2575
   66MOL   C15136681   2.405   6.496   7.264 -0.9078 -0.1309  0.2010
   66MOL   C15236682   2.321   6.520   7.155 -0.1678 -0.8354  0.8627
   66MOL   N15336683   2.280   6.409   7.073  0.0518  0.4264  0.4282
   66MOL   C15436684   2.267   6.649   7.137 -0.3391  0.1717 -0.5993
   66MOL   C15536685   2.303   6.746   7.231  0.5001 -0.2947 -0.1582
   66MOL   O15636686   2.522   6.721   7.589 -0.0875 -0.2124 -0.2608
   66MOL   C15736687   2.504   7.077   7.500  0.8166  0.3677  0.5679
   66MOL   C15836688   2.527   7.199   7.558 -0.5631  1.0460  0.1583
   66MOL   O15936689   2.587   7.467   7.667  0.3800  1.0132 -0.2594
   66MOL   H16036690   2.580   7.124   7.885 -0.3720 -1.4910  0.5888
   66MOL   H16136691   2.529   6.904   7.799 -1.3287 -0.3544 -0.0308
   66MOL   H16236692   2.365   6.924   7.409 -2.6116 -0.2193  0.8548
   66MOL   H16336693   2.499   6.564   7.442  0.2344  0.8334  0.1842
   66MOL   H16436694   2.439   6.395   7.279  1.6088  1.0239  2.8180
   66MOL   H16536695   2.270   6.319   7.118  1.1640  0.4594  0.7584
   66MOL   H16636696   2.193   6.680   7.065  0.2025  0.8856 -0.8491
   66MOL   H16736697   2.259   6.845   7.230 -0.9013 -0.9093 -0.2646
   66MOL   H16836698   2.489   7.071   7.394  0.2871 -1.9567  0.7313
   66MOL   H16936699   2.553   7.280   7.492  0.7883 -0.9276 -1.8183
   66MOL   C17036700   2.278   6.405   6.939 -0.0246  0.0697 -1.0282
   66MOL   C17136701   2.259   6.274   6.878  0.0561 -0.8457  0.3221
   66MOL   C17236702   2.138   6.207   6.879  0.9358 -0.5867  0.0165
   66MOL   C17336703   2.118   6.079   6.829 -0.3948  0.6415  0.7514
   66MOL   C17436704   2.224   6.011   6.765 -0.2686  0.7040 -0.2192
   66MOL   C17536705   2.212   5.868   6.717 -0.2525 -0.4965 -0.0049
   66MOL   N17636706   2.093   5.811   6.722 -0.2441  0.5220  0.0149
   66MOL   C17736707   2.045   5.680   6.680 -0.0786 -0.0286  0.4118
   66MOL   C17836708   1.913   5.647   6.719 -0.1089  0.1071 -0.3011
   66MOL   C17936709   1.857   5.523   6.680 -0.6115  0.4088  0.0756
   66MOL   C18036710   1.929   5.440   6.592  0.8460  0.1353  0.8414
   66MOL   N18136711   1.887   5.314   6.544  0.2180 -0.2057 -0.0550
   66MOL   C18236712   2.062   5.468   6.563 -0.4857 -0.6586 -0.3714
   66MOL   C18336713   2.124   5.584   6.610  0.1208  0.2070  0.7786
   66MOL   O18436714   2.316   5.806   6.683 -0.3516 -0.0776 -0.0700
   66MOL   C18536715   2.344   6.080   6.756 -0.3836 -0.3192 -0.1347
   66MOL   C18636716   2.361   6.209   6.814  0.3430  0.4227  0.7987
   66MOL   O18736717   2.299   6.505   6.868  0.2316  0.2170 -0.3480
   66MOL   H18836718   2.055   6.248   6.935  0.8293 -0.7727 -0.0067
   66MOL   H18936719   2.023   6.029   6.841  0.8220 -2.6058 -2.1211
   66MOL   H19036720   2.019   5.876   6.747  1.0070  1.5382  1.1408
   66MOL   H19136721   1.853   5.717   6.776  1.2065 -0.6698  2.1279
   66MOL   H19236722   1.758   5.489   6.709 -0.2856 -0.8373 -0.2113
   66MOL   H19336723   1.948   5.234   6.551 -1.8389 -1.8188 -0.1796
   66MOL   H19436724   2.124   5.402   6.505  1.5036 -0.5127  1.5309
   66MOL   H19536725   2.226   5.600   6.581 -0.0683  0.9802  0.5352
   66MOL   H19636726   2.431   6.033   6.712  0.7207  0.2946  1.3510
   66MOL   H19736727   2.457   6.258   6.810  1.1621 -1.0353  1.8321
   66MOL   C19836728   1.773   5.282   6.486 -1.2002 -0.4408  0.5967
   66MOL   C19936729   1.753   5.136   6.449  0.6446  0.9327 -0.3209
   66MOL   C20036730   1.849   5.040   6.486 -0.8688  0.2121 -0.3664
   66MOL   C20136731   1.833   4.903   6.445 -1.1948  0.1305 -0.4435
   66MOL   C20236732   1.722   4.863   6.371 -1.1649  0.0519  0.5106
   66MOL   C20336733   1.689   4.718   6.348  0.7128 -0.4840  0.1966
   66MOL   N20436734   1.783   4.626   6.343 -0.4429 -0.8462 -0.3290
   66MOL   C20536735   1.761   4.486   6.332  0.4148  0.6576  0.7049
   66MOL   C20636736   1.653   4.427   6.258  0.0474 -0.7033  0.4939
   66MOL   C20736737   1.647   4.289   6.241  0.5914 -0.1416  0.4123
   66MOL   C20836738   1.734   4.211   6.319 -0.5594 -0.3339  0.7513
   66MOL   N20936739   1.719   4.076   6.317 -0.1520  0.4915 -0.2290
   66MOL   C21036740   1.837   4.265   6.401 -0.1404 -0.4722  1.2704
   66MOL   C21136741   1.846   4.405   6.405 -0.0257  0.2734 -0.0827
   66MOL   O21236742   1.569   4.686   6.333 -0.8582 -0.0444 -0.2784
   66MOL   C21336743   1.627   4.960   6.333  0.3962  0.2445  0.0845
   66MOL   C21436744   1.647   5.095   6.365 -0.3548  0.4101 -0.1096
   66MOL   O21536745   1.685   5.366   6.465  0.5854 -0.0971  0.0934
   66MOL   H21636746   1.925   5.071   6.556 -0.1408  1.0748 -1.5103
   66MOL   H21736747   1.907   4.835   6.485 -0.2380  1.1114 -0.5237
   66MOL   H21836748   1.879   4.657   6.336 -0.3885 -0.7227  0.8479
   66MOL   H21936749   1.593   4.484   6.189  0.7473  1.0234  1.2886
   66MOL   H22036750   1.568   4.244   6.183  0.4258 -2.9645  2.7119
   66MOL   H22136751   1.635   4.044   6.271 -0.0788 -1.5556  0.9972
   66MOL   H22236752   1.915   4.212   6.452  0.7279 -0.6416 -0.2030
   66MOL   H22336753   1.914   4.459   6.469 -2.0790  1.7941  0.8965
   66MOL   H22436754   1.542   4.935   6.271 -0.0738  2.6895 -0.2868
   66MOL   H22536755   1.586   5.174   6.325 -1.5844 -1.2052 -1.4791
   66MOL   C22636756   1.804   3.976   6.341  0.4217  0.4183 -0.1122
   66MOL   C22736757   1.754   3.844   6.298 -0.9493 -0.2406  0.3702
   66MOL   C22836758   1.665   3.779   6.383  1.4398  0.5375 -0.2632
   66MOL   C22936759   1.604   3.658   6.339 -0.5557  0.1023  0.0382
   66MOL   C23036760   1.640   3.600   6.221  0.4338  0.7929 -0.6643
   66MOL   C23136761   1.590   3.459   6.176  0.5760 -1.2731  0.5158
   66MOL   N23236762   1.611   3.369   6.276  0.2220  0.0124  0.2925
   66MOL   C23336763   1.570   3.235   6.286  0.2449 -0.5459  0.4551
   66MOL   C23436764   1.673   3.140   6.303  0.8888  0.0203 -0.6958
   66MOL   C23536765   1.641   3.003   6.320  0.3272 -0.6324  0.6824
   66MOL   C23636766   1.503   2.966   6.313 -0.1470  0.8154  0.6352
   66MOL   N23736767   1.488   2.829   6.307 -0.0462  0.3145  1.3384
   66MOL   C23836768   1.402   3.063   6.295 -0.4208  0.4699  0.5965
   66MOL   C23936769   1.437   3.200   6.279 -0.1197  0.9791 -0.8876
   66MOL   O24036770   1.540   3.431   6.070  0.0694  0.4624  0.1330
   66MOL   C24136771   1.719   3.677   6.132 -0.0824 -0.1937  0.0506
   66MOL   C24236772   1.779   3.797   6.170 -0.9663 -0.0374  0.1893
   66MOL   O24336773   1.920   3.988   6.370 -0.0010  0.5498 -0.1167
   66MOL   H24436774   1.641   3.819   6.480  1.2249 -3.3921  1.4145
   66MOL   H24536775   1.559   3.604   6.421 -1.4351  1.6990  0.6314
   66MOL   H24636776   1.683   3.402   6.338  0.4267  0.7351 -0.3162
   66MOL   H24736777   1.776   3.169   6.311  0.5097  1.6270 -1.4090
   66MOL   H24836778   1.718   2.928   6.334 -1.3158 -2.2137  1.5458
   66MOL   H24936779   1.508   2.780   6.221 -1.0922 -1.0067  1.8234
   66MOL   H25036780   1.298   3.036   6.286 -0.2731 -0.2216  0.8621
   66MOL   H25136781   1.364   3.279   6.273 -1.2105  0.0718  0.1640
   66MOL   H25236782   1.738   3.649   6.029  1.0968  0.8017 -0.0142
   66MOL   H25336783   1.858   3.842   6.111  0.0132 -0.8331  0.8673
   66MOL   C25436784   1.409   2.764   6.391 -0.2490 -0.1507  0.1941
   66MOL   C25536785   1.369   2.622   6.358 -0.1623  0.3713 -0.3196
   66MOL   C25636786   1.396   2.574   6.227  0.1699  0.6793  0.0334
   66MOL   C25736787   1.351   2.448   6.185  0.1426  0.4872 -0.3368
   66MOL   C25836788   1.280   2.362   6.264  0.4274  0.0782  0.1654
   66MOL   C25936789   1.225   2.234   6.214  0.2613  0.0791  0.1190
   66MOL   N26036790   1.105   2.201   6.268  0.3840  0.1148 -0.7073
   66MOL   C26136791   1.026   2.095   6.237 -0.5100  0.3050 -0.0381
   66MOL   C26236792   1.006   2.057   6.100 -0.6137  0.5889 -0.3499
   66MOL   C26336793   0.923   1.945   6.082  0.6999 -0.0854 -0.5565
   66MOL   C26436794   0.865   1.871   6.180 -0.1765 -0.3238 -0.0655
   66MOL   N26536795   0.783   1.752   6.164 -0.9907 -0.6347  0.2188
   66MOL   C26636796   0.883   1.912   6.314 -0.0489  0.4868 -0.2462
   66MOL   C26736797   0.963   2.023   6.343  0.2949  0.3947  0.4474
   66MOL   O26836798   1.280   2.171   6.122  0.1156 -0.6318 -0.2363
   66MOL   C26936799   1.256   2.406   6.401  0.2995 -0.8640  0.6911
   66MOL   C27036800   1.303   2.533   6.447 -0.2697  0.4010 -0.0566
   66MOL   O27136801   1.372   2.819   6.499  0.3861 -0.6808  0.0879
   66MOL   H27236802   1.433   2.640   6.151 -1.2392  0.6297 -0.7154
   66MOL   H27336803   1.370   2.411   6.085  2.0377 -1.8548  0.8289
   66MOL   H27436804   1.085   2.260   6.348  1.7901 -0.8628  0.4003
   66MOL   H27536805   1.046   2.113   6.018  2.1529 -1.2419 -0.3047
   66MOL   H27636806   0.903   1.914   5.980  0.9462 -0.3405 -0.5300
   66MOL   H27736807   0.742   1.712   6.248 -0.8705  0.2113  0.6950
   66MOL   H27836808   0.834   1.858   6.393  2.8355 -0.3838  0.9853
   66MOL   H27936809   0.992   2.052   6.443  1.3883 -1.5147  0.7040
   66MOL   H28036810   1.196   2.340   6.462  1.7907 -1.9077  1.0444
   66MOL   H28136811   1.291   2.574   6.546 -1.4188  0.7607 -0.3267
   66MOL   C28236812   0.790   1.655   6.085  0.5079  0.7787  0.7160
   66MOL   C28336813   0.732   1.527   6.136  0.2812  0.3260  0.0599
   66MOL   C28436814   0.819   1.421   6.166 -0.0294 -0.7665 -0.1417
   66MOL   C28536815   0.759   1.300   6.220 -0.8020 -0.1073 -0.1483
   66MOL   C28636816   0.627   1.292   6.263  0.1338  0.2353 -0.1884
   66MOL   C28736817   0.584   1.194   6.364 -0.4985 -0.0395  0.3677
   66MOL   N28836818   0.668   1.178   6.467  0.3517  0.2158 -0.2787
   66MOL   C28936819   0.646   1.125   6.597  0.0079  0.3443  0.2380
   66MOL   C29036820   0.636   0.984   6.619  0.2569  0.6564  0.4022
   66MOL   C29136821   0.650   0.928   6.754 -0.0026 -0.3508  0.6686
   66MOL   C29236822   0.656   1.015   6.865  0.3765  0.1172 -0.4989
   66MOL   N29336823   0.656   0.954   6.998 -0.0635 -0.1506  0.1888
   66MOL   C29436824   0.663   1.153   6.845  0.2079 -0.3806 -0.1471
   66MOL   C29536825   0.673   1.204   6.715  0.3803 -0.1520 -0.0809
   66MOL   O29636826   0.471   1.149   6.364 -0.3501 -0.1714  0.1934
   66MOL   C29736827   0.543   1.392   6.223 -0.0758  0.1415  0.0980
   66MOL   C29836828   0.597   1.510   6.166  0.3611 -0.4054 -0.0097
   66MOL   O29936829   0.833   1.662   5.977 -0.1037  0.3437  0.5894
   66MOL   H30036830   0.924   1.439   6.149  0.0374  1.6634  2.4741
   66MOL   H30136831   0.833   1.227   6.250  0.7573  1.1105 -0.9657
   66MOL   H30236832   0.753   1.233   6.462  0.1168  0.6378  0.3867
   66MOL   H30336833   0.621   0.921   6.533 -1.8774  1.5128  0.0968
   66MOL   H30436834   0.645   0.822   6.770 -0.7020 -0.4347 -0.0450
   66MOL   H30536835   0.604   0.869   7.015 -0.0089  0.1029  1.7179
   66MOL   H30636836   0.679   1.229   6.921  0.4989  0.0494 -0.6353
   66MOL   H30736837   0.689   1.308   6.692  2.4031 -0.2950  0.5447
   66MOL   H30836838   0.440   1.391   6.257 -0.0151 -1.5608  0.2929
   66MOL   H30936839   0.540   1.601   6.156  1.5799  0.2703 -1.0185
   66MOL   C31036840   0.704   1.000   7.117  0.4166 -0.0248 -0.3820
   66MOL   C31136841   0.802   1.112   7.130  0.0842 -0.5443  0.0114
   66MOL   C31236842   0.906   1.134   7.030 -0.1838 -0.3216 -0.8301
   66MOL   C31336843   1.021   1.215   7.058  0.5806  0.6789  0.6362
   66MOL   C31436844   1.025   1.289   7.175  0.2514  0.9581 -0.0363
   66MOL   C31536845   1.140   1.370   7.214  0.8898 -1.0168  0.1810
   66MOL   N31636846   1.117   1.477   7.291  0.1635  0.3018 -0.0869
   66MOL   C31736847   1.212   1.559   7.350  1.0014 -0.2993  0.9391
   66MOL   C31836848   1.181   1.693   7.350  0.0804  0.2099 -0.0899
   66MOL   C31936849   1.274   1.792   7.390 -0.1992 -0.5543 -0.1386
   66MOL   C32036850   1.399   1.752   7.449  0.3418 -0.1535  0.2629
   66MOL   N32136851   1.483   1.850   7.507 -0.2879 -0.0720 -0.0490
   66MOL   C32236852   1.432   1.614   7.443  0.9466 -0.2510 -0.1490
   66MOL   C32336853   1.340   1.523   7.403  0.5424 -0.1720 -0.1031
   66MOL   O32436854   1.251   1.336   7.174  0.2738 -0.8306 -0.1069
   66MOL   C32536855   0.922   1.281   7.266  0.5735 -0.6500  0.2709
   66MOL   C32636856   0.812   1.196   7.248  0.0845  0.7226 -0.3564
   66MOL   O32736857   0.655   0.964   7.224 -0.5203 -0.1844  0.0148
   66MOL   H32836858   0.915   1.072   6.942  2.0315  1.0934 -1.6558
   66MOL   H32936859   1.104   1.228   6.989  1.1496  1.7772  1.5014
   66MOL   H33036860   1.021   1.507   7.289  0.6388  1.8063 -3.5578
   66MOL   H33136861   1.089   1.719   7.300  0.7937  1.3221 -0.8620
   66MOL   H33236862   1.243   1.895   7.389  0.3093 -0.3661  1.5642
   66MOL   H33336863   1.471   1.945   7.477 -3.9401 -0.6647 -0.7284
   66MOL   H33436864   1.528   1.573   7.473  0.1625  0.1535  3.1320
   66MOL   H33536865   1.362   1.417   7.408 -0.5160 -0.3385  1.3465
   66MOL   H33636866   0.928   1.343   7.354  1.3099 -1.0499  0.5009
   66MOL   H33736867   0.738   1.190   7.326  0.6106 -0.5112  0.0517
   66MOL   C33836868   1.564   1.825   7.613 -0.6201 -0.4240  0.1386
   66MOL   C33936869   1.638   1.944   7.661  0.6412 -0.1184  0.1537
   66MOL   C34036870   1.700   1.932   7.790 -1.0553  0.1438  0.0455
   66MOL   C34136871   1.754   2.043   7.850 -0.0523  0.1409 -0.0740
   66MOL   C34236872   1.763   2.166   7.779  0.5256 -0.4620 -0.4982
   66MOL   C34336873   1.826   2.281   7.853 -0.0465 -0.4379  0.1697
   66MOL   N34436874   1.900   2.358   7.775  0.2815 -0.5327 -0.7233
   66MOL   C34536875   1.954   2.491   7.792  0.3887  0.2436 -0.1010
   66MOL   C34636876   1.912   2.574   7.901 -0.4993 -0.6509  0.5537
   66MOL   C34736877   1.970   2.704   7.920  0.1357 -0.0956 -0.0322
   66MOL   C34836878   2.067   2.754   7.836 -0.0955 -0.8804 -0.0954
   66MOL   N34936879   2.132   2.881   7.855 -0.2279  0.2809 -0.0482
   66MOL   C35036880   2.108   2.673   7.732  0.0104 -0.4953 -0.3792
   66MOL   C35136881   2.055   2.544   7.714  0.7439  0.7310  0.0063
   66MOL   O35236882   1.837   2.283   7.975  0.4760  0.1191  0.8411
   66MOL   C35336883   1.721   2.173   7.646 -0.7786  0.0270 -0.5140
   66MOL   C35436884   1.650   2.064   7.587  0.0774  0.5178 -0.1946
   66MOL   O35536885   1.594   1.715   7.663 -0.6871 -0.5335  0.4148
   66MOL   H35636886   1.701   1.846   7.854 -1.5429 -0.4061 -0.6719
   66MOL   H35736887   1.797   2.033   7.948  0.1600 -1.3210 -0.3027
   66MOL   H35836888   1.898   2.331   7.678  1.8146 -0.6998 -0.7080
   66MOL   H35936889   1.831   2.546   7.968  0.1390  1.2744  2.1782
   66MOL   H36036890   1.931   2.754   8.008 -0.8248  0.5211 -0.7969
   66MOL   H36136891   2.186   2.916   7.777 -0.6990 -0.2817 -0.6380
   66MOL   H36236892   2.188   2.714   7.672  2.3452 -1.0517  2.2743
   66MOL   H36336893   2.117   2.481   7.652  1.4251  2.0275 -0.6521
   66MOL   H36436894   1.741   2.265   7.595  1.3970 -0.6610 -0.9884
   66MOL   H36536895   1.604   2.070   7.489 -1.6698 -1.5931  0.4725
   66MOL   C36636896   2.110   2.975   7.950 -0.0030  0.2270  0.2397
   66MOL   C36736897   2.161   3.110   7.905 -0.2144 -0.1052  0.3575
   66MOL   C36836898   2.275   3.117   7.829  0.0809  0.4693 -0.2462
   66MOL   C36936899   2.338   3.237   7.801 -0.2349  0.6313 -0.4117
   66MOL   C37036900   2.266   3.356   7.837 -0.6187  0.0975  0.4608
   66MOL   C37136901   2.307   3.490   7.786 -0.0464  0.7467  0.2765
   66MOL   N37236902   2.432   3.502   7.750 -0.5754  0.3936 -0.6085
   66MOL   C37336903   2.493   3.589   7.656  0.4354  0.3206 -0.1396
   66MOL   C37436904   2.434   3.695   7.585 -0.2875 -0.6241 -0.2430
   66MOL   C37536905   2.511   3.772   7.497  0.9488  0.6745  0.4627
   66MOL   C37636906   2.648   3.750   7.486 -0.0418 -0.1923  0.3780
   66MOL   N37736907   2.715   3.831   7.401 -0.1477 -0.1838 -0.3376
   66MOL   C37836908   2.701   3.646   7.560  0.4955  0.3230  0.5104
   66MOL   C37936909   2.626   3.562   7.634  0.0366  0.1768 -0.3450
   66MOL   O38036910   2.234   3.589   7.789  0.5437 -0.3845  0.4010
   66MOL   C38136911   2.153   3.352   7.916 -0.1559 -0.1764 -0.1258
   66MOL   C38236912   2.099   3.224   7.953  0.0438  0.2131  0.4782
   66MOL   O38336913   2.050   2.954   8.054 -0.5108 -0.4770 -0.0895
   66MOL   H38436914   2.327   3.029   7.795 -1.2123  0.0233 -1.1377
   66MOL   H38536915   2.417   3.235   7.726  1.2583  2.0463  1.0726
   66MOL   H38636916   2.489   3.420   7.767  1.5692  2.0256  0.2873
   66MOL   H38736917   2.327   3.703   7.600  0.1769  2.7504  1.5767
   66MOL   H38836918   2.456   3.835   7.429  0.7701 -1.0867 -1.0623
   66MOL   H38936919   2.663   3.867   7.323  0.1037  0.0112 -0.4138
   66MOL   H39036920   2.807   3.626   7.571  0.3275 -0.4596  0.7946
   66MOL   H39136921   2.678   3.487   7.690  0.9882  0.6903 -0.5216
   66MOL   H39236922   2.099   3.441   7.945 -0.5673 -0.3329 -0.4030
   66MOL   H39336923   2.016   3.221   8.023 -1.3133  0.0112 -1.0965
   66MOL   C39436924   2.846   3.856   7.403  0.3868 -0.2315 -0.3134
   66MOL   C39536925   2.910   3.869   7.265  0.1213 -0.1980 -0.1841
   66MOL   C39636926   2.831   3.855   7.144  0.1165 -0.2353 -0.0812
   66MOL   C39736927   2.902   3.866   7.020 -0.3779 -0.9286 -0.3097
   66MOL   C39836928   3.041   3.890   7.013  0.3055 -0.1513 -0.2139
   66MOL   C39936929   3.110   3.922   6.884  0.4665  0.4074 -0.5488
   66MOL   N40036930   3.162   4.040   6.867 -0.1494 -0.4511  0.1029
   66MOL   C40136931   3.175   4.101   6.744 -0.0173 -0.3594 -0.0176
   66MOL   C40236932   3.298   4.090   6.681 -0.2597  0.5608 -0.2878
   66MOL   C40336933   3.319   4.162   6.567 -0.2195 -0.0222  1.1389
   66MOL   C40436934   3.217   4.244   6.511 -0.0134  0.0620 -0.8609
   66MOL   N40536935   3.243   4.317   6.389 -0.0104  0.1933 -0.4900
   66MOL   C40636936   3.088   4.241   6.567 -0.4534  0.6501  0.5977
   66MOL   C40736937   3.071   4.176   6.694 -0.4583  0.0180  0.2653
   66MOL   O40836938   3.098   3.837   6.795  0.1911 -0.5180 -0.2886
   66MOL   C40936939   3.113   3.896   7.135  0.1704 -0.0946 -0.1117
   66MOL   C41036940   3.050   3.886   7.253 -0.4850 -0.4021 -0.2913
   66MOL   O41136941   2.911   3.865   7.509  0.5178 -0.3459 -0.0416
   66MOL   H41236942   2.723   3.851   7.134  0.3247 -0.7584 -2.5051
   66MOL   H41336943   2.850   3.869   6.926  0.7788  0.6046 -0.9123
   66MOL   H41436944   3.161   4.101   6.948 -2.0207 -3.0781  2.1238
   66MOL   H41536945   3.384   4.040   6.723  0.2153 -1.0302 -3.0205
   66MOL   H41636946   3.409   4.150   6.509 -2.4907  2.1377 -3.1289
   66MOL   H41736947   3.300   4.267   6.322 -0.3277 -1.3416  0.3695
   66MOL   H41836948   2.999   4.283   6.520 -0.6851 -1.0659 -0.5184
   66MOL   H41936949   2.973   4.184   6.738 -1.7364  0.8007 -2.6189
   66MOL   H42036950   3.220   3.906   7.130  0.1926 -0.4349 -0.3188
   66MOL   H42136951   3.109   3.896   7.343 -0.0139  3.2184 -0.9226
   66MOL   C42236952   3.211   4.441   6.353  0.1080 -0.1802 -1.0476
   66MOL   C42336953   3.136   4.527   6.455  0.0241 -0.4444  0.3476
   66MOL   C42436954   3.199   4.572   6.574 -0.8213 -0.2667  0.0983
   66MOL   C42536955   3.126   4.651   6.667 -0.3467  0.1716  0.4085
   66MOL   C42636956   2.986   4.675   6.642 -0.6311 -0.9507 -0.0432
   66MOL   C42736957   2.911   4.753   6.745  0.5459 -0.8165 -0.7730
   66MOL   N42836958   2.896   4.697   6.863  0.6050  0.4293 -0.1463
   66MOL   C42936959   2.808   4.736   6.967  0.2973  0.0881 -0.2037
   66MOL   C43036960   2.852   4.714   7.100  0.2538  0.1217  0.7002
   66MOL   C43136961   2.779   4.764   7.209 -0.0911  0.8909  0.3438
   66MOL   C43236962   2.663   4.837   7.187  0.1106 -0.1366  0.0059
   66MOL   N43336963   2.601   4.897   7.305 -0.0019 -1.2108 -0.5056
   66MOL   C43436964   2.609   4.848   7.056  0.0964 -0.3651  0.0649
   66MOL   C43536965   2.685   4.805   6.947 -0.0517 -0.2871 -0.1600
   66MOL   O43636966   2.860   4.859   6.716 -0.0549  0.3180  0.3506
   66MOL   C43736967   2.923   4.624   6.530 -0.5924  0.3078 -0.2652
   66MOL   C43836968   3.003   4.564   6.433  0.4603  0.7985  0.2655
   66MOL   O43936969   3.252   4.490   6.249  0.2491  0.3053  0.3319
   66MOL   H44036970   3.303   4.550   6.595 -0.0491  1.3639 -1.8206
   66MOL   H44136971   3.174   4.682   6.759  0.2561 -1.3837  0.6338
   66MOL   H44236972   2.962   4.626   6.892  0.4075 -0.1854 -1.2065
   66MOL   H44336973   2.947   4.664   7.116  1.4194  1.7710 -0.8570
   66MOL   H44436974   2.815   4.740   7.308 -1.2983  1.0849  0.8372
   66MOL   H44536975   2.642   4.862   7.390 -0.0562 -3.2646 -1.2730
   66MOL   H44636976   2.524   4.912   7.036  0.7835  1.4230  2.5775
   66MOL   H44736977   2.653   4.840   6.850  0.5552  1.4275  0.2469
   66MOL   H44836978   2.820   4.643   6.507 -0.3779  1.8870  0.0156
   66MOL   H44936979   2.950   4.515   6.352  1.8712 -0.5875  0.1524
   66MOL   C45036980   2.522   5.005   7.317  0.6319 -0.4335  0.2592
   66MOL   C45136981   2.539   5.078   7.444  0.6443  0.0453 -0.4991
   66MOL   C45236982   2.475   5.201   7.460 -1.0209 -0.3677 -0.5522
   66MOL   C45336983   2.501   5.278   7.576 -0.1759  0.1850  0.7147
   66MOL   C45436984   2.587   5.237   7.682 -0.3084 -0.0714  0.5885
   66MOL   C45536985   2.605   5.319   7.809  0.3179 -0.4855  0.1901
   66MOL   N45636986   2.729   5.357   7.840  0.0532  0.6604  0.1355
   66MOL   C45736987   2.757   5.439   7.954 -0.7013  0.1401  0.1642
   66MOL   C45836988   2.725   5.410   8.085  0.1861  0.3036  0.2578
   66MOL   C45936989   2.762   5.500   0.042  0.1169 -0.6703  0.4722
   66MOL   C46036990   2.841   5.612   0.017 -0.3340 -0.6264  0.0788
   66MOL   N46136991   2.869   5.698   0.129 -0.3196 -0.4987  0.0955
   66MOL   C46236992   2.887   5.637   8.036  0.4825 -0.4750 -0.0272
   66MOL   C46336993   2.847   5.542   7.936  0.4869  0.2873 -0.3962
   66MOL   O46436994   2.499   5.346   7.876 -0.2259 -0.0564 -0.3759
   66MOL   C46536995   2.646   5.112   7.666  0.1268 -0.1040 -0.7687
   66MOL   C46636996   2.613   5.026   7.557 -0.1630  0.2188  0.4512
   66MOL   O46736997   2.428   5.028   7.241 -0.1071 -0.2958 -0.6623
   66MOL   H46836998   2.410   5.244   7.385  0.0138  2.3614  0.0791
   66MOL   H46936999   2.441   5.367   7.577 -0.5155  0.0179 -1.9005
   66MOL   H47037000   2.793   5.341   7.764  0.7024  1.2648  0.5559
   66MOL   H47137001   2.655   5.336   8.121  1.2266  0.6328  3.0608
   66MOL   H47237002   2.724   5.473   0.139 -1.7341 -0.9404 -0.2937
   66MOL   H47337003   2.852   5.658   0.220  1.5264 -0.0721  0.6551
   66MOL   H47437004   2.943   5.721   7.999  1.8155 -1.4958 -0.3678
   66MOL   H47537005   2.888   5.556   7.837  0.7744 -0.1561 -0.3412
   66MOL   H47637006   2.719   5.076   7.737 -0.4159  2.1197  0.9873
   66MOL   H47737007   2.666   4.932   7.562 -1.6470 -0.6776 -0.4326
   66MOL   C47837008   2.882   5.834   0.122  0.1961 -0.7634 -0.0666
   66MOL   C47937009   2.906   5.899   0.252  0.1386  0.1857  0.4720
   66MOL   C48037010   2.968   5.833   0.364  0.9427 -0.0730  0.3294
   66MOL   C48137011   2.987   5.908   0.485 -0.0559  0.0456  0.1220
   66MOL   C48237012   2.965   6.049   0.489 -0.4273  0.1450 -0.1359
   66MOL   C48337013   3.000   6.124   0.613 -0.6498 -0.0773 -0.0630
   66MOL   N48437014   3.105   6.072   0.684 -0.2151  0.2266 -0.7024
   66MOL   C48537015   3.155   6.104   0.819 -0.8260 -0.2324  0.0197
   66MOL   C48637016   3.296   6.088   0.852  0.4912 -0.5233 -0.2538
   66MOL   C48737017   3.341   6.130   0.977  0.4616 -0.0968 -0.6768
   66MOL   C48837018   3.247   6.156   1.082  0.4865  0.7699  0.8804
   66MOL   N48937019   3.306   6.177   1.216 -0.2870  0.3961 -0.8349
   66MOL   C49037020   3.106   6.161   1.055  0.6206  0.3030  0.0767
   66MOL   C49137021   3.066   6.143   0.920  0.1201 -1.0177 -0.8639
   66MOL   O49237022   2.939   6.230   0.643  0.0818  0.0498  0.1017
   66MOL   C49337023   2.918   6.115   0.370 -0.4391 -0.8942  0.2831
   66MOL   C49437024   2.872   6.038   0.269  0.6644  0.2568 -0.3455
   66MOL   O49537025   2.862   5.903   0.021 -0.3067  0.4550 -0.1843
   66MOL   H49637026   3.008   5.733   0.355  1.3107  0.1915 -1.0987
   66MOL   H49737027   3.024   5.851   0.570  1.4058 -0.9303 -1.1452
   66MOL   H49837028   3.148   5.992   0.640 -0.9812 -0.5687 -0.0227
   66MOL   H49937029   3.370   6.067   0.776  0.9677 -0.5275  0.2074
   66MOL   H50037030   3.448   6.127   0.990  0.7146  2.1140 -1.9709
   66MOL   H50137031   3.399   6.139   1.227 -0.3545  0.0235 -1.4957
   66MOL   H50237032   3.034   6.187   1.131  2.3904  0.2501  1.8007
   66MOL   H50337033   2.960   6.146   0.900 -0.1168  0.1186  0.4610
   66MOL   H50437034   2.896   6.220   0.358 -0.2889 -1.0554 -1.5654
   66MOL   H50537035   2.834   6.099   0.188 -0.3312  2.7983  1.9662
   66MOL   C50637036   3.249   6.208   1.336 -0.3865  0.0446  0.1272
   66MOL   C50737037   3.338   6.215   1.453  0.1305 -0.0099  0.1359
   66MOL   C50837038   3.298   6.302   1.554  0.4831  0.5875 -0.4015
   66MOL   C50937039   3.388   6.330   1.658  0.2708  0.3964  0.2906
   66MOL   C51037040   3.515   6.265   1.669  0.2616 -0.2140  0.3556
   66MOL   C51137041   3.613   6.301   1.782  1.0122 -0.4093  0.1022
   66MOL   N51237042   3.548   6.280   1.902 -0.0316 -0.7693 -0.3014
   66MOL   C51337043   3.601   6.285   2.033 -0.6738 -0.4351 -0.2104
   66MOL   C51437044   3.742   6.270   2.061 -0.1734  0.0025  0.4813
   66MOL   C51537045   3.788   6.283   2.195 -0.6099  0.9388  0.0889
   66MOL   C51637046   3.701   6.307   2.299 -1.0077 -0.3798 -0.0200
   66MOL   N51737047   3.746   6.313   2.434 -0.5851 -0.7953  0.4979
   66MOL   C51837048   3.567   6.335   2.262  0.1757  0.3527  0.6360
   66MOL   C51937049   3.516   6.313   2.140  0.0374 -0.4262 -0.3519
   66MOL   O52037050   3.728   6.342   1.768 -0.1238 -0.1424 -0.4725
   66MOL   C52137051   3.554   6.179   1.564  1.1675  0.0120 -0.4034
   66MOL   C52237052   3.466   6.156   1.455 -0.2061  1.2753 -0.7638
   66MOL   O52337053   3.130   6.242   1.346  0.1826  0.3994 -0.2479
   66MOL   H52437054   3.204   6.356   1.557  0.7801  1.2187 -1.8936
   66MOL   H52537055   3.369   6.398   1.739  3.0916  1.6416 -0.0268
   66MOL   H52637056   3.454   6.247   1.887 -0.4387 -0.6151  1.7383
   66MOL   H52737057   3.816   6.255   1.984 -0.2309  0.0127  0.4238
   66MOL   H52837058   3.894   6.279   2.214 -0.7033 -0.6672  0.3378
   66MOL   H52937059   3.736   6.400   2.484  0.4359 -1.1275  1.2729
   66MOL   H53037060   3.500   6.353   2.345 -1.0169 -0.0137 -0.2281
   66MOL   H53137061   3.411   6.335   2.125 -0.0839 -0.6989  0.0910
   66MOL   H53237062   3.652   6.133   1.571  0.5158 -1.3536  0.0265
   66MOL   H53337063   3.499   6.089   1.377 -0.1765 -1.6402  1.6501
   66MOL   C53437064   3.824   6.225   2.491  0.5827  0.1842 -1.0126
   66MOL   C53537065   3.897   6.272   2.613  0.5141  0.4249 -0.3167
   66MOL   C53637066   3.989   6.193   2.681  0.2936  0.7033 -0.1661
   66MOL   C53737067   4.039   6.233   2.809  0.4675 -0.2875 -0.1240
   66MOL   C53837068   3.998   6.347   2.874 -0.5519 -0.2317 -0.1021
   66MOL   C53937069   4.031   6.394   3.018  0.0282 -0.7404  0.1717
   66MOL   N54037070   4.160   6.381   3.060 -0.3455  0.0220 -0.3858
   66MOL   C54137071   4.222   6.411   3.186  0.2212 -0.5432 -0.1345
   66MOL   C54237072   4.175   6.489   3.290  0.1923  0.3807  0.5704
   66MOL   C54337073   4.249   6.505   3.412  0.6393  0.1471 -0.2720
   66MOL   C54437074   4.374   6.442   3.416  0.3432  0.4982  0.0885
   66MOL   N54537075   4.446   6.443   3.534 -0.5242 -0.3672 -0.1071
   66MOL   C54637076   4.432   6.374   3.305 -0.1496  0.3876 -0.1332
   66MOL   C54737077   4.357   6.366   3.190  0.5591  0.4558  0.1242
   66MOL   O54837078   3.944   6.446   3.085 -0.3185  0.0259  0.3320
   66MOL   C54937079   3.914   6.435   2.802 -0.1957  0.5345 -0.6846
   66MOL   C55037080   3.860   6.397   2.674  0.8496 -0.4721 -0.7136
   66MOL   O55137081   3.837   6.108   2.452 -0.0623 -0.0487 -0.4336
   66MOL   H55237082   4.021   6.099   2.639 -0.0310  0.0160  1.1192
   66MOL   H55337083   4.116   6.170   2.853  0.9417  1.5492  1.7366
   66MOL   H55437084   4.222   6.353   2.984  0.3667 -0.4535  0.3605
   66MOL   H55537085   4.077   6.534   3.291  0.5766  1.2240  0.5044
   66MOL   H55637086   4.207   6.552   3.499 -0.0669 -0.1523 -0.4489
   66MOL   H55737087   4.544   6.425   3.550 -0.9441 -1.4402  1.2980
   66MOL   H55837088   4.535   6.340   3.305 -0.0605  0.6286  0.8167
   66MOL   H55937089   4.398   6.316   3.104  0.0311 -0.2571  0.2827
   66MOL   H56037090   3.883   6.526   2.850 -2.3296  0.2608 -1.5230
   66MOL   H56137091   3.784   6.451   2.618 -0.2933 -2.2400 -0.9112
   66MOL   H56237092   4.402   6.476   3.618 -0.0772 -1.9546  0.7708
   67MOL     C137093   5.257   3.258   1.868 -0.8433  0.5890 -0.2322
   67MOL     C237094   5.406   3.250   1.861 -0.2234 -0.3899  0.3048
   67MOL     C337095   5.484   3.345   1.931 -0.3501 -0.5899  0.3870
   67MOL     C437096   5.628   3.329   1.925  0.6759 -0.3167 -0.2660
   67MOL     C537097   5.686   3.221   1.856 -0.1913  0.3305 -0.5349
   67MOL     C637098   5.835   3.219   1.847 -0.4681  0.2438  0.7216
   67MOL     N737099   5.895   3.096   1.827 -0.0936  0.0294 -0.3271
   67MOL     C837100   6.028   3.076   1.791 -0.4705 -0.0534 -0.2825
   67MOL     C937101   6.141   3.154   1.835 -0.2719 -0.0678  0.1146
   67MOL    C1037102   6.271   3.117   1.803  0.0571  0.6581  0.2345
   67MOL    C1137103   6.294   3.008   1.711  0.1948  0.0277 -0.3689
   67MOL    N1237104   6.409   2.981   1.648 -0.1106 -0.0373  0.0545
   67MOL    C1337105   6.182   2.930   1.675 -0.3685  0.4297 -0.0410
   67MOL    C1437106   6.054   2.962   1.707  0.9018 -0.4352  0.5977
   67MOL    O1537107   5.907   3.316   1.854  0.1827 -0.0701 -0.4280
   67MOL    C1637108   5.610   3.138   1.776  0.2551  0.1374  0.6200
   67MOL    C1737109   5.471   3.151   1.785 -0.8652 -0.2698  0.0513
   67MOL    O1837110   5.186   3.339   1.922 -0.1212 -0.2414  0.6081
   67MOL    H1937111   5.437   3.418   1.995  0.1824  0.6877 -0.6387
   67MOL    H2037112   5.685   3.401   1.981 -0.8314  0.9128 -0.2731
   67MOL    H2137113   5.833   3.017   1.821 -4.7580  3.1654  2.7315
   67MOL    H2237114   6.122   3.230   1.909  1.6758 -0.9729  1.5689
   67MOL    H2337115   6.358   3.169   1.841  3.4519 -1.6596 -3.9594
   67MOL    H2437116   6.405   2.914   1.572 -0.3427  0.8604 -0.7330
   67MOL    H2537117   6.194   2.842   1.614 -0.0384  0.6576 -0.3038
   67MOL    H2637118   5.974   2.898   1.672 -0.4056  2.4411 -1.8801
   67MOL    H2737119   5.657   3.059   1.720 -2.0823 -0.5957 -0.3985
   67MOL    H2837120   5.409   3.082   1.730 -1.7347  1.1433 -0.7723
   67MOL    H2937121   5.196   3.186   1.814 -0.8159  1.4142 -1.3981
   67MOL    C3037122   6.536   3.019   1.679  0.2212  0.3097 -0.1917
   67MOL    C3137123   6.644   2.989   1.578 -0.4686  0.9295 -0.3871
   67MOL    C3237124   6.767   3.054   1.582  0.0469  0.0476 -0.8301
   67MOL    C3337125   6.867   3.017   1.495 -0.7678  0.7856 -0.1976
   67MOL    C3437126   6.845   2.924   1.393 -0.3684 -0.0200 -0.2183
   67MOL    C3537127   6.953   2.879   1.299  0.0998 -0.3218 -0.2613
   67MOL    N3637128   7.086   2.903   1.336  0.2314 -0.1512 -0.5779
   67MOL    C3737129   7.204   2.877   1.254 -0.3389  0.2155  0.0049
   67MOL    C3837130   7.211   2.777   1.159 -0.2393  0.3675  0.7069
   67MOL    C3937131   7.335   2.758   1.087  0.9733 -0.0274 -0.4839
   67MOL    C4037132   7.451   2.829   1.109  0.1875  0.4661 -0.3513
   67MOL    N4137133   7.570   2.809   1.027 -0.3016  0.4997  0.2476
   67MOL    C4237134   7.443   2.927   1.212  0.4300  0.4805  0.0584
   67MOL    C4337135   7.326   2.944   1.290 -0.1123 -0.1813 -0.2119
   67MOL    O4437136   6.929   2.821   1.194  0.0787 -0.0808  0.4502
   67MOL    C4537137   6.714   2.870   1.379  0.7974  0.9787  0.3974
   67MOL    C4637138   6.619   2.890   1.479 -0.4884 -0.3652  0.0304
   67MOL    O4737139   6.562   3.087   1.780 -0.0776  0.3871  0.3289
   67MOL    H4837140   6.783   3.133   1.654 -0.1243  2.0681 -2.9663
   67MOL    H4937141   6.961   3.063   1.523 -0.2405 -1.1665  1.3488
   67MOL    H5037142   7.094   2.940   1.430 -0.2468 -0.8019 -0.2753
   67MOL    H5137143   7.131   2.708   1.137  0.9381 -0.4241 -1.2635
   67MOL    H5237144   7.336   2.674   1.019 -1.9221  0.0609 -0.7307
   67MOL    H5337145   7.563   2.733   0.962  0.8188  2.9050 -2.8106
   67MOL    H5437146   7.529   2.992   1.224  0.3884  0.4637  0.4592
   67MOL    H5537147   7.320   3.019   1.367 -0.4458  0.0831 -0.4941
   67MOL    H5637148   6.690   2.799   1.301  0.0378 -1.4894  2.8128
   67MOL    H5737149   6.525   2.837   1.478 -0.1776 -0.8961 -1.7114
   67MOL    C5837150   7.693   2.859   1.028 -0.1002  0.4687  0.2442
   67MOL    C5937151   7.783   2.813   0.920  0.2057 -0.0495  0.4168
   67MOL    C6037152   7.898   2.890   0.873  0.4991  0.5779 -0.5829
   67MOL    C6137153   7.966   2.852   0.760 -0.6099  0.3090 -0.0208
   67MOL    C6237154   7.940   2.729   0.700 -0.2776  0.0320 -0.4280
   67MOL    C6337155   8.014   2.700   0.577 -0.0287 -0.2216  0.7035
   67MOL    N6437156   0.005   2.714   0.578  0.9799 -0.1974 -0.2855
   67MOL    C6537157   0.095   2.667   0.486 -0.3889 -0.0746 -1.0334
   67MOL    C6637158   0.228   2.687   0.522 -0.4432  0.3013 -0.8403
   67MOL    C6737159   0.331   2.644   0.431 -0.4858 -0.0750 -0.1595
   67MOL    C6837160   0.305   2.574   0.314  0.0908 -0.4261 -0.1947
   67MOL    N6937161   0.409   2.525   0.233  0.0138 -0.0261  0.2236
   67MOL    C7037162   0.172   2.548   0.289  0.2224  0.6312 -0.7876
   67MOL    C7137163   0.064   2.597   0.367 -0.0995  0.2487  0.6130
   67MOL    O7237164   7.948   2.653   0.492  0.0430  0.5246  0.0578
   67MOL    C7337165   7.839   2.649   0.751  0.5931 -0.5024 -0.1707
   67MOL    C7437166   7.758   2.697   0.856 -0.2952  0.3449  0.0461
   67MOL    O7537167   7.733   2.944   1.113  0.0837 -0.7545  0.2688
   67MOL    H7637168   7.927   2.987   0.911 -1.4635  1.9608 -2.4327
   67MOL    H7737169   8.032   2.927   0.719 -1.0465 -0.3358 -1.9615
   67MOL    H7837170   0.051   2.762   0.654  0.3313 -0.1858  0.1081
   67MOL    H7937171   0.260   2.744   0.608  0.7375  2.3938 -2.5913
   67MOL    H8037172   0.434   2.664   0.457  0.3519 -0.6605 -2.8779
   67MOL    H8137173   0.420   2.425   0.249 -0.0453  0.2971  2.4988
   67MOL    H8237174   0.141   2.491   0.203 -2.8684 -0.5251  0.9977
   67MOL    H8337175   8.109   2.581   0.332  0.3881  0.6052 -1.0365
   67MOL    H8437176   7.820   2.557   0.698  0.3508  0.4809 -1.8273
   67MOL    H8537177   7.676   2.632   0.883 -0.7863  0.3736 -1.3258
   67MOL    C8637178   0.441   2.570   0.108 -0.4803 -0.7651 -0.9168
   67MOL    C8737179   0.471   2.469   0.006 -0.5273  0.1858 -0.4823
   67MOL    C8837180   0.360   2.381   8.117  0.1075 -0.2971  0.0406
   67MOL    C8937181   0.380   2.284   8.018  0.0058 -0.0856 -0.5394
   67MOL    C9037182   0.510   2.258   7.973 -0.3947  0.1214  0.4884
   67MOL    C9137183   0.526   2.151   7.878  0.0486 -0.7020  0.3078
   67MOL    N9237184   0.580   2.188   7.755  0.3068 -0.1596 -0.4088
   67MOL    C9337185   0.626   2.106   7.648 -0.0226 -0.0645 -0.3564
   67MOL    C9437186   0.565   1.985   7.627  0.1470  0.6213  0.3095
   67MOL    C9537187   0.615   1.892   7.537 -0.1682 -0.4975 -1.0837
   67MOL    C9637188   0.739   1.919   7.468  0.3778 -0.2242  0.2485
   67MOL    N9737189   0.793   1.820   7.383  0.0811  0.3163 -0.5311
   67MOL    C9837190   0.791   2.052   7.472 -0.0110 -0.2575 -0.1214
   67MOL    C9937191   0.735   2.147   7.562 -0.4765 -0.4628 -0.2324
   67MOL   O10037192   0.513   2.037   7.908 -0.3525  0.1280  0.2505
   67MOL   C10137193   0.620   2.340   8.018 -0.2027  0.2696 -0.1927
   67MOL   C10237194   0.602   2.451   8.101  0.9218 -0.4875  0.7336
   67MOL   O10337195   0.448   2.695   0.081 -0.1380 -0.5428 -0.0809
   67MOL   H10437196   0.266   2.418   0.008 -0.2494 -0.0328 -1.1148
   67MOL   H10537197   0.296   2.226   7.983 -2.4146  0.6459  3.7667
   67MOL   H10637198   0.603   2.287   7.750  1.9217 -0.5221 -0.3529
   67MOL   H10737199   0.477   1.958   7.682  0.6261 -1.6898 -0.0188
   67MOL   H10837200   0.572   1.794   7.521 -1.3579 -0.1472 -0.1374
   67MOL   H10937201   0.819   1.855   7.292 -0.1340  0.0321 -0.7025
   67MOL   H11037202   0.863   2.091   7.402 -1.3432  2.6458  0.0592
   67MOL   H11137203   0.775   2.248   7.566 -0.5817 -0.3982 -0.7416
   67MOL   H11237204   0.717   2.307   7.986 -1.1338 -1.1165 -1.6472
   67MOL   H11337205   0.684   2.514   8.134 -1.4756  2.8262  0.6654
   67MOL   C11437206   0.825   1.698   7.410 -0.2442 -0.2191  0.2740
   67MOL   C11537207   0.825   1.655   7.548 -0.3627  0.0579 -0.4818
   67MOL   C11637208   0.916   1.726   7.644  0.1912  0.3187  0.0877
   67MOL   C11737209   0.910   1.691   7.780  0.2319  0.3891 -0.0000
   67MOL   C11837210   0.810   1.605   7.822 -0.0029  0.3546  0.1603
   67MOL   C11937211   0.787   1.590   7.967 -0.5694 -0.1428  0.1674
   67MOL   N12037212   0.655   1.595   7.997 -0.3148 -0.6245  0.8321
   67MOL   C12137213   0.582   1.621   8.114  0.2778  0.4310 -0.1222
   67MOL   C12237214   0.446   1.579   8.125  0.0471 -0.3591  0.4360
   67MOL   C12337215   0.370   1.619   0.089  0.1362 -0.2233 -0.0903
   67MOL   C12437216   0.427   1.678   0.203  0.4220 -0.6852  1.0686
   67MOL   N12537217   0.351   1.713   0.316  0.2232  0.2609  1.2201
   67MOL   C12637218   0.564   1.706   0.204 -0.0391  0.1825  0.1308
   67MOL   C12737219   0.638   1.683   0.088 -0.6156  0.2721  0.4228
   67MOL   O12837220   0.879   1.588   8.049 -0.2903  0.6106  0.0753
   67MOL   C12937221   0.727   1.537   7.729  0.1460  0.3148 -0.3223
   67MOL   C13037222   0.736   1.559   7.595  0.1805  0.0460  0.2353
   67MOL   O13137223   0.855   1.622   7.322 -0.4483  0.2491  0.0868
   67MOL   H13237224   0.982   1.808   7.621 -1.3772  2.1531  2.0074
   67MOL   H13337225   0.961   1.754   7.851  1.4756  0.2202 -0.7326
   67MOL   H13437226   0.599   1.589   7.913 -0.3761 -0.9920  0.8959
   67MOL   H13537227   0.396   1.526   8.045 -0.6560  0.3854  0.3664
   67MOL   H13637228   0.266   1.593   0.098  0.2464 -0.3845  0.6974
   67MOL   H13737229   0.389   1.780   0.380 -0.2307  0.7643  0.9643
   67MOL   H13837230   0.616   1.751   0.288  0.6671  0.6337 -0.5437
   67MOL   H13937231   0.742   1.713   0.083 -0.1084 -1.3084  0.9148
   67MOL   H14037232   0.654   1.469   7.771  0.4351 -0.0147 -0.3477
   67MOL   H14137233   0.659   1.524   7.527  0.0964 -0.9450  0.8274
   67MOL   C14237234   0.252   1.644   0.372  0.6696  0.0226 -0.4544
   67MOL   C14337235   0.205   1.704   0.506 -0.0875 -0.7529 -0.5244
   67MOL   C14437236   0.224   1.838   0.544  0.0871 -0.6237  0.3789
   67MOL   C14537237   0.176   1.898   0.664  0.7906  0.1740 -0.4967
   67MOL   C14637238   0.097   1.810   0.744 -0.5314 -0.0998 -0.0641
   67MOL   C14737239   0.021   1.858   0.864 -0.6571 -0.2704 -0.1638
   67MOL   N14837240   8.070   1.945   0.835  0.0286  0.6985 -0.1530
   67MOL   C14937241   7.991   2.027   0.917  0.2410 -0.0840  0.3593
   67MOL   C15037242   7.993   2.025   1.061  0.5896  0.0654 -0.5310
   67MOL   C15137243   7.903   2.104   1.128 -0.5490 -0.0608 -0.5342
   67MOL   C15237244   7.815   2.194   1.057 -0.2882  0.4364  0.1622
   67MOL   N15337245   7.733   2.273   1.148  0.6211  0.4193  0.0904
   67MOL   C15437246   7.818   2.206   0.919 -0.5797 -0.1645 -0.3165
   67MOL   C15537247   7.893   2.113   0.849  0.1090  0.0482  0.6493
   67MOL   O15637248   0.071   1.836   0.976  0.1525 -0.2597 -0.3498
   67MOL   C15737249   0.084   1.678   0.710  0.5544 -0.7792  0.6903
   67MOL   C15837250   0.139   1.622   0.596  0.3403  0.4274 -0.1907
   67MOL   O15937251   0.210   1.542   0.336 -0.3328 -0.1486 -0.8513
   67MOL   H16037252   0.277   1.909   0.482 -0.7318 -0.7005 -0.4211
   67MOL   H16137253   0.192   2.003   0.687  0.1192  0.2542 -0.4029
   67MOL   H16237254   8.046   1.959   0.738 -4.8529 -0.0702  0.8467
   67MOL   H16337255   8.054   1.956   1.119 -0.6576 -0.6267 -0.0184
   67MOL   H16437256   7.896   2.103   1.236 -0.1208 -1.4896 -0.5074
   67MOL   H16537257   7.698   2.224   1.229 -0.7981  2.0361  0.4988
   67MOL   H16637258   7.752   2.274   0.868  0.3903  1.9542  1.1931
   67MOL   H16737259   7.868   2.112   0.745  1.5003  2.4652  0.2356
   67MOL   H16837260   0.036   1.609   0.778 -0.4626 -0.1918  0.5778
   67MOL   H16937261   0.120   1.518   0.574  1.6113  0.1427  0.0322
   67MOL   C17037262   7.717   2.407   1.133 -0.3086 -0.0203 -0.4142
   67MOL   C17137263   7.619   2.479   1.219 -0.0322  0.1453  0.3558
   67MOL   C17237264   7.486   2.431   1.213 -0.0845  0.4388 -0.6488
   67MOL   C17337265   7.385   2.491   1.285 -0.3072  0.0707  0.0189
   67MOL   C17437266   7.420   2.594   1.377  0.4457 -0.2993  0.1475
   67MOL   C17537267   7.321   2.645   1.477 -0.0853 -1.4464  0.2142
   67MOL   N17637268   7.201   2.586   1.492 -0.4074 -0.2966  0.4172
   67MOL   C17737269   7.089   2.620   1.568 -0.0858  0.3651 -0.5001
   67MOL   C17837270   7.086   2.733   1.659  0.1669 -0.0205  0.4217
   67MOL   C17937271   6.970   2.763   1.728 -0.7694 -0.2015 -0.3779
   67MOL   C18037272   6.860   2.676   1.728  0.3336  0.1761  0.7525
   67MOL   N18137273   6.750   2.715   1.814 -0.2601  0.0228  0.0213
   67MOL   C18237274   6.868   2.563   1.646 -0.5435  0.1173  0.4041
   67MOL   C18337275   6.977   2.537   1.561 -0.1175  0.4163  0.2824
   67MOL   O18437276   7.358   2.743   1.546 -0.2572 -0.5625  0.0960
   67MOL   C18537277   7.550   2.652   1.367  0.5028  0.1042  0.0639
   67MOL   C18637278   7.649   2.593   1.290  0.0638  0.1781  0.3019
   67MOL   O18737279   7.792   2.475   1.066 -0.2486  0.7614  0.1234
   67MOL   H18837280   7.463   2.339   1.159  0.9584 -0.6100  0.6562
   67MOL   H18937281   7.287   2.444   1.292  0.7165 -2.2645 -0.8990
   67MOL   H19037282   7.182   2.510   1.429 -3.2227 -1.5789  2.6886
   67MOL   H19137283   7.175   2.792   1.667 -0.1444  0.6161 -0.7736
   67MOL   H19237284   6.971   2.846   1.797 -0.5415  0.8908 -1.6866
   67MOL   H19337285   6.771   2.789   1.880  1.6188  0.0432 -0.5473
   67MOL   H19437286   6.786   2.493   1.655 -0.0629 -0.8016 -2.0244
   67MOL   H19537287   6.990   2.449   1.500 -0.4719 -0.0272  0.8342
   67MOL   H19637288   7.581   2.738   1.424  0.2185  0.8703 -0.9238
   67MOL   H19737289   7.742   2.648   1.290 -0.1593  0.5765 -0.8961
   67MOL   C19837290   6.622   2.685   1.820  0.0030  0.7267  0.3233
   67MOL   C19937291   6.533   2.754   1.923 -0.9074 -0.2404  0.6065
   67MOL   C20037292   6.394   2.733   1.924 -0.3429 -0.5201 -0.2881
   67MOL   C20137293   6.311   2.818   1.998  0.4955 -0.3802  0.2722
   67MOL   C20237294   6.368   2.927   2.076 -0.3187 -0.0389 -0.5114
   67MOL   C20337295   6.280   3.029   2.146 -0.5457  0.3172 -0.0359
   67MOL   N20437296   6.151   2.992   2.159 -0.4546  0.0248 -0.1479
   67MOL   C20537297   6.046   3.067   2.213  0.0318 -0.0911  0.3512
   67MOL   C20637298   6.024   3.207   2.187 -0.4627  0.7232 -0.3309
   67MOL   C20737299   5.903   3.269   2.232  0.2423 -0.0092  0.2683
   67MOL   C20837300   5.814   3.199   2.320  0.2747 -0.6509  0.5104
   67MOL   N20937301   5.692   3.270   2.360  0.5950  0.1226 -0.8882
   67MOL   C21037302   5.842   3.069   2.355 -0.2054 -0.8785 -0.6534
   67MOL   C21137303   5.949   3.001   2.300 -0.2015  0.7665 -0.2439
   67MOL   O21237304   6.328   3.132   2.193  0.0354  0.0445 -0.3509
   67MOL   C21337305   6.506   2.951   2.075  0.4784  0.1586  0.1020
   67MOL   C21437306   6.591   2.856   2.004  0.4244 -0.8929 -0.3958
   67MOL   O21537307   6.567   2.610   1.735 -0.8322  0.4772 -0.3524
   67MOL   H21637308   6.356   2.662   1.852 -0.6117 -1.0631  0.3816
   67MOL   H21737309   6.205   2.800   1.984  0.6827 -1.3981  0.1735
   67MOL   H21837310   6.131   2.895   2.137  0.6698 -0.5874  1.4317
   67MOL   H21937311   6.091   3.267   2.127  1.9735 -0.0393  1.5409
   67MOL   H22037312   5.896   3.376   2.220 -0.4874 -0.1357 -0.4674
   67MOL   H22137313   5.677   3.358   2.313 -0.2116 -0.1230 -1.1025
   67MOL   H22237314   5.769   3.007   2.405 -0.3697  0.0587  0.2799
   67MOL   H22337315   5.974   2.899   2.324 -0.9528 -0.2448 -3.4447
   67MOL   H22437316   6.548   3.036   2.128 -1.9927  0.2014  2.1371
   67MOL   H22537317   6.696   2.880   1.998  0.3309 -0.5419 -0.6387
   67MOL   C22637318   5.603   3.237   2.450  0.2018  0.1144  0.5000
   67MOL   C22737319   5.470   3.310   2.424 -0.4628 -0.7771  0.6707
   67MOL   C22837320   5.410   3.394   2.514  0.1493  0.8843 -0.0834
   67MOL   C22937321   5.294   3.463   2.469  0.3544  0.4520  0.2807
   67MOL   C23037322   5.246   3.444   2.343 -0.3015  0.7403 -0.0768
   67MOL   C23137323   5.116   3.505   2.311  0.2992 -0.6883 -0.1749
   67MOL   N23237324   5.054   3.453   2.202 -0.0139  0.2751  0.7509
   67MOL   C23337325   4.928   3.498   2.166  0.3290 -1.0454  0.0981
   67MOL   C23437326   4.818   3.421   2.207 -0.4237  0.4609 -0.0253
   67MOL   C23537327   4.687   3.454   2.176 -0.0770  0.2331  0.7139
   67MOL   C23637328   4.666   3.580   2.114  0.0779 -0.2478 -0.1214
   67MOL   N23737329   4.531   3.632   2.092 -0.2638  0.6783  0.4089
   67MOL   C23837330   4.776   3.667   2.085 -0.1342 -0.0357  0.0091
   67MOL   C23937331   4.908   3.626   2.111 -0.7296  0.1058 -0.6338
   67MOL   O24037332   5.061   3.593   2.380 -0.2768  0.1317 -0.0498
   67MOL   C24137333   5.309   3.362   2.250 -0.6366 -0.0800  0.1111
   67MOL   C24237334   5.423   3.286   2.290  0.1268 -0.0297 -0.1559
   67MOL   O24337335   5.619   3.152   2.536 -0.4779  0.2968  0.0166
   67MOL   H24437336   5.457   3.411   2.610  0.4451  1.0182 -0.2529
   67MOL   H24537337   5.244   3.528   2.539  0.3896 -0.9114  1.6225
   67MOL   H24637338   5.102   3.371   2.168  2.7965  1.7815  0.9349
   67MOL   H24737339   4.833   3.328   2.259  1.7027  0.9038  0.2259
   67MOL   H24837340   4.598   3.403   2.210 -0.4079  0.7107  0.5665
   67MOL   H24937341   4.520   3.730   2.074 -0.4548  0.8924  1.6015
   67MOL   H25037342   4.753   3.758   2.031  0.3787 -0.7580 -1.4813
   67MOL   H25137343   4.991   3.695   2.100 -0.0361 -0.6030  0.0792
   67MOL   H25237344   5.264   3.345   2.153  0.2698 -1.7464 -0.0464
   67MOL   H25337345   5.460   3.211   2.222  0.1494 -0.9226  0.8289
   67MOL   C25437346   4.410   3.571   2.074 -0.5831 -0.3335  0.5702
   67MOL   C25537347   4.307   3.659   2.029  0.6811 -0.3529 -0.9476
   67MOL   C25637348   4.270   3.768   2.110 -0.1961 -0.1891 -0.2644
   67MOL   C25737349   4.175   3.862   2.056  0.3428  0.3726  0.2964
   67MOL   C25837350   4.097   3.834   1.935 -0.0083 -0.7964 -0.2811
   67MOL   C25937351   3.997   3.937   1.885  0.5957 -0.0416 -0.0379
   67MOL   N26037352   4.012   3.969   1.757 -0.5259 -0.2155 -0.0693
   67MOL   C26137353   3.928   4.051   1.678  0.6538 -0.3919 -0.7968
   67MOL   C26237354   3.790   4.032   1.679  0.4728 -0.6075  0.9283
   67MOL   C26337355   3.708   4.124   1.613  0.2907 -0.3225 -0.0395
   67MOL   C26437356   3.766   4.237   1.539 -0.1617 -0.5091  0.1034
   67MOL   N26537357   3.693   4.342   1.491 -0.0182 -0.3875 -0.0831
   67MOL   C26637358   3.906   4.250   1.541 -0.0249 -0.1403 -0.0053
   67MOL   C26737359   3.988   4.157   1.605 -0.4355  0.2302 -0.1414
   67MOL   O26837360   3.936   4.008   1.961  0.3428 -0.1476  0.4570
   67MOL   C26937361   4.115   3.710   1.874 -0.6620 -0.3374 -0.0562
   67MOL   C27037362   4.216   3.620   1.922  0.4226 -0.1637 -0.4692
   67MOL   O27137363   4.400   3.453   2.101 -0.1716 -0.1839  0.4660
   67MOL   H27237364   4.317   3.790   2.205 -0.1599 -2.7983  0.3483
   67MOL   H27337365   4.158   3.952   2.112 -0.5714 -0.9653  2.2596
   67MOL   H27437366   4.106   3.946   1.731 -0.3568 -0.0262  0.3708
   67MOL   H27537367   3.748   3.950   1.735 -0.7520 -0.8440 -0.3132
   67MOL   H27637368   3.601   4.120   1.625 -0.0973  2.3728 -1.9714
   67MOL   H27737369   3.748   4.427   1.480 -0.1759 -0.1000  1.3009
   67MOL   H27837370   3.946   4.334   1.486 -0.0322 -0.9107 -1.2273
   67MOL   H27937371   4.095   4.170   1.600 -0.2015 -1.4458  0.4883
   67MOL   H28037372   4.065   3.679   1.783 -2.6855  1.7530  0.2952
   67MOL   H28137373   4.226   3.527   1.869  0.3342 -0.3725 -0.1147
   67MOL   C28237374   3.565   4.354   1.439 -0.2288 -0.7415 -0.6409
   67MOL   C28337375   3.487   4.227   1.415  0.8664 -0.3008 -0.6932
   67MOL   C28437376   3.371   4.204   1.493 -0.9635 -0.5032  0.1624
   67MOL   C28537377   3.291   4.087   1.465  0.0270  0.8436 -0.1044
   67MOL   C28637378   3.336   3.993   1.366 -0.5853  0.3147 -0.2173
   67MOL   C28737379   3.258   3.875   1.325  0.4078  0.4202 -0.2073
   67MOL   N28837380   3.307   3.747   1.341  0.1403  0.4479 -0.4193
   67MOL   C28937381   3.426   3.705   1.406  0.3324  0.4528 -0.3324
   67MOL   C29037382   3.402   3.628   1.515 -0.4747 -0.4307 -0.5062
   67MOL   C29137383   3.509   3.567   1.584 -0.6604 -0.2635 -0.8863
   67MOL   C29237384   3.643   3.591   1.546  0.9139  1.1206  0.2458
   67MOL   N29337385   3.743   3.513   1.609  0.2458 -0.5404 -0.3069
   67MOL   C29437386   3.669   3.683   1.447 -0.2705  0.5944 -0.0429
   67MOL   C29537387   3.562   3.726   1.366  0.5501 -0.4039 -0.4127
   67MOL   O29637388   3.144   3.894   1.287 -0.1987 -0.1919 -0.4091
   67MOL   C29737389   3.460   4.020   1.300  0.0216  0.2295  0.5367
   67MOL   C29837390   3.530   4.134   1.324 -0.2454 -0.2122  0.5066
   67MOL   O29937391   3.514   4.467   1.425 -0.5565  0.8669 -0.0605
   67MOL   H30037392   3.352   4.288   1.558  1.2662  1.0040 -1.0607
   67MOL   H30137393   3.193   4.069   1.508  1.1097  0.7318  2.3564
   67MOL   H30237394   3.246   3.673   1.309 -0.6867  0.9207  0.0447
   67MOL   H30337395   3.305   3.593   1.547  0.4973 -1.5265  1.3319
   67MOL   H30437396   3.489   3.485   1.651 -0.3686  0.9818  0.7686
   67MOL   H30537397   3.718   3.443   1.677 -3.0315  0.9995  0.1985
   67MOL   H30637398   3.767   3.705   1.407  0.3506 -1.4341  0.2974
   67MOL   H30737399   3.586   3.794   1.286  2.6293 -0.7390 -0.1126
   67MOL   H30837400   3.493   3.961   1.216 -0.1799  0.5652  0.2182
   67MOL   H30937401   3.616   4.159   1.264 -0.4585 -0.3243  0.1569
   67MOL   C31037402   3.877   3.521   1.586  0.3368 -0.7531 -0.1192
   67MOL   C31137403   3.951   3.432   1.670  0.2771 -0.2605 -0.2803
   67MOL   C31237404   3.924   3.417   1.807  0.6924  0.5018 -0.5489
   67MOL   C31337405   3.986   3.309   1.882  0.2801 -0.2277  0.4579
   67MOL   C31437406   4.090   3.233   1.826  0.0068 -0.8995 -0.8518
   67MOL   C31537407   4.144   3.117   1.906  1.0302 -0.2136  0.0937
   67MOL   N31637408   4.258   3.065   1.860  0.2667 -0.0952 -0.1079
   67MOL   C31737409   4.312   2.935   1.901  0.0774  0.0177 -0.7326
   67MOL   C31837410   4.439   2.903   1.855 -0.2575 -0.7128 -0.4430
   67MOL   C31937411   4.513   2.789   1.892  0.3097 -0.0002 -0.3940
   67MOL   C32037412   4.456   2.693   1.979  0.5433 -1.0229  0.7320
   67MOL   N32137413   4.524   2.580   2.025 -0.4719  0.4676  0.1313
   67MOL   C32237414   4.321   2.714   2.013  0.2199  0.1836  0.2806
   67MOL   C32337415   4.253   2.835   1.980 -0.6022 -0.4770  0.3136
   67MOL   O32437416   4.086   3.095   2.012 -0.0279 -0.4956  0.0100
   67MOL   C32537417   4.120   3.253   1.692 -0.3449 -0.1324 -0.0550
   67MOL   C32637418   4.056   3.353   1.616 -1.0039 -0.0127 -0.2596
   67MOL   O32737419   3.945   3.585   1.502  0.0810 -0.3101  0.2786
   67MOL   H32837420   3.866   3.494   1.856  1.1759  1.4374 -1.4304
   67MOL   H32937421   3.959   3.302   1.986  1.0172  0.2513  0.6883
   67MOL   H33037422   4.285   3.120   1.780 -0.1081 -0.7042 -0.6587
   67MOL   H33137423   4.497   2.960   1.784  2.7376 -1.0311  1.6503
   67MOL   H33237424   4.610   2.774   1.848  1.2065 -0.2729  1.6407
   67MOL   H33337425   4.481   2.530   2.102  0.8765  1.4433  1.5583
   67MOL   H33437426   4.269   2.638   2.069  1.7865 -2.0673 -1.2189
   67MOL   H33537427   4.153   2.856   2.013  0.5997  0.3480  3.5546
   67MOL   H33637428   4.195   3.188   1.647 -1.4094 -0.8892 -0.7526
   67MOL   H33737429   4.089   3.368   1.514 -0.4688 -0.7952 -0.2058
   67MOL   C33837430   4.613   2.506   1.961 -0.3057 -0.7643 -1.0580
   67MOL   C33937431   4.633   2.361   2.010 -0.3941  0.7595  0.0925
   67MOL   C34037432   4.751   2.293   1.967 -1.3027  0.1902  0.7548
   67MOL   C34137433   4.778   2.162   2.006  0.0031  1.2340  0.4161
   67MOL   C34237434   4.684   2.098   2.090  0.4764 -0.1030 -0.0362
   67MOL   C34337435   4.694   1.946   2.117 -0.3189 -0.7799 -0.6238
   67MOL   N34437436   4.752   1.874   2.020  0.2071 -0.3040  0.1093
   67MOL   C34537437   4.750   1.734   1.985  0.1374 -0.0297  0.1763
   67MOL   C34637438   4.809   1.682   1.868  0.4096  0.2017  0.7926
   67MOL   C34737439   4.810   1.547   1.844 -0.0865 -0.0881 -0.7061
   67MOL   C34837440   4.742   1.450   1.930 -0.1166  0.1151 -0.9152
   67MOL   N34937441   4.744   1.309   1.891 -1.2377  0.0466  0.0867
   67MOL   C35037442   4.679   1.502   2.048  0.3926 -0.1071 -0.2126
   67MOL   C35137443   4.681   1.640   2.066 -0.4683  0.2098 -0.3661
   67MOL   O35237444   4.639   1.903   2.217  0.2664 -0.4132 -0.0565
   67MOL   C35337445   4.571   2.157   2.124  0.5971  0.6460  0.1095
   67MOL   C35437446   4.541   2.290   2.094  0.1314  0.4592  0.6966
   67MOL   O35537447   4.701   2.552   1.887 -1.2069  0.1091 -0.1837
   67MOL   H35637448   4.816   2.333   1.891 -1.4950  0.0857  0.5355
   67MOL   H35737449   4.868   2.112   1.972  0.0362  0.9066  0.9956
   67MOL   H35837450   4.788   1.932   1.946  0.0055 -1.1597 -0.6727
   67MOL   H35937451   4.862   1.752   1.805  2.4337 -1.7438  0.3073
   67MOL   H36037452   4.864   1.516   1.756  1.7868 -1.1154  0.7434
   67MOL   H36137453   4.819   1.285   1.829 -0.3418 -0.8181  1.4663
   67MOL   H36237454   4.617   1.439   2.110 -0.3359 -0.0901 -0.9110
   67MOL   H36337455   4.625   1.672   2.152  0.8892  1.3928  0.0823
   67MOL   H36437456   4.499   2.105   2.187 -1.3355  4.4849  1.2245
   67MOL   H36537457   4.453   2.335   2.138 -1.2853  0.4279 -2.0291
   67MOL   C36637458   4.654   1.214   1.923 -0.0493 -0.2839 -0.7631
   67MOL   C36737459   4.679   1.077   1.866  0.7872 -0.1628  0.8505
   67MOL   C36837460   4.695   1.069   1.726 -0.4049 -0.2560  0.4635
   67MOL   C36937461   4.711   0.952   1.651  0.0607 -0.5117  0.3102
   67MOL   C37037462   4.714   0.831   1.723  0.5498 -0.2585  0.3083
   67MOL   C37137463   4.707   0.706   1.642 -0.0373 -0.3915  0.0618
   67MOL   N37237464   4.801   0.692   1.547 -0.0555 -0.1804  0.0251
   67MOL   C37337465   4.806   0.604   1.435 -0.3323  0.6392  0.4037
   67MOL   C37437466   4.686   0.566   1.364  0.4903  0.4049 -0.4997
   67MOL   C37537467   4.707   0.499   1.236 -0.4213  0.7217  0.0062
   67MOL   C37637468   4.833   0.445   1.195  0.2493  0.2858  0.1769
   67MOL   N37737469   4.824   0.353   1.082 -0.1398 -0.5671  0.3559
   67MOL   C37837470   4.946   0.488   1.263 -0.5499  0.0222  0.2712
   67MOL   C37937471   4.934   0.558   1.384  0.4027 -0.4497 -0.1435
   67MOL   O38037472   4.633   0.611   1.665 -0.3748 -0.0266 -0.2112
   67MOL   C38137473   4.694   0.832   1.863  0.0101  0.7466  0.0895
   67MOL   C38237474   4.686   0.952   1.935 -0.2373 -0.4852  0.1877
   67MOL   O38337475   4.545   1.234   1.982  0.4697 -0.2973  0.0084
   67MOL   H38437476   4.680   1.160   1.669  0.4224 -0.2523  0.2484
   67MOL   H38537477   4.732   0.957   1.545  0.8885 -0.3488  0.4771
   67MOL   H38637478   4.871   0.764   1.552  2.9804 -2.9305 -1.3357
   67MOL   H38737479   4.589   0.602   1.393  0.7508  0.5415  0.1916
   67MOL   H38837480   4.624   0.486   1.168  0.6135 -0.7283 -1.0012
   67MOL   H38937481   4.745   0.369   1.022 -0.2968 -0.0753  0.6914
   67MOL   H39037482   5.042   0.449   1.235 -0.7979  0.3823 -1.1051
   67MOL   H39137483   5.024   0.590   1.434  0.7011 -2.7584  0.8611
   67MOL   H39237484   4.691   0.737   1.916  0.4681  1.3463  1.2093
   67MOL   H39337485   4.654   0.946   2.038 -0.1142  1.6387  0.3703
   67MOL   C39437486   4.906   0.259   1.043  0.9369  0.0057  0.4179
   67MOL   C39537487   4.854   0.183   0.920  0.4179 -0.3441  0.4714
   67MOL   C39637488   4.941   0.094   0.859  0.7229 -0.4376 -0.6751
   67MOL   C39737489   4.897   0.016   0.751  0.4605 -0.0139 -0.6598
   67MOL   C39837490   4.765   0.021   0.699  1.0839 -0.7122  0.3209
   67MOL   C39937491   4.718   8.080   0.589 -0.3952  0.3136 -0.3342
   67MOL   N40037492   4.808   8.022   0.508  0.9497 -0.1852  0.3245
   67MOL   C40137493   4.789   7.947   0.389  0.3025 -0.0668 -0.7698
   67MOL   C40237494   4.671   7.877   0.354 -0.4140 -0.4908 -0.1895
   67MOL   C40337495   4.661   7.807   0.232  0.7160 -0.2029 -0.2368
   67MOL   C40437496   4.774   7.803   0.147  0.1315 -0.4582  0.5118
   67MOL   N40537497   4.777   7.731   0.022  0.5451 -0.5020  0.1148
   67MOL   C40637498   4.887   7.878   0.185 -0.1095  0.2046 -0.0313
   67MOL   C40737499   4.902   7.946   0.307  0.4195  0.0950  0.6342
   67MOL   O40837500   4.599   8.053   0.585 -0.1432  0.1351  0.6368
   67MOL   C40937501   4.675   0.104   0.771 -0.0897  0.6052 -0.7819
   67MOL   C41037502   4.717   0.181   0.886 -1.0520 -0.0248 -0.4668
   67MOL   O41137503   5.014   0.231   1.100  0.1769 -0.4118  0.4645
   67MOL   H41237504   5.042   0.086   0.897  0.5699 -3.1842 -0.7999
   67MOL   H41337505   4.963   8.084   0.715 -0.3551  0.5373 -3.5032
   67MOL   H41437506   4.904   8.045   0.525  0.7435  0.1615  1.0218
   67MOL   H41537507   4.581   7.880   0.414 -1.4608  1.2284 -1.8072
   67MOL   H41637508   4.569   7.759   0.202  2.9944 -2.6272 -3.5879
   67MOL   H41737509   4.870   7.705   8.138  0.8057  0.9398 -0.3904
   67MOL   H41837510   4.967   7.894   0.114  0.9868  1.7712  1.5204
   67MOL   H41937511   4.990   8.007   0.318  0.1626  0.5772  0.0638
   67MOL   H42037512   4.569   0.105   0.751 -0.0693  0.8578 -0.8840
   67MOL   H42137513   4.646   0.241   0.941  0.7944  1.4033  0.4495
   67MOL   C42237514   4.670   7.696   8.091  0.3468  0.3726 -0.0997
   67MOL   C42337515   4.699   7.603   7.971 -0.3731 -0.2256 -0.1903
   67MOL   C42437516   4.771   7.636   7.854 -0.7839  0.3856 -0.4072
   67MOL   C42537517   4.777   7.546   7.744  0.7584 -0.4421 -0.7854
   67MOL   C42637518   4.711   7.425   7.753  0.5946  0.2146  0.1564
   67MOL   C42737519   4.703   7.328   7.639  0.0610  0.8533 -0.5439
   67MOL   N42837520   4.651   7.375   7.529  0.9473  0.2689  0.3660
   67MOL   C42937521   4.591   7.291   7.436  0.0432 -0.5587  0.7780
   67MOL   C43037522   4.664   7.207   7.342  0.4678 -0.4201 -1.0686
   67MOL   C43137523   4.593   7.111   7.260 -0.9463  0.1005 -0.3895
   67MOL   C43237524   4.453   7.095   7.269 -0.0853 -0.5258  0.0166
   67MOL   N43337525   4.385   6.979   7.210 -0.0045  0.7209 -0.2236
   67MOL   C43437526   4.382   7.187   7.358 -0.5821 -0.2604  0.7532
   67MOL   C43537527   4.450   7.284   7.436 -0.8618 -0.1793 -0.1263
   67MOL   O43637528   4.744   7.211   7.655 -0.1205  0.3858 -0.3555
   67MOL   C43737529   4.640   7.385   7.865  0.2517 -0.4341 -1.0557
   67MOL   C43837530   4.635   7.478   7.979 -0.4725  0.2315  0.3266
   67MOL   O43937531   4.550   7.733   8.109 -0.0489 -0.4460  0.0932
   67MOL   H44037532   4.827   7.728   7.845 -0.1840 -0.0456 -1.1578
   67MOL   H44137533   4.828   7.579   7.654  0.9291  5.4462  1.2206
   67MOL   H44237534   4.612   7.468   7.532 -2.2085 -0.9907 -0.3178
   67MOL   H44337535   4.771   7.202   7.328  0.4481  1.5509 -2.0726
   67MOL   H44437536   4.644   7.055   7.183  1.5428  1.5096  0.1533
   67MOL   H44537537   4.375   6.979   7.109  0.8220 -1.8819 -0.3552
   67MOL   H44637538   4.277   7.166   7.371 -0.6868 -0.4869 -0.4459
   67MOL   H44737539   4.398   7.342   7.511 -2.2965 -2.5190  0.7383
   67MOL   H44837540   4.583   7.295   7.880 -0.7687  0.6437  1.7234
   67MOL   H44937541   4.581   7.458   8.070  0.3117  0.4354  0.8437
   67MOL   C45037542   4.304   6.898   7.278 -0.4464 -0.4806  0.2874
   67MOL   C45137543   4.313   6.910   7.425 -0.1056 -0.7227  1.1464
   67MOL   C45237544   4.200   6.936   7.503  0.5097 -0.0409  0.6352
   67MOL   C45337545   4.216   6.975   7.636  0.2618  0.0865 -0.0176
   67MOL   C45437546   4.345   6.977   7.700 -0.0352  0.0431 -0.2564
   67MOL   C45537547   4.365   7.031   7.836 -0.0876 -0.4887 -0.2279
   67MOL   N45637548   4.305   7.149   7.851 -0.2112 -0.5185  0.6275
   67MOL   C45737549   4.308   7.243   7.953  0.3704 -0.5315  0.4946
   67MOL   C45837550   4.373   7.221   8.069 -0.4039 -0.5300 -0.3238
   67MOL   C45937551   4.381   7.323   0.021  0.0586 -0.3635  0.2027
   67MOL   C46037552   4.316   7.443   8.141 -0.3311 -0.1692  0.6104
   67MOL   N46137553   4.325   7.558   0.081  0.1974 -0.3650  0.1602
   67MOL   C46237554   4.244   7.466   8.022 -0.3419 -0.0897  0.1648
   67MOL   C46337555   4.237   7.362   7.929  0.5852 -0.2628  0.1095
   67MOL   O46437556   4.444   6.980   7.917 -0.0196 -0.2027  0.0277
   67MOL   C46537557   4.449   6.914   7.627 -0.0228 -0.5734  0.1667
   67MOL   C46637558   4.433   6.889   7.492 -0.9062  0.1831  0.3764
   67MOL   O46737559   4.215   6.829   7.225  0.1361 -0.2880 -0.0276
   67MOL   H46837560   4.104   6.953   7.458  0.3881 -0.4550  0.7454
   67MOL   H46937561   4.131   7.012   7.692  0.3964 -2.3262  1.8475
   67MOL   H47037562   4.249   7.173   7.770 -0.5397 -0.7846  0.7740
   67MOL   H47137563   4.429   7.131   8.091 -0.0855 -0.3232 -0.2898
   67MOL   H47237564   4.428   7.306   0.117  1.2271 -0.2825 -0.3497
   67MOL   H47337565   4.359   7.642   0.037 -2.4210  1.4055  1.3460
   67MOL   H47437566   4.189   7.557   8.002  1.0214  1.2778  2.4106
   67MOL   H47537567   4.181   7.381   7.839 -0.5584 -0.4499  0.7740
   67MOL   H47637568   4.548   6.903   7.669 -0.8863 -1.3937  2.0195
   67MOL   H47737569   4.519   6.850   7.440 -3.2527 -3.3799 -0.9938
   67MOL   C47837570   4.275   7.570   0.203 -0.8246  0.8264  0.1270
   67MOL   C47937571   4.274   7.706   0.263  0.7490  0.4440  0.0650
   67MOL   C48037572   4.248   7.722   0.398  0.4671  0.4126  0.5246
   67MOL   C48137573   4.243   7.844   0.460 -0.2818 -0.2064 -0.2537
   67MOL   C48237574   4.262   7.962   0.384  0.6546 -0.1160  0.1266
   67MOL   C48337575   4.250   8.103   0.447 -0.0899 -0.0140  0.1163
   67MOL   N48437576   4.295   8.100   0.571  0.1815 -0.4124 -1.4013
   67MOL   C48537577   4.280   0.056   0.673  0.0678 -0.2199 -0.1435
   67MOL   C48637578   4.308   0.020   0.803 -0.1602 -0.6521  0.4486
   67MOL   C48737579   4.315   0.116   0.907  0.2398  0.0420  1.4776
   67MOL   C48837580   4.298   0.250   0.883 -0.0456 -0.0243 -0.5680
   67MOL   N48937581   4.305   0.347   0.984 -0.0675 -0.3182 -0.4667
   67MOL   C49037582   4.278   0.294   0.750  0.0069 -0.5582  0.2776
   67MOL   C49137583   4.268   0.198   0.643  0.4682  0.1964 -0.1082
   67MOL   O49237584   4.218   0.065   0.390  0.6196 -0.2521 -0.2471
   67MOL   C49337585   4.299   7.947   0.246 -0.2681  0.2391  0.6205
   67MOL   C49437586   4.299   7.822   0.179 -0.3550  0.2056 -0.1140
   67MOL   O49537587   4.235   7.468   0.262 -0.8037 -0.6207  0.2002
   67MOL   H49637588   4.235   7.631   0.455 -0.4525  0.7227  0.8159
   67MOL   H49737589   4.232   7.840   0.568 -1.6077 -3.3387 -0.4371
   67MOL   H49837590   4.355   8.021   0.590  1.0735 -0.1311 -2.9837
   67MOL   H49937591   4.318   8.062   0.831 -1.2561 -0.4347  1.7095
   67MOL   H50037592   4.330   0.085   1.010  0.3504 -0.6457  1.2614
   67MOL   H50137593   4.299   0.444   0.959  2.4287  0.1895  0.7784
   67MOL   H50237594   4.291   0.398   0.725 -3.2577 -0.3874 -0.9093
   67MOL   H50337595   4.262   0.237   0.542 -2.1954 -0.7401 -0.3471
   67MOL   H50437596   4.332   8.034   0.192  2.3157 -1.4316 -0.5665
   67MOL   H50537597   4.325   7.812   0.074 -3.0756 -0.1689 -0.7815
   67MOL   C50637598   4.285   0.330   1.115 -0.1908 -0.3537 -0.2570
   67MOL   C50737599   4.290   0.453   1.200 -0.8126 -0.4666  0.2732
   67MOL   C50837600   4.341   0.440   1.330  0.2360  0.5531  0.5463
   67MOL   C50937601   4.333   0.551   1.419  0.4734  0.6395  0.3423
   67MOL   C51037602   4.276   0.674   1.374  0.4301 -0.3244  0.1159
   67MOL   C51137603   4.275   0.797   1.469  0.0425  0.5639  0.0121
   67MOL   N51237604   4.291   0.763   1.598 -0.1478  0.2336  0.2907
   67MOL   C51337605   4.322   0.830   1.716 -0.1058 -0.1537  0.0405
   67MOL   C51437606   4.346   0.748   1.832  0.5241 -0.1347  0.2700
   67MOL   C51537607   4.354   0.809   1.956  0.3342 -0.0537 -0.5320
   67MOL   C51637608   4.331   0.946   1.974  0.3516 -0.0555 -0.6000
   67MOL   N51737609   4.325   1.010   2.099 -0.6329 -0.2079 -0.2147
   67MOL   C51837610   4.319   1.025   1.856 -0.3835 -0.1336  0.3882
   67MOL   C51937611   4.308   0.969   1.731  0.7788 -0.1629  0.2952
   67MOL   O52037612   4.266   0.911   1.429  0.2161 -0.0221 -0.0861
   67MOL   C52137613   4.231   0.687   1.244  0.0413  0.0724 -0.6316
   67MOL   C52237614   4.241   0.575   1.156 -0.6074  0.0019  0.2002
   67MOL   O52337615   4.283   0.225   1.177 -0.2979 -0.2696 -0.1741
   67MOL   H52437616   4.376   0.343   1.362  0.5244  1.4551  3.1110
   67MOL   H52537617   4.383   0.529   1.512 -1.3391 -0.9322  0.9834
   67MOL   H52637618   4.315   0.665   1.603 -0.3225  0.0835 -1.3508
   67MOL   H52737619   4.342   0.640   1.832  0.8771 -0.1772 -1.9724
   67MOL   H52837620   4.378   0.748   2.042 -1.8428 -1.5132 -0.9216
   67MOL   H52937621   4.359   1.105   2.112  1.8787 -1.0517 -0.4341
   67MOL   H53037622   4.302   1.131   1.873  0.8705  0.1568 -0.1277
   67MOL   H53137623   4.292   1.034   1.646 -0.6360  1.1893  1.5877
   67MOL   H53237624   4.193   0.784   1.214  2.5709  0.4184 -2.8914
   67MOL   H53337625   4.203   0.574   1.055  0.8246  0.7732 -0.3566
   67MOL   C53437626   4.244   0.968   2.199 -0.2374  0.1488 -0.0379
   67MOL   C53537627   4.216   1.064   2.316 -0.1174  0.0044  0.0829
   67MOL   C53637628   4.092   1.058   2.381  0.0682  0.6308  0.0425
   67MOL   C53737629   4.057   1.146   2.485 -0.1375 -0.8394  0.1168
   67MOL   C53837630   4.152   1.233   2.538  0.1897 -0.1040  0.2813
   67MOL   C53937631   4.123   1.312   2.663 -0.5198 -0.2379  0.4103
   67MOL   N54037632   4.223   1.395   2.702 -0.1856  0.0871  0.1956
   67MOL   C54137633   4.233   1.492   2.806 -0.1554 -0.2729 -0.2366
   67MOL   C54237634   4.354   1.555   2.834 -0.0264  0.7890  0.5958
   67MOL   C54337635   4.366   1.651   2.938 -0.0229  0.1777 -0.6845
   67MOL   C54437636   4.248   1.693   3.001 -0.4346  0.6530  0.6306
   67MOL   N54537637   4.253   1.796   3.095  0.3452 -0.6288  0.2228
   67MOL   C54637638   4.124   1.630   2.978  0.4797 -0.7257 -0.5084
   67MOL   C54737639   4.117   1.528   2.879 -0.1452 -0.3426  0.1392
   67MOL   O54837640   4.017   1.292   2.723  0.2879 -0.0921  0.0368
   67MOL   C54937641   4.277   1.244   2.471  0.8220 -0.0290 -0.2685
   67MOL   C55037642   4.305   1.162   2.359 -0.8159 -0.0577 -0.9196
   67MOL   O55137643   4.204   0.850   2.205 -0.4108  0.3366 -0.0188
   67MOL   H55237644   4.015   0.987   2.353 -0.0438  0.3568  1.0361
   67MOL   H55337645   3.958   1.146   2.528 -0.7453  2.7038 -1.1254
   67MOL   H55437646   4.294   1.394   2.631 -1.1261  2.6420 -0.8536
   67MOL   H55537647   4.441   1.526   2.778 -0.3492  0.4184  0.2813
   67MOL   H55637648   4.458   1.701   2.963 -1.2103  1.3252  1.4254
   67MOL   H55737649   4.166   1.835   3.129  1.2765 -0.7557  2.9328
   67MOL   H55837650   4.037   1.674   3.025  0.9533  0.7371 -0.9498
   67MOL   H55937651   4.019   1.484   2.870  0.2373 -1.5034  1.3571
   67MOL   H56037652   4.359   1.306   2.503 -0.3957  1.5207 -0.0752
   67MOL   H56137653   4.405   1.151   2.320 -0.0854  2.5796  0.1237
   67MOL   H56237654   4.325   1.865   3.077 -0.8847  0.3576 -1.0123
   68MOL     C137655   7.822   5.015   6.836  0.5854 -0.2260  0.6607
   68MOL     C237656   7.885   4.890   6.881  0.6540  0.0890 -1.3742
   68MOL     C337657   8.012   4.848   6.838  0.0550  0.8421  0.3718
   68MOL     C437658   8.063   4.732   6.898 -0.9062 -0.0993  0.1943
   68MOL     C537659   8.005   4.669   7.008  0.2004 -0.1606  0.4331
   68MOL     C637660   8.065   4.545   7.072  0.6166 -0.2256 -0.3025
   68MOL     N737661   0.050   4.552   7.081  0.6210 -0.0861  0.0301
   68MOL     C837662   0.138   4.462   7.149  0.7064  0.3560  0.1137
   68MOL     C937663   0.102   4.325   7.178 -0.6577 -0.7554  0.5411
   68MOL    C1037664   0.180   4.244   7.264 -0.3018  0.4896 -0.2844
   68MOL    C1137665   0.305   4.294   7.320 -0.1377  0.3704 -0.1950
   68MOL    N1237666   0.391   4.211   7.402 -0.0322  0.2135  0.1131
   68MOL    C1337667   0.344   4.426   7.285 -0.0541 -0.1590 -0.3383
   68MOL    C1437668   0.261   4.511   7.202  0.1063 -0.7347  0.4356
   68MOL    O1537669   7.994   4.456   7.131 -0.4330 -0.6482 -0.4279
   68MOL    C1637670   7.884   4.720   7.058  0.3679 -0.0852  0.6709
   68MOL    C1737671   7.823   4.821   6.987  0.1951  0.3481  0.3017
   68MOL    O1837672   7.723   5.066   6.890  0.2600 -0.0101  0.4669
   68MOL    H1937673   8.061   4.892   6.753 -0.9242 -0.0662 -0.6811
   68MOL    H2037674   0.006   4.691   6.854 -0.5970  1.0956 -0.2984
   68MOL    H2137675   0.083   4.641   7.047  2.8329 -0.8022  0.2387
   68MOL    H2237676   0.011   4.275   7.149 -1.3585  1.4163 -1.0989
   68MOL    H2337677   0.145   4.142   7.279  1.3355 -0.0850 -0.2224
   68MOL    H2437678   0.460   4.255   7.462  0.2831 -0.3230  0.1408
   68MOL    H2537679   0.440   4.459   7.321 -0.8032  1.5722  0.1395
   68MOL    H2637680   0.289   4.611   7.170 -2.5618  1.1400  3.6372
   68MOL    H2737681   7.831   4.668   7.136  1.0996 -0.3833  0.9666
   68MOL    H2837682   7.724   4.845   7.024 -0.2556  1.8805 -1.7627
   68MOL    H2937683   7.872   5.055   6.748  1.0732 -1.5133  0.3494
   68MOL    C3037684   0.389   4.080   7.423 -0.4174 -0.3929 -0.0722
   68MOL    C3137685   0.494   4.027   7.518 -0.0444 -0.4813 -0.3769
   68MOL    C3237686   0.539   3.892   7.498  0.5295 -0.0841  0.1563
   68MOL    C3337687   0.623   3.829   7.591 -0.3023 -0.5445 -0.4825
   68MOL    C3437688   0.684   3.894   7.706  0.7348  0.0441  0.0078
   68MOL    C3537689   0.771   3.824   7.811 -0.4802  1.2246  0.5179
   68MOL    N3637690   0.779   3.693   7.806 -0.4710  0.6988 -0.3135
   68MOL    C3737691   0.838   3.599   7.898 -0.7514 -0.4762 -0.2200
   68MOL    C3837692   0.931   3.632   8.004 -0.4672 -0.4877  0.0689
   68MOL    C3937693   0.987   3.532   8.084  0.0588 -0.0803 -0.2884
   68MOL    C4037694   0.945   3.399   8.062 -0.5618 -0.1560 -0.2172
   68MOL    N4137695   1.008   3.290   8.133  0.0833  0.4312 -0.4483
   68MOL    C4237696   0.847   3.371   7.973  0.2340 -0.0154  0.0567
   68MOL    C4337697   0.795   3.468   7.886  0.1303  0.0708  0.1117
   68MOL    O4437698   0.832   3.892   7.895 -0.4894 -0.2282 -0.1379
   68MOL    C4537699   0.642   4.029   7.724  0.0337 -0.7729  0.8124
   68MOL    C4637700   0.542   4.092   7.638 -0.1703 -0.3096  0.4477
   68MOL    O4737701   0.307   4.002   7.374  0.1220 -0.4327 -0.4962
   68MOL    H4837702   0.492   3.840   7.416 -0.7404  1.4046 -0.0802
   68MOL    H4937703   0.642   3.724   7.574  1.9663 -0.6097  2.0291
   68MOL    H5037704   0.736   3.645   7.728 -0.0883  0.2386 -0.2471
   68MOL    H5137705   0.962   3.733   8.024 -3.0085  0.5561 -1.0985
   68MOL    H5237706   1.070   3.557   0.002  0.3537 -0.9963 -0.2999
   68MOL    H5337707   0.966   3.200   8.117 -1.0480  1.1551 -1.5975
   68MOL    H5437708   0.818   3.268   7.957  3.2056 -0.5332 -2.3338
   68MOL    H5537709   0.722   3.438   7.813 -1.5719  2.8421  0.5730
   68MOL    H5637710   0.674   4.087   7.809 -1.1870 -0.4707  1.0738
   68MOL    H5737711   0.511   4.194   7.655  0.1444 -0.2143  0.4478
   68MOL    C5837712   1.134   3.288   0.045  0.5175  0.0741  0.0136
   68MOL    C5937713   1.170   3.163   0.128  0.2312 -0.3021 -0.5849
   68MOL    C6037714   1.086   3.048   0.129 -0.7569  0.4151  0.2779
   68MOL    C6137715   1.122   2.927   0.191  0.0962  0.1079  0.0170
   68MOL    C6237716   1.242   2.923   0.268 -0.3801 -0.5428  1.1080
   68MOL    C6337717   1.299   2.800   0.317 -0.9115 -0.4299  0.2891
   68MOL    N6437718   1.221   2.732   0.404 -0.2829  0.2149 -0.4130
   68MOL    C6537719   1.224   2.594   0.438 -0.0694  0.2219 -0.0762
   68MOL    C6637720   1.230   2.499   0.345  0.0762  0.6175  0.1581
   68MOL    C6737721   1.196   2.369   0.381  0.4950 -1.3902 -0.1647
   68MOL    C6837722   1.159   2.342   0.513  1.2812 -0.4970 -0.0839
   68MOL    N6937723   1.125   2.207   0.534 -0.1826 -0.5748 -0.3189
   68MOL    C7037724   1.172   2.444   0.608 -0.0574  0.0999 -0.6154
   68MOL    C7137725   1.200   2.570   0.570  0.2136 -0.5079 -0.0664
   68MOL    O7237726   1.415   2.767   0.289  0.1626  0.3645 -0.1028
   68MOL    C7337727   1.321   3.036   0.280  0.4431  0.2107  0.3924
   68MOL    C7437728   1.283   3.160   0.213 -0.0830 -0.3905  0.2270
   68MOL    O7537729   1.217   3.379   0.055 -0.2318 -0.3966 -0.1499
   68MOL    H7637730   0.996   3.055   0.068  1.4665 -1.1047 -3.3379
   68MOL    H7737731   1.064   2.841   0.161  0.1443  0.6928 -1.8483
   68MOL    H7837732   1.140   2.777   0.445  0.4350  1.1748 -0.0180
   68MOL    H7937733   1.251   2.520   0.241 -1.3587 -0.5452 -0.3876
   68MOL    H8037734   1.194   2.287   0.311 -0.0246 -1.0146 -0.5936
   68MOL    H8137735   1.140   2.140   0.460  1.6802  0.0047 -0.4967
   68MOL    H8237736   1.170   2.434   0.716  0.0349  3.9607 -0.2163
   68MOL    H8337737   1.200   2.656   0.636 -0.4459  0.0075 -0.7352
   68MOL    H8437738   1.417   3.048   0.329 -0.0196 -1.5683  1.7745
   68MOL    H8537739   1.352   3.242   0.222  0.8528 -1.2400  0.9178
   68MOL    C8637740   1.063   2.163   0.646 -0.2090 -0.4478  0.1503
   68MOL    C8737741   0.997   2.032   0.645 -0.1398 -0.3036 -0.4533
   68MOL    C8837742   0.887   2.003   0.732 -0.3287 -0.2856  0.3282
   68MOL    C8937743   0.839   1.876   0.741 -0.7703 -0.1644 -0.3562
   68MOL    C9037744   0.876   1.774   0.652  0.2264  0.3439  0.7061
   68MOL    C9137745   0.811   1.636   0.647 -0.1675  0.1636  0.2951
   68MOL    N9237746   0.716   1.619   0.730  0.0301 -0.8531 -0.8180
   68MOL    C9337747   0.614   1.525   0.728 -0.3300 -0.3060 -0.4125
   68MOL    C9437748   0.522   1.517   0.619 -0.5020 -0.2703  1.0898
   68MOL    C9537749   0.409   1.430   0.623  0.1674  0.0518 -0.0806
   68MOL    C9637750   0.386   1.354   0.743  0.4496 -0.1620  0.0082
   68MOL    N9737751   0.262   1.289   0.767  0.0726  0.3107 -0.5751
   68MOL    C9837752   0.487   1.346   0.840 -0.5331  0.9286 -0.0837
   68MOL    C9937753   0.600   1.431   0.835  1.0714 -0.1543  0.2061
   68MOL   O10037754   0.841   1.557   0.558  0.3286  0.5940 -0.5575
   68MOL   C10137755   0.969   1.811   0.551  0.3029 -0.2905  0.0137
   68MOL   C10237756   1.038   1.934   0.556 -0.0393 -0.0335  0.6829
   68MOL   O10337757   1.052   2.228   0.746 -0.5473 -0.0379 -0.0206
   68MOL   H10437758   0.843   2.068   0.807  0.2888 -1.5809  1.8324
   68MOL   H10537759   0.757   1.860   0.810 -0.7876  1.8420  0.1101
   68MOL   H10637760   0.710   1.692   0.800  0.0204 -1.6004 -0.0322
   68MOL   H10737761   0.538   1.597   0.548 -0.1928  1.4353  3.0291
   68MOL   H10837762   0.340   1.436   0.541  0.2500  1.1073 -0.0837
   68MOL   H10937763   0.204   1.317   0.844  0.0952  0.6800 -0.6920
   68MOL   H11037764   0.465   1.285   0.926 -2.1544  1.3046 -0.2005
   68MOL   H11137765   0.672   1.411   0.912  1.1049 -0.8783 -0.0069
   68MOL   H11237766   0.991   1.743   0.470  0.4269  1.3636 -1.3659
   68MOL   H11337767   1.095   1.949   0.465 -0.2428 -2.9453  0.0229
   68MOL   C11437768   0.188   1.217   0.684  0.8889  0.2611  0.7516
   68MOL   C11537769   0.263   1.146   0.576  0.7821  0.0423  0.4294
   68MOL   C11637770   0.336   1.032   0.600  0.0905 -0.8163 -0.2406
   68MOL   C11737771   0.400   0.959   0.495 -0.6302 -0.6726  0.2257
   68MOL   C11837772   0.405   1.012   0.364 -0.4411  0.4431 -0.1508
   68MOL   C11937773   0.484   0.941   0.259  0.1003 -0.1841  0.2895
   68MOL   N12037774   0.616   0.949   0.271 -0.1565  0.2010  0.0467
   68MOL   C12137775   0.697   1.039   0.337  0.2084 -0.4755 -0.1852
   68MOL   C12237776   0.657   1.168   0.366 -0.3775 -0.5153 -0.0378
   68MOL   C12337777   0.743   1.258   0.444 -0.5384  0.9923  0.1730
   68MOL   C12437778   0.860   1.207   0.498  0.2572 -0.1283 -0.1290
   68MOL   N12537779   0.928   1.299   0.583 -0.4137  0.2965 -0.1675
   68MOL   C12637780   0.898   1.076   0.466  0.2468 -0.2023 -0.2124
   68MOL   C12737781   0.817   0.992   0.385 -1.3379  0.0045 -0.4235
   68MOL   O12837782   0.430   0.898   0.158  0.4735 -0.6849  0.2397
   68MOL   C12937783   0.332   1.133   0.342  0.0376  0.5833  0.0585
   68MOL   C13037784   0.263   1.192   0.443 -0.9387  0.1659 -0.2408
   68MOL   O13137785   0.069   1.194   0.699 -0.5992  0.0972  0.1838
   68MOL   H13237786   0.341   0.989   0.699 -0.0194  0.1552  0.1916
   68MOL   H13337787   0.455   0.868   0.513  0.4426 -0.1694 -0.4574
   68MOL   H13437788   0.662   0.877   0.217 -1.0815 -0.0877 -0.3687
   68MOL   H13537789   0.565   1.211   0.330 -1.3226 -0.2230  2.6093
   68MOL   H13637790   0.710   1.360   0.453 -3.2480  0.3556 -1.7861
   68MOL   H13737791   0.887   1.385   0.617 -0.5263  1.5794 -3.4373
   68MOL   H13837792   0.995   1.040   0.498 -0.5071 -2.3090 -0.2574
   68MOL   H13937793   0.848   0.891   0.361  0.8273  0.3545  0.7362
   68MOL   H14037794   0.326   1.172   0.242  1.0710  1.4006  0.3105
   68MOL   H14137795   0.208   1.283   0.420 -0.4116  0.5194 -0.1097
   68MOL   C14237796   1.060   1.305   0.611  0.2434 -0.3028 -0.3998
   68MOL   C14337797   1.104   1.413   0.713 -0.1978  0.8321  0.0619
   68MOL   C14437798   1.218   1.488   0.687  0.1223 -0.0511 -0.3349
   68MOL   C14537799   1.259   1.587   0.774 -0.0351  0.7476  0.5425
   68MOL   C14637800   1.186   1.615   0.891  0.0423 -0.4780 -0.5025
   68MOL   C14737801   1.210   1.734   0.979 -0.0209  0.8996  0.5866
   68MOL   N14837802   1.264   1.844   0.925 -0.3410 -0.1343 -0.6198
   68MOL   C14937803   1.314   1.969   0.994  0.7372  0.4854 -0.4071
   68MOL   C15037804   1.303   2.090   0.923  0.1352  0.0972  0.1987
   68MOL   C15137805   1.358   2.208   0.972 -0.1350  0.3757 -0.3570
   68MOL   C15237806   1.403   2.220   1.104  0.3638  0.1980  0.4080
   68MOL   N15337807   1.439   2.349   1.155  0.7878  0.1725 -0.7338
   68MOL   C15437808   1.404   2.099   1.179 -0.9009 -0.2730  0.1978
   68MOL   C15537809   1.364   1.976   1.127 -0.2645 -0.3081  0.5098
   68MOL   O15637810   1.184   1.723   1.098  0.3181  0.3057  0.2298
   68MOL   C15737811   1.076   1.534   0.929  0.3643 -0.2488 -0.3507
   68MOL   C15837812   1.027   1.439   0.831  0.5137  0.9448  0.1950
   68MOL   O15937813   1.145   1.235   0.555  0.9307 -0.1454  0.6832
   68MOL   H16037814   1.286   1.469   0.605  0.5733 -0.7872  0.2104
   68MOL   H16137815   1.347   1.645   0.753  0.0215  0.5582  0.2633
   68MOL   H16237816   1.270   1.844   0.824  0.6738  0.3593 -0.5679
   68MOL   H16337817   1.271   2.082   0.820 -0.6126  1.1739  0.3439
   68MOL   H16437818   1.346   2.298   0.913  0.5347  1.3126  0.9230
   68MOL   H16537819   1.510   2.359   1.227 -1.8280  2.5012  1.6430
   68MOL   H16637820   1.443   2.112   1.279 -0.5992 -0.7025  0.1371
   68MOL   H16737821   1.376   1.886   1.185 -0.1277 -0.0085  0.9498
   68MOL   H16837822   1.013   1.566   1.011  0.6275  0.0555 -0.2670
   68MOL   H16937823   0.941   1.379   0.855  0.2548 -0.3065 -3.6409
   68MOL   C17037824   1.357   2.455   1.176  0.5047 -0.6693  0.1158
   68MOL   C17137825   1.400   2.546   1.284 -0.2984 -0.0292  0.0548
   68MOL   C17237826   1.361   2.679   1.293  0.0182 -0.1422  0.3845
   68MOL   C17337827   1.366   2.747   1.415 -0.5256  0.3469  0.0176
   68MOL   C17437828   1.413   2.685   1.539 -0.3524 -0.1078 -0.3034
   68MOL   C17537829   1.435   2.768   1.665 -0.0677  0.4485 -0.0847
   68MOL   N17637830   1.377   2.719   1.778  0.1833 -0.0578  0.2939
   68MOL   C17737831   1.417   2.758   1.907 -0.6839 -0.3382 -0.3349
   68MOL   C17837832   1.555   2.763   1.937 -0.5257  0.7617  0.1614
   68MOL   C17937833   1.600   2.766   2.069  0.5101  0.1912 -0.8002
   68MOL   C18037834   1.504   2.779   2.172 -0.2732 -0.6152  0.0940
   68MOL   N18137835   1.543   2.787   2.309  1.1162 -0.3488 -0.5839
   68MOL   C18237836   1.359   2.778   2.145  0.4289 -0.3744 -0.1175
   68MOL   C18337837   1.317   2.776   2.007 -0.2147  0.0785 -0.3589
   68MOL   O18437838   1.503   2.874   1.656  0.3433  0.5695  0.0369
   68MOL   C18537839   1.469   2.560   1.520  0.0062 -0.1740  0.0320
   68MOL   C18637840   1.461   2.490   1.399 -0.2215 -0.0245  0.0551
   68MOL   O18737841   1.247   2.474   1.119 -0.7426  0.2380  0.4750
   68MOL   H18837842   1.303   2.722   1.212 -0.2233  0.5918  0.9350
   68MOL   H18937843   1.331   2.848   1.430  0.3746  0.6487  0.1017
   68MOL   H19037844   1.299   2.656   1.779  1.5050 -1.7169  0.4000
   68MOL   H19137845   1.621   2.743   1.854 -0.0815 -1.8176  1.1009
   68MOL   H19237846   1.707   2.767   2.082  0.4373  0.5701 -0.2196
   68MOL   H19337847   1.472   2.758   2.374  1.3958 -0.2412 -0.2265
   68MOL   H19437848   1.283   2.777   2.222  1.8829 -0.2487  1.3480
   68MOL   H19537849   1.213   2.766   1.981  0.2604 -1.7268 -1.6169
   68MOL   H19637850   1.508   2.505   1.604  3.0918 -0.3103 -1.4290
   68MOL   H19737851   1.498   2.389   1.400 -1.9154 -0.6932  3.1921
   68MOL   C19837852   1.638   2.865   2.354  0.4044 -0.2163 -0.7608
   68MOL   C19937853   1.663   2.853   2.501  0.3965  0.3280  0.3990
   68MOL   C20037854   1.597   2.758   2.585 -0.8725  1.1511 -0.1314
   68MOL   C20137855   1.644   2.738   2.716  0.7093 -0.3183 -0.5435
   68MOL   C20237856   1.728   2.839   2.775  1.1051  0.1939  0.2512
   68MOL   C20337857   1.776   2.825   2.912  0.3103  0.4524  0.0621
   68MOL   N20437858   1.680   2.787   3.004  0.3406  0.1988  0.5687
   68MOL   C20537859   1.694   2.734   3.137  0.0632  0.3050 -0.1835
   68MOL   C20637860   1.813   2.713   3.207  0.2499 -0.4364  0.5853
   68MOL   C20737861   1.819   2.675   3.340 -0.1232  0.8035 -1.1497
   68MOL   C20837862   1.703   2.668   3.417 -0.5196 -0.4510  0.2295
   68MOL   N20937863   1.727   2.631   3.553 -0.3646 -0.0301 -0.7891
   68MOL   C21037864   1.579   2.705   3.351 -0.5031  0.2802  0.4977
   68MOL   C21137865   1.577   2.736   3.212  0.1605 -0.1434 -0.5085
   68MOL   O21237866   1.892   2.845   2.938 -0.8504  0.2866 -0.1099
   68MOL   C21337867   1.790   2.936   2.695 -0.1741  0.3418  0.0786
   68MOL   C21437868   1.759   2.939   2.558  0.2453 -1.1795 -0.0812
   68MOL   O21537869   1.719   2.926   2.281  0.3819  0.6352 -0.3093
   68MOL   H21637870   1.546   2.675   2.540 -0.7613  1.5671 -1.0469
   68MOL   H21737871   1.619   2.653   2.778  0.5287 -0.9724 -1.4955
   68MOL   H21837872   1.583   2.795   2.975  0.1698  1.0395  1.3409
   68MOL   H21937873   1.902   2.724   3.147  0.8027 -0.5845  1.3742
   68MOL   H22037874   1.915   2.663   3.387 -0.9573 -1.3948  0.0385
   68MOL   H22137875   1.826   2.621   3.571 -0.3338 -0.9424 -1.4120
   68MOL   H22237876   1.485   2.707   3.406 -0.3992  3.2528  0.6497
   68MOL   H22337877   1.485   2.767   3.165  1.3084  2.6519 -1.0395
   68MOL   H22437878   1.855   3.016   2.725  0.2198 -0.5967  1.7860
   68MOL   H22537879   1.794   3.021   2.496 -0.4821  0.1447  1.2263
   68MOL   C22637880   1.660   2.689   3.660  0.7427 -0.6486  0.9284
   68MOL   C22737881   1.749   2.763   3.755 -0.2034  0.3779 -0.2332
   68MOL   C22837882   1.705   2.807   3.881  0.0667 -0.3236 -0.0002
   68MOL   C22937883   1.786   2.889   3.960  0.1029 -0.4774 -0.0650
   68MOL   C23037884   1.907   2.936   3.915  0.1622 -0.3711 -0.3973
   68MOL   C23137885   1.990   3.018   4.009 -0.0449 -0.4159 -0.0830
   68MOL   N23237886   2.077   3.116   3.962 -0.4718  0.1278 -0.5276
   68MOL   C23337887   2.072   3.181   3.836  0.2061 -0.3759 -0.5582
   68MOL   C23437888   1.952   3.223   3.773 -0.2379 -0.0675  0.5572
   68MOL   C23537889   1.958   3.283   3.649  0.5309 -0.1784  0.4218
   68MOL   C23637890   2.081   3.316   3.589  0.1190 -0.0680  0.3920
   68MOL   N23737891   2.083   3.380   3.466  0.0491  0.4518 -0.3493
   68MOL   C23837892   2.201   3.280   3.650 -0.0448  0.5127  0.0284
   68MOL   C23937893   2.200   3.216   3.777  0.5546  0.1414  0.2213
   68MOL   O24037894   1.995   2.993   4.126  0.4721  0.4342 -0.6144
   68MOL   C24137895   1.951   2.897   3.791  0.0658  0.0610  0.1129
   68MOL   C24237896   1.879   2.810   3.711  0.3251 -0.2105  0.0835
   68MOL   O24337897   1.543   2.673   3.687  0.2310  0.2333  0.7363
   68MOL   H24437898   1.605   2.784   3.915 -0.2775  0.1599 -0.6808
   68MOL   H24537899   1.754   2.915   4.060  0.8157 -0.8399  0.2560
   68MOL   H24637900   2.147   3.147   4.028  0.7558 -0.3644 -1.5849
   68MOL   H24737901   1.861   3.196   3.824 -0.4359  0.2786  0.3858
   68MOL   H24837902   1.869   3.318   3.599  1.3596  1.7585  0.2334
   68MOL   H24937903   2.010   3.359   3.401  0.6443 -1.1821 -0.5140
   68MOL   H25037904   2.295   3.310   3.607 -0.5344  3.6506  1.0729
   68MOL   H25137905   2.293   3.199   3.829  0.0498  0.6662  1.3179
   68MOL   H25237906   2.049   2.933   3.763 -1.0613  2.9829 -0.2725
   68MOL   H25337907   1.915   2.781   3.614 -1.5601  1.9619 -1.3208
   68MOL   C25437908   2.169   3.481   3.429 -0.3634 -0.0249  0.0424
   68MOL   C25537909   2.150   3.544   3.296  0.4415 -0.3931 -1.0546
   68MOL   C25637910   2.261   3.609   3.236  0.4739 -0.0674 -0.0734
   68MOL   C25737911   2.250   3.650   3.105  0.7159 -0.2041  0.3194
   68MOL   C25837912   2.128   3.645   3.039 -0.1972  0.1788 -0.1282
   68MOL   C25937913   2.132   3.681   2.890  0.2200 -0.1266 -0.6262
   68MOL   N26037914   2.035   3.629   2.819  0.1697  0.0022 -0.3530
   68MOL   C26137915   2.019   3.631   2.683 -0.0072 -0.0382 -0.1627
   68MOL   C26237916   1.886   3.638   2.631 -0.5796  0.2731 -0.3293
   68MOL   C26337917   1.873   3.622   2.491  0.2920 -0.1150 -0.0632
   68MOL   C26437918   1.980   3.619   2.402 -0.6666  0.2144 -0.0111
   68MOL   N26537919   1.962   3.599   2.260 -0.4020  0.2808  0.2578
   68MOL   C26637920   2.110   3.617   2.461 -0.0552 -0.8144 -0.2378
   68MOL   C26737921   2.130   3.625   2.597  0.5671  0.2777 -0.3845
   68MOL   O26837922   2.217   3.757   2.847 -0.2046  0.4675  0.1746
   68MOL   C26937923   2.007   3.590   3.099 -0.1254 -0.2948  0.2789
   68MOL   C27037924   2.023   3.544   3.234  0.1471  0.4128  0.3020
   68MOL   O27137925   2.263   3.516   3.494 -0.4481 -0.1070 -0.1603
   68MOL   H27237926   2.360   3.617   3.278 -0.6653  1.8980  2.3663
   68MOL   H27337927   2.344   3.679   3.059  0.3465 -0.0624 -0.3490
   68MOL   H27437928   1.962   3.575   2.864 -0.6768  0.5090 -1.1012
   68MOL   H27537929   1.795   3.659   2.685  0.0014  2.0946 -0.0451
   68MOL   H27637930   1.771   3.633   2.455  0.1377  2.1048  0.9086
   68MOL   H27737931   2.043   3.564   2.211  0.2225 -1.0419  2.2043
   68MOL   H27837932   2.197   3.605   2.397 -1.7418 -0.4441 -2.6890
   68MOL   H27937933   2.232   3.630   2.632  0.7248  0.9537 -0.9233
   68MOL   H28037934   1.911   3.591   3.050 -0.0151  1.5289  0.0561
   68MOL   H28137935   1.935   3.506   3.284 -1.1027  0.2290 -1.9435
   68MOL   C28237936   1.854   3.636   2.192  0.1007 -0.2341  0.1283
   68MOL   C28337937   1.851   3.584   2.054 -0.1466 -0.0506 -0.7405
   68MOL   C28437938   1.896   3.452   2.032  0.4864  0.2417  0.0159
   68MOL   C28537939   1.900   3.409   1.900 -0.1300  0.0976  0.2610
   68MOL   C28637940   1.869   3.498   1.791 -0.1633  0.1566 -0.3518
   68MOL   C28737941   1.891   3.448   1.648 -0.8014  0.1271  0.0358
   68MOL   N28837942   2.020   3.413   1.613  0.3028 -0.0640  0.5446
   68MOL   C28937943   2.134   3.422   1.699 -0.2367 -0.1453  0.6087
   68MOL   C29037944   2.157   3.541   1.777  0.1779  0.4486 -0.0269
   68MOL   C29137945   2.251   3.544   1.878 -1.0726 -0.5492  0.1170
   68MOL   C29237946   2.328   3.435   1.916  0.8761  0.2196 -0.9333
   68MOL   N29337947   2.419   3.428   2.024  0.9752 -0.4070 -0.1758
   68MOL   C29437948   2.314   3.321   1.827 -0.1648 -0.0045  0.0121
   68MOL   C29537949   2.219   3.314   1.721 -0.2134 -0.3273  0.2686
   68MOL   O29637950   1.795   3.433   1.581 -0.4251 -0.2470 -0.1732
   68MOL   C29737951   1.809   3.623   1.814  1.0122 -0.7517  0.2122
   68MOL   C29837952   1.808   3.669   1.950 -0.7772 -0.0925  0.2501
   68MOL   O29937953   1.762   3.708   2.220 -0.1768 -0.8719  0.1114
   68MOL   H30037954   1.933   3.393   2.115 -0.3562 -0.4556 -0.0987
   68MOL   H30137955   1.953   3.316   1.882 -2.9767 -1.3010 -1.3048
   68MOL   H30237956   2.031   3.351   1.535  1.6935  1.0737 -0.1918
   68MOL   H30337957   2.089   3.623   1.759 -0.1830 -0.2854 -2.1760
   68MOL   H30437958   2.258   3.642   1.924  3.1142 -0.5992 -0.2189
   68MOL   H30537959   2.475   3.344   2.026 -0.8104 -1.6835 -1.6965
   68MOL   H30637960   2.371   3.230   1.845 -0.1250  0.0689  0.2602
   68MOL   H30737961   2.201   3.226   1.660 -1.7061  0.1928 -0.0658
   68MOL   H30837962   1.772   3.688   1.737  0.4477 -1.0935  0.1942
   68MOL   H30937963   1.771   3.765   1.981  1.2188  0.6941  0.2676
   68MOL   C31037964   2.406   3.490   2.140 -0.3344  0.0357  0.1517
   68MOL   C31137965   2.483   3.423   2.252  0.7487  0.2647  0.2882
   68MOL   C31237966   2.476   3.288   2.269 -0.2754 -0.6219 -0.1567
   68MOL   C31337967   2.531   3.219   2.378 -0.4842 -0.0873  0.2395
   68MOL   C31437968   2.603   3.290   2.478  0.2925  0.1620 -0.2200
   68MOL   C31537969   2.653   3.224   2.598 -0.0153 -0.0103 -0.3428
   68MOL   N31637970   2.558   3.140   2.650  0.1216 -0.3934  0.2807
   68MOL   C31737971   2.561   3.053   2.761 -0.2892 -0.3400  0.2455
   68MOL   C31837972   2.679   3.009   2.826 -0.4224 -0.4678 -0.7205
   68MOL   C31937973   2.672   2.918   2.932  0.4870  0.5217 -0.1974
   68MOL   C32037974   2.551   2.860   2.972 -0.2866  0.2970  1.0258
   68MOL   N32137975   2.569   2.771   3.075 -0.3505 -0.6445  0.1469
   68MOL   C32237976   2.434   2.910   2.919 -0.0906 -0.2456 -0.1655
   68MOL   C32337977   2.440   2.998   2.807  0.5268 -0.4549  0.2191
   68MOL   O32437978   2.767   3.250   2.639 -0.3021 -0.4659 -0.4195
   68MOL   C32537979   2.606   3.430   2.461  0.1082 -0.0973 -0.0630
   68MOL   C32637980   2.540   3.496   2.349 -0.8303 -0.1275 -0.9305
   68MOL   O32737981   2.361   3.600   2.155 -0.2289 -0.2254 -0.2690
   68MOL   H32837982   2.424   3.220   2.203 -0.2758 -1.5972  0.8432
   68MOL   H32937983   2.523   3.112   2.391  1.5731 -0.6742 -2.9203
   68MOL   H33037984   2.469   3.140   2.602 -0.0408 -1.1650  0.5824
   68MOL   H33137985   2.770   3.061   2.801 -0.9487  1.7506  1.7238
   68MOL   H33237986   2.762   2.891   2.986 -0.3500 -1.6703  0.1521
   68MOL   H33337987   2.667   2.759   3.098 -0.1391 -0.4142 -0.6287
   68MOL   H33437988   2.341   2.884   2.966  2.0010 -2.0554  3.1787
   68MOL   H33537989   2.350   3.034   2.759 -0.7043 -1.3125  1.8372
   68MOL   H33637990   2.662   3.492   2.529  3.1828 -0.6305 -2.0099
   68MOL   H33737991   2.532   3.604   2.340 -0.8873  0.0921  1.3846
   68MOL   C33837992   2.486   2.699   3.160  0.2665 -0.6537  0.7185
   68MOL   C33937993   2.557   2.644   3.280  0.4686 -0.6973 -0.7333
   68MOL   C34037994   2.696   2.607   3.272  0.8249 -0.1975 -0.0132
   68MOL   C34137995   2.748   2.528   3.382 -0.1905 -0.8058 -0.0876
   68MOL   C34237996   2.669   2.502   3.491  0.1031 -0.4184 -0.0108
   68MOL   C34337997   2.732   2.460   3.626  0.0818  0.0548  0.6184
   68MOL   N34437998   2.689   2.345   3.680  0.3929 -1.0767  0.8906
   68MOL   C34537999   2.740   2.281   3.794 -0.8823 -0.2923  0.1457
   68MOL   C34638000   2.647   2.232   3.888 -0.6069 -0.1412 -0.4685
   68MOL   C34738001   2.700   2.172   4.002 -0.0003 -0.1106 -0.1675
   68MOL   C34838002   2.838   2.175   4.030  0.2522  0.0912  0.1912
   68MOL   N34938003   2.892   2.109   4.142  0.4116 -0.0100  0.2600
   68MOL   C35038004   2.928   2.226   3.936  0.1429  0.6768  0.1396
   68MOL   C35138005   2.883   2.271   3.814  0.4010  0.2320  0.1593
   68MOL   O35238006   2.801   2.540   3.696  0.8403 -0.1357 -0.2434
   68MOL   C35338007   2.536   2.540   3.495  0.0260  0.8687 -0.4029
   68MOL   C35438008   2.478   2.613   3.390  0.0808  1.1023  0.8187
   68MOL   O35538009   2.367   2.676   3.140  0.6368 -0.3116  0.1477
   68MOL   H35638010   2.756   2.632   3.186  2.1960  0.7339  1.1909
   68MOL   H35738011   2.855   2.518   3.393  0.2485  2.5083 -0.6591
   68MOL   H35838012   2.613   2.300   3.630  0.1149  0.7675 -0.3724
   68MOL   H35938013   2.542   2.235   3.863 -1.2154  0.2768  2.0535
   68MOL   H36038014   2.622   2.136   4.067  1.8432  0.2785  2.3753
   68MOL   H36138015   2.970   2.045   4.131 -0.8178 -1.3371 -1.0081
   68MOL   H36238016   3.034   2.233   3.952  0.2498  0.1942 -0.3909
   68MOL   H36338017   2.946   2.313   3.737 -0.1067  0.6123 -0.0517
   68MOL   H36438018   2.473   2.518   3.580 -1.2328  0.7988 -1.3277
   68MOL   H36538019   2.375   2.643   3.395 -0.3550 -0.0386 -0.8658
   68MOL   C36638020   2.835   2.092   4.259 -1.1495  0.2632 -0.7538
   68MOL   C36738021   2.897   1.982   4.347 -0.0985 -0.4876  0.2464
   68MOL   C36838022   3.035   1.953   4.330  0.1119 -0.8110  0.5839
   68MOL   C36938023   3.098   1.853   4.408  0.2360  0.0668  0.0196
   68MOL   C37038024   3.029   1.794   4.517 -0.9292 -0.0488 -0.1986
   68MOL   C37138025   3.107   1.710   4.621  0.9401  0.1631 -0.0790
   68MOL   N37238026   3.079   1.727   4.747  0.5697 -0.1312  0.1147
   68MOL   C37338027   3.129   1.653   4.858 -0.0294  0.0984 -0.2171
   68MOL   C37438028   3.171   1.521   4.848 -0.2385  0.5600 -0.1704
   68MOL   C37538029   3.212   1.451   4.964  0.3192  0.0221 -0.6945
   68MOL   C37638030   3.202   1.521   5.090 -0.2604  0.2193 -0.5484
   68MOL   N37738031   3.253   1.454   5.202  0.0935  0.7690  0.7467
   68MOL   C37838032   3.159   1.653   5.097  0.2070  0.1555 -0.5628
   68MOL   C37938033   3.122   1.722   4.982 -0.6741  0.1717 -0.5273
   68MOL   O38038034   3.190   1.633   4.579  0.3432 -0.2993 -0.7050
   68MOL   C38138035   2.892   1.830   4.538  0.2310  0.9963 -0.6832
   68MOL   C38238036   2.826   1.924   4.450 -0.3628 -0.0433 -0.2201
   68MOL   O38338037   2.735   2.148   4.290 -0.4684 -0.3393  0.2256
   68MOL   H38438038   3.083   1.995   4.242 -1.0026  0.1603  0.4143
   68MOL   H38538039   3.198   1.815   4.399  1.4590  3.1287  0.1083
   68MOL   H38638040   3.013   1.800   4.771  2.4464  0.6558  3.2563
   68MOL   H38738041   3.176   1.481   4.748 -1.0150  2.0520 -0.8183
   68MOL   H38838042   3.248   1.349   4.959  0.4712  0.1612 -2.6830
   68MOL   H38938043   3.341   1.406   5.189  0.0069  1.2735 -1.9177
   68MOL   H39038044   3.161   1.699   5.194  1.2503 -2.4536  0.7112
   68MOL   H39138045   3.101   1.828   4.979  1.4937  0.6144 -1.3348
   68MOL   H39238046   2.834   1.783   4.616  2.5411 -0.2563  0.3507
   68MOL   H39338047   2.719   1.938   4.451 -0.3046  0.9964 -3.0865
   68MOL   C39438048   3.206   1.453   5.327 -0.0998  0.5028 -0.3240
   68MOL   C39538049   3.291   1.405   5.441  0.3203 -0.1155 -0.1946
   68MOL   C39638050   3.429   1.409   5.434 -0.2274  0.9195  0.0526
   68MOL   C39738051   3.507   1.350   5.540 -0.4984 -0.0448 -0.5627
   68MOL   C39838052   3.439   1.295   5.651 -0.5053  0.4571  0.3106
   68MOL   C39938053   3.514   1.222   5.757 -0.0142 -0.2782 -0.5259
   68MOL   N40038054   3.560   1.104   5.715 -0.7345  0.2710 -0.0376
   68MOL   C40138055   3.537   1.038   5.592 -0.3516  0.1381 -0.9146
   68MOL   C40238056   3.648   0.990   5.521 -0.4712 -0.3364 -0.4695
   68MOL   C40338057   3.627   0.912   5.410 -0.5409 -0.2807 -0.7999
   68MOL   C40438058   3.499   0.887   5.359 -0.7687 -0.3345  0.2111
   68MOL   N40538059   3.475   0.821   5.235  0.3412  0.5308  0.1644
   68MOL   C40638060   3.390   0.941   5.427 -0.2758  0.0343  0.0820
   68MOL   C40738061   3.407   1.006   5.545 -0.8917  0.0620  0.3287
   68MOL   O40838062   3.521   1.270   5.875  0.2473 -0.3558 -0.9467
   68MOL   C40938063   3.302   1.306   5.666 -0.2593 -0.1087  0.0705
   68MOL   C41038064   3.231   1.357   5.555 -0.0278  0.1822  0.4134
   68MOL   O41138065   3.086   1.479   5.352 -0.1073 -0.5268  0.2564
   68MOL   H41238066   3.479   1.442   5.344 -0.6157 -1.1307 -0.9368
   68MOL   H41338067   3.614   1.337   5.540 -0.4696  0.1044  0.9898
   68MOL   H41438068   3.619   1.052   5.778 -2.1357 -1.9820 -0.5484
   68MOL   H41538069   3.745   1.017   5.560 -1.4885  2.9430 -0.0334
   68MOL   H41638070   3.711   0.884   5.348 -0.0997  2.2512 -1.4000
   68MOL   H41738071   3.390   0.849   5.189  0.7627  1.5224 -0.0310
   68MOL   H41838072   3.292   0.924   5.386  0.4696 -0.6407 -1.4440
   68MOL   H41938073   3.318   1.044   5.595 -1.4083  0.2002 -0.6861
   68MOL   H42038074   3.252   1.272   5.755 -2.9816 -0.5186 -1.5624
   68MOL   H42138075   3.123   1.352   5.566 -0.0230  0.7655  0.7643
   68MOL   C42238076   3.536   0.724   5.170  0.7652  0.2200 -0.4781
   68MOL   C42338077   3.473   0.672   5.047 -0.8015 -0.1257 -0.2741
   68MOL   C42438078   3.336   0.671   5.032  0.5520  0.3115 -0.9858
   68MOL   C42538079   3.272   0.625   4.917  0.5950 -0.5473 -0.3598
   68MOL   C42638080   3.348   0.584   4.804  0.1707 -0.6457  0.2767
   68MOL   C42738081   3.284   0.535   4.674  0.0713  0.4736 -0.6551
   68MOL   N42838082   3.158   0.481   4.690  0.0877 -1.0856 -0.5068
   68MOL   C42938083   3.074   0.401   4.603 -0.3057 -0.4080  0.0396
   68MOL   C43038084   2.989   0.306   4.660  0.5073 -0.0197  0.2608
   68MOL   C43138085   2.896   0.234   4.580 -0.0408  0.2969 -0.7597
   68MOL   C43238086   2.898   0.247   4.437 -0.1473  0.3054  0.1406
   68MOL   N43338087   2.799   0.171   4.366 -0.0804 -0.1244 -0.5929
   68MOL   C43438088   2.982   0.343   4.384 -0.1128  0.0108  0.0090
   68MOL   C43538089   3.061   0.426   4.467  0.3059  0.0772 -0.1643
   68MOL   O43638090   3.343   0.554   4.566 -0.3816  0.0532  0.3935
   68MOL   C43738091   3.490   0.593   4.814  0.5518 -0.3109 -0.3949
   68MOL   C43838092   3.548   0.636   4.933  0.5761 -0.2463 -0.0824
   68MOL   O43938093   3.646   0.678   5.202  0.4571  0.1402  0.6026
   68MOL   H44038094   3.279   0.711   5.115  0.4955  0.0950 -0.9207
   68MOL   H44138095   3.164   0.626   4.921  0.6351 -0.2570  1.2521
   68MOL   H44238096   3.144   0.464   4.788 -0.5326 -0.7069 -0.5336
   68MOL   H44338097   2.974   0.291   4.766  0.5068 -0.4293  0.2021
   68MOL   H44438098   2.824   0.170   4.628  0.6563 -0.2406 -0.4244
   68MOL   H44538099   2.715   0.134   4.407  0.4486 -1.3496 -0.6177
   68MOL   H44638100   2.972   0.372   4.280 -2.3046  1.0663  0.4938
   68MOL   H44738101   3.108   0.511   4.418  0.3179 -0.0506 -0.3748
   68MOL   H44838102   3.561   0.566   4.737  1.1425 -0.4518  0.2010
   68MOL   H44938103   3.654   0.643   4.952  0.4631  1.2828  0.0920
   68MOL   C45038104   2.803   0.121   4.242  0.5104 -0.3274 -0.4064
   68MOL   C45138105   2.688   0.037   4.188 -0.1533 -0.5709  0.4499
   68MOL   C45238106   2.683   8.133   4.058 -0.0984 -0.2933  0.1313
   68MOL   C45338107   2.576   8.070   3.995  0.5734 -0.3541 -0.1982
   68MOL   C45438108   2.461   8.051   4.082 -0.1723 -0.2437 -0.0289
   68MOL   C45538109   2.333   8.001   4.027  0.3539  0.0710  0.3667
   68MOL   N45638110   2.336   7.894   3.939  0.0526 -0.3888 -0.4962
   68MOL   C45738111   2.226   7.840   3.876  0.1581  0.6864  0.1813
   68MOL   C45838112   2.226   7.703   3.850  0.5256  0.2515  0.4913
   68MOL   C45938113   2.120   7.635   3.790  0.5338  0.0856  0.2679
   68MOL   C46038114   2.001   7.709   3.760 -0.2818  0.6431 -0.5528
   68MOL   N46138115   1.888   7.636   3.723  0.0299  0.0182 -0.8705
   68MOL   C46238116   2.003   7.854   3.771  0.3496  0.2858  0.1307
   68MOL   C46338117   2.114   7.917   3.830 -0.0205 -1.0273 -0.4863
   68MOL   O46438118   2.222   8.048   4.063  0.2540  0.5688  0.2629
   68MOL   C46538119   2.463   8.098   4.216 -0.2639 -0.7604  0.7215
   68MOL   C46638120   2.572   0.022   4.264 -0.5867  0.2535 -0.3237
   68MOL   O46738121   2.890   0.151   4.161  0.3262 -0.1454 -0.1908
   68MOL   H46838122   2.775   8.146   4.002  0.8748  0.7764  1.9089
   68MOL   H46938123   2.582   8.030   3.895 -1.0657 -1.0774 -0.0270
   68MOL   H47038124   2.422   7.845   3.921 -0.0534 -0.4490 -0.8532
   68MOL   H47138125   2.318   7.648   3.864 -0.7171 -2.0839 -0.1776
   68MOL   H47238126   2.137   7.529   3.778 -2.2274 -0.3991  0.3908
   68MOL   H47338127   1.839   7.596   3.802  1.4766  0.4532  0.2751
   68MOL   H47438128   1.911   7.902   3.742 -0.5947 -2.4102 -1.5400
   68MOL   H47538129   2.113   8.024   3.845  2.6954 -0.9248 -0.8708
   68MOL   H47638130   2.371   8.099   4.272 -0.1598  0.0417  0.8940
   68MOL   H47738131   2.559   0.064   4.363  0.3188 -0.0279 -0.0804
   68MOL   C47838132   1.833   7.625   3.599  0.7846  0.0760 -0.1501
   68MOL   C47938133   1.691   7.572   3.599 -0.0238 -0.0358  0.1063
   68MOL   C48038134   1.628   7.539   3.478  0.3704  0.2838  0.7020
   68MOL   C48138135   1.505   7.467   3.477 -0.2313 -0.0357 -0.3763
   68MOL   C48238136   1.444   7.427   3.596 -0.1202  0.7606  0.1670
   68MOL   C48338137   1.315   7.350   3.585 -0.5940  0.0146  0.2972
   68MOL   N48438138   1.292   7.268   3.688  0.3807 -0.1206 -0.5373
   68MOL   C48538139   1.197   7.162   3.706  0.5971  0.4848 -0.5645
   68MOL   C48638140   1.126   7.115   3.597 -0.1372 -0.4631 -0.0143
   68MOL   C48738141   1.031   7.013   3.621 -0.2398  0.3325  0.5235
   68MOL   C48838142   0.988   6.977   3.752  0.1720 -0.4006 -0.7281
   68MOL   N48938143   0.888   6.875   3.774  0.5196 -0.7660 -0.1827
   68MOL   C49038144   1.071   7.027   3.857 -0.5494  0.5256 -0.3784
   68MOL   C49138145   1.176   7.118   3.836  0.2838 -0.0740 -0.1411
   68MOL   O49238146   1.230   7.369   3.491  0.5251 -0.0916 -0.4290
   68MOL   C49338147   1.504   7.464   3.716 -0.1235 -1.0621  1.0660
   68MOL   C49438148   1.622   7.545   3.721  0.2542  0.1287 -0.5432
   68MOL   O49538149   1.891   7.658   3.497  0.2341  0.1915 -0.4703
   68MOL   H49638150   1.676   7.563   3.384 -1.1719 -1.1431 -0.4796
   68MOL   H49738151   1.461   7.437   3.383 -1.0544  0.6317 -0.2146
   68MOL   H49838152   1.349   7.283   3.770 -0.9640  0.7288  0.2588
   68MOL   H49938153   1.169   7.130   3.500 -0.5720  0.5739 -0.0558
   68MOL   H50038154   0.981   6.983   3.530  1.5069 -2.0602  0.2807
   68MOL   H50138155   0.903   6.815   3.854 -1.3425 -0.2651  0.5631
   68MOL   H50238156   1.042   6.981   3.950 -0.8575  0.5993 -0.4369
   68MOL   H50338157   1.234   7.147   3.923 -0.2619  1.8716 -0.4178
   68MOL   H50438158   1.472   7.434   3.815  0.1605  3.2390  2.5873
   68MOL   H50538159   1.666   7.570   3.817  1.3992  0.4230 -1.1285
   68MOL   C50638160   0.778   6.842   3.696  0.0475 -0.6081  0.2447
   68MOL   C50738161   0.701   6.731   3.756 -0.3549 -0.0120 -0.1095
   68MOL   C50838162   0.561   6.735   3.745  0.1075 -0.3263  0.0717
   68MOL   C50938163   0.478   6.633   3.800  0.3931  0.2404 -0.8678
   68MOL   C51038164   0.535   6.517   3.860 -0.4118  0.5913  0.1125
   68MOL   C51138165   0.448   6.415   3.922  0.0964 -0.5186  0.0955
   68MOL   N51238166   0.493   6.291   3.934 -0.2919  0.5335 -0.2769
   68MOL   C51338167   0.460   6.212   4.053  0.5598  0.0712 -0.0891
   68MOL   C51438168   0.558   6.130   4.108  0.0984 -0.4225  0.1962
   68MOL   C51538169   0.533   6.047   4.219 -0.2231  0.4715 -0.1650
   68MOL   C51638170   0.415   6.059   4.289  0.2624  0.2365 -0.2912
   68MOL   N51738171   0.396   6.005   4.418 -0.1948 -0.0782  0.9611
   68MOL   C51838172   0.306   6.127   4.228 -0.5390 -0.0771 -0.1121
   68MOL   C51938173   0.329   6.205   4.111  0.3185 -0.0314  0.0374
   68MOL   O52038174   0.333   6.454   3.954 -0.2146  0.1873 -0.3820
   68MOL   C52138175   0.677   6.518   3.877  0.5044 -0.1956  0.5791
   68MOL   C52238176   0.763   6.616   3.824 -0.3143 -0.4943  0.6836
   68MOL   O52338177   0.742   6.902   3.591 -0.0159 -0.7134 -0.1260
   68MOL   H52438178   0.512   6.810   3.685 -0.2243 -0.2883  0.3947
   68MOL   H52538179   0.370   6.632   3.790  0.4621 -1.2820 -1.4633
   68MOL   H52638180   0.581   6.269   3.890  1.1665  1.6337  1.9829
   68MOL   H52738181   0.660   6.141   4.074 -0.7027  1.2030 -1.7699
   68MOL   H52838182   0.609   5.978   4.252 -1.5488 -2.2765 -2.5339
   68MOL   H52938183   0.480   5.958   4.451  0.4821  0.3254 -0.1510
   68MOL   H53038184   0.205   6.119   4.265 -0.1210  1.1950  1.4043
   68MOL   H53138185   0.245   6.250   4.060  0.1054 -1.7714 -1.1910
   68MOL   H53238186   0.717   6.443   3.942 -1.6753  0.4288  2.7033
   68MOL   H53338187   0.870   6.605   3.834 -0.4232 -2.3403  0.1291
   68MOL   C53438188   0.299   6.027   4.509  0.4844  0.2857  0.0844
   68MOL   C53538189   0.309   5.945   4.635  1.2502 -0.5863 -0.4549
   68MOL   C53638190   0.322   5.803   4.631  0.8869 -0.6223 -0.0135
   68MOL   C53738191   0.320   5.729   4.752  0.1835  0.2836  0.2794
   68MOL   C53838192   0.304   5.794   4.875  0.8588 -0.5075 -0.4820
   68MOL   C53938193   0.281   5.714   5.002 -0.3055  0.0891 -0.2331
   68MOL   N54038194   0.360   5.600   5.008  0.2582  0.2876 -0.7487
   68MOL   C54138195   0.353   5.489   5.097 -0.7289  0.6965 -0.1136
   68MOL   C54238196   0.252   5.470   5.193 -0.3050  0.2275 -0.1273
   68MOL   C54338197   0.258   5.356   5.277  0.2272 -0.2597 -0.6607
   68MOL   C54438198   0.365   5.266   5.276 -0.1992 -0.2665 -0.1749
   68MOL   N54538199   0.369   5.151   5.349 -0.1687  0.3256 -0.2584
   68MOL   C54638200   0.457   5.276   5.175  0.0458  0.2130 -0.1707
   68MOL   C54738201   0.460   5.392   5.096  0.0278 -0.7302  0.3347
   68MOL   O54838202   0.214   5.765   5.091 -0.6601 -0.1323  0.0892
   68MOL   C54938203   0.300   5.931   4.878  0.0198 -0.1451  0.9637
   68MOL   C55038204   0.297   6.009   4.756 -0.1539  0.2361  0.1369
   68MOL   O55138205   0.205   6.102   4.495  0.1988 -0.3410 -0.4417
   68MOL   H55238206   0.329   5.746   4.539  0.7534 -0.5415 -0.0730
   68MOL   H55338207   0.318   5.621   4.740 -1.3748  0.3760 -0.4980
   68MOL   H55438208   0.423   5.580   4.932  0.1265 -0.4563 -0.6728
   68MOL   H55538209   0.164   5.530   5.209 -1.0818 -1.5805  2.9223
   68MOL   H55638210   0.175   5.343   5.345 -0.2306  1.7889 -0.8077
   68MOL   H55738211   0.453   5.095   5.346 -1.2008 -1.2854 -0.1091
   68MOL   H55838212   0.533   5.202   5.156 -0.3278 -0.5937  1.3917
   68MOL   H55938213   0.545   5.423   5.037 -0.3925  1.9003  1.0318
   68MOL   H56038214   0.298   5.982   4.973 -1.1625  0.1719  0.7760
   68MOL   H56138215   0.296   6.116   4.762 -0.5420  0.2709 -0.5871
   68MOL   H56238216   0.326   5.156   5.440 -2.0650  1.9015 -1.1870
   69MOL     C138217   2.088   5.584   0.215 -0.4724 -0.4810 -0.0492
   69MOL     C238218   2.099   5.706   0.300  0.0955 -0.6976 -1.0368
   69MOL     C338219   2.226   5.739   0.350 -0.5175  0.0656  0.1678
   69MOL     C438220   2.248   5.855   0.426  0.0869  0.1406 -0.3393
   69MOL     C538221   2.135   5.937   0.453  0.0568 -0.7305 -0.2309
   69MOL     C638222   2.157   6.057   0.535  0.1639 -0.5133  0.0416
   69MOL     N738223   2.112   6.164   0.467  0.1224  0.4437  0.0066
   69MOL     C838224   2.078   6.292   0.516 -0.3082 -0.2843 -0.5592
   69MOL     C938225   2.003   6.308   0.638 -0.3580  0.2010  0.4640
   69MOL    C1038226   1.974   6.433   0.689 -0.1114  0.3232  0.2735
   69MOL    C1138227   2.020   6.548   0.623 -0.2165 -0.3332  0.5955
   69MOL    N1238228   2.016   6.672   0.684 -0.4624  0.0873  0.3512
   69MOL    C1338229   2.096   6.531   0.504 -0.1849  0.0940 -0.2289
   69MOL    C1438230   2.118   6.405   0.448  0.3416  0.2883  0.3555
   69MOL    O1538231   2.215   6.060   0.642 -0.2980 -0.3691  0.2021
   69MOL    C1638232   2.011   5.908   0.397 -0.0659 -0.3895 -0.0172
   69MOL    C1738233   1.989   5.790   0.327  0.7591 -0.0763 -0.4558
   69MOL    O1838234   1.982   5.546   0.168 -0.1767 -0.1421  0.0642
   69MOL    H1938235   2.309   5.671   0.338 -1.1246 -0.6207 -0.2113
   69MOL    H2038236   2.347   5.878   0.465 -0.3218 -2.0661  2.1450
   69MOL    H2138237   2.084   6.145   0.372  2.4069  0.4675 -0.7105
   69MOL    H2238238   1.978   6.217   0.690  1.7238 -0.4431  0.3863
   69MOL    H2338239   1.932   6.439   0.789  1.7124  0.4266  1.0507
   69MOL    H2438240   2.100   6.726   0.676 -0.8258  0.8992  1.9049
   69MOL    H2538241   2.147   6.614   0.458 -2.3275  1.4143 -0.2812
   69MOL    H2638242   2.159   6.398   0.348  1.9564  0.1569  1.0072
   69MOL    H2738243   1.928   5.977   0.404  2.2685  2.5125  0.0296
   69MOL    H2838244   1.889   5.766   0.293  0.8017 -1.0410  0.1151
   69MOL    H2938245   2.178   5.537   0.175 -2.0103 -2.6930 -1.0191
   69MOL    C3038246   1.912   6.726   0.749  0.1924 -0.1272  0.6389
   69MOL    C3138247   1.937   6.864   0.803 -0.1198  0.1601 -0.6546
   69MOL    C3238248   2.066   6.911   0.825  0.1500  0.0867 -1.0981
   69MOL    C3338249   2.090   7.045   0.864  0.0096 -0.4925  0.2468
   69MOL    C3438250   1.978   7.132   0.888  0.9471  0.4947  0.1258
   69MOL    C3538251   1.995   7.275   0.925 -0.1946  0.1222  0.3913
   69MOL    N3638252   2.102   7.301   1.000  0.1117  0.2561 -0.6594
   69MOL    C3738253   2.155   7.426   1.044 -0.0437 -0.2377  0.1570
   69MOL    C3838254   2.077   7.537   1.069 -0.2757  0.1193  1.3584
   69MOL    C3938255   2.144   7.662   1.089 -1.2441 -0.7038  0.1736
   69MOL    C4038256   2.283   7.668   1.113  0.5662 -0.7034 -0.0005
   69MOL    N4138257   2.338   7.786   1.155  0.1571 -0.1266  0.3083
   69MOL    C4238258   2.363   7.546   1.104  0.7630 -0.3050  0.1087
   69MOL    C4338259   2.298   7.427   1.065 -0.2813 -0.2867  0.1570
   69MOL    O4438260   1.909   7.358   0.887  0.0116  0.6905  0.0519
   69MOL    C4538261   1.848   7.079   0.876 -0.0932 -0.0944 -0.1545
   69MOL    C4638262   1.830   6.947   0.840 -0.2575 -0.0527 -0.5102
   69MOL    O4738263   1.802   6.676   0.765  0.3470  0.2137  0.3406
   69MOL    H4838264   2.145   6.837   0.827  1.0188  1.0351  0.0880
   69MOL    H4938265   2.185   7.083   0.898 -1.1184  0.6446  2.1935
   69MOL    H5038266   2.157   7.217   1.011  1.7177  1.3917  0.1751
   69MOL    H5138267   1.970   7.541   1.058 -0.2665  1.5168  1.6147
   69MOL    H5238268   2.092   7.756   1.098  1.2244  0.7659 -0.3872
   69MOL    H5338269   2.266   7.855   1.172 -0.4450 -0.0710 -2.3573
   69MOL    H5438270   2.469   7.546   1.122  0.8866  0.3696 -0.5843
   69MOL    H5538271   2.369   7.348   1.052  2.3042  2.1864 -1.2237
   69MOL    H5638272   1.760   7.140   0.890  1.2277  1.8522 -0.1839
   69MOL    H5738273   1.737   6.892   0.840  0.9337 -2.1013 -0.1134
   69MOL    C5838274   2.460   7.823   1.191  0.2528 -0.0707  0.0457
   69MOL    C5938275   2.457   7.948   1.281  0.3232 -0.4762  0.5820
   69MOL    C6038276   2.366   7.968   1.386 -0.3585 -0.3213  0.0854
   69MOL    C6138277   2.369   8.084   1.468  0.3342 -0.0677 -0.3748
   69MOL    C6238278   2.457   0.044   1.433 -0.2358  0.1595  0.1586
   69MOL    C6338279   2.459   0.173   1.508 -0.2587  0.1669 -0.2577
   69MOL    N6438280   2.515   0.178   1.629 -0.6166  0.2218 -0.7450
   69MOL    C6538281   2.480   0.265   1.729 -1.2868  0.6148 -0.3061
   69MOL    C6638282   2.347   0.318   1.746  0.3870  0.5680 -0.0948
   69MOL    C6738283   2.304   0.400   1.854  0.0801  0.4422 -0.6812
   69MOL    C6838284   2.400   0.431   1.948 -0.0233  0.6060 -0.0996
   69MOL    N6938285   2.371   0.520   2.057 -0.4591 -0.2775  0.7750
   69MOL    C7038286   2.537   0.386   1.932  0.1706  0.3190  0.1067
   69MOL    C7138287   2.576   0.303   1.823  0.0210  0.0218 -0.9892
   69MOL    O7238288   2.407   0.273   1.458  0.1020  0.3368  0.3368
   69MOL    C7338289   2.561   0.023   1.336 -0.0161 -0.3194 -0.2358
   69MOL    C7438290   2.565   8.044   1.268  0.0099  0.1914 -0.7617
   69MOL    O7538291   2.563   7.767   1.162 -0.1534  0.0423  0.2273
   69MOL    H7638292   2.305   7.882   1.410 -0.2841  0.0108  1.5217
   69MOL    H7738293   2.303   8.099   1.552  2.3762  0.3125  1.1993
   69MOL    H7838294   2.574   0.103   1.661 -0.5139  0.7861  0.3858
   69MOL    H7938295   2.267   0.293   1.678  1.3168  3.9338 -2.5200
   69MOL    H8038296   2.205   0.443   1.864  0.8535  2.1956 -0.4436
   69MOL    H8138297   2.421   0.608   2.061  1.5723 -1.3762  0.2075
   69MOL    H8238298   2.614   0.425   1.997  0.7953  2.6428 -1.9494
   69MOL    H8338299   2.679   0.275   1.805  0.3474  0.7193 -0.2402
   69MOL    H8438300   2.639   0.096   1.323 -0.0440  0.3671  2.9705
   69MOL    H8538301   2.645   8.031   1.197  1.4388  1.1305  0.6353
   69MOL    C8638302   2.263   0.511   2.137 -0.1842  0.2128  0.3818
   69MOL    C8738303   2.229   0.626   2.231 -0.4541 -0.0864 -0.0759
   69MOL    C8838304   2.095   0.642   2.272 -0.2936 -0.1300 -0.1193
   69MOL    C8938305   2.069   0.741   2.373 -0.3022 -0.3941  0.4714
   69MOL    C9038306   2.176   0.809   2.438  0.7435  0.4711 -0.2985
   69MOL    C9138307   2.144   0.885   2.570  0.2765 -0.6335  0.4195
   69MOL    N9238308   2.027   0.861   2.623  0.4444 -0.4039 -0.9558
   69MOL    C9338309   1.978   0.899   2.750  0.1285  0.0406  0.0467
   69MOL    C9438310   2.053   0.962   2.856 -0.4943  0.2636 -0.7312
   69MOL    C9538311   1.986   0.993   2.977 -0.1093 -0.7784  0.2138
   69MOL    C9638312   1.847   0.969   2.996 -0.3117 -0.3137 -0.1686
   69MOL    N9738313   1.785   0.999   3.118 -0.3239 -0.9988 -0.0742
   69MOL    C9838314   1.782   0.902   2.892 -0.0322  0.3720 -0.0439
   69MOL    C9938315   1.848   0.871   2.773 -0.0429 -0.0448  0.7567
   69MOL   O10038316   2.228   0.963   2.620 -0.4994  0.0279  0.1484
   69MOL   C10138317   2.306   0.789   2.394 -0.3407  0.7173  0.1329
   69MOL   C10238318   2.334   0.700   2.290  0.2923  0.6075  0.8719
   69MOL   O10338319   2.193   0.414   2.145 -0.5373  0.1345  0.2261
   69MOL   H10438320   2.016   0.587   2.223 -0.6853 -0.8041  1.2394
   69MOL   H10538321   1.963   0.750   2.394 -1.0913  0.3591 -3.4189
   69MOL   H10638322   1.959   0.815   2.564 -0.0348 -1.2404  0.2232
   69MOL   H10738323   2.158   0.988   2.851 -1.1460  3.2057  0.2242
   69MOL   H10838324   2.028   1.050   3.059  1.0115 -0.1615 -0.7827
   69MOL   H10938325   1.814   1.088   3.155 -1.8222  0.1084 -1.4476
   69MOL   H11038326   1.676   0.883   2.898 -0.1780  0.6530 -1.4704
   69MOL   H11138327   1.789   0.823   2.696 -0.0354 -1.1271  1.4196
   69MOL   H11238328   2.384   0.840   2.448 -1.0027 -0.0028  1.7996
   69MOL   H11338329   2.437   0.684   2.262 -0.0544 -2.3330  1.0623
   69MOL   C11438330   1.673   0.947   3.173  0.5749 -0.0478 -0.3941
   69MOL   C11538331   1.631   0.812   3.130 -0.5199  0.3405  0.2969
   69MOL   C11638332   1.497   0.790   3.100 -0.0861 -0.4358 -0.5623
   69MOL   C11738333   1.451   0.662   3.056  0.7839  0.1868  0.2457
   69MOL   C11838334   1.540   0.547   3.071  0.0920 -0.0662  0.0309
   69MOL   C11938335   1.497   0.406   3.038 -0.6501  0.5937  0.1937
   69MOL   N12038336   1.365   0.384   3.034 -1.0701 -0.2319  0.1065
   69MOL   C12138337   1.300   0.272   2.982 -0.2647 -0.4425 -0.2251
   69MOL   C12238338   1.364   0.142   2.962 -1.1594  1.0639  0.2790
   69MOL   C12338339   1.295   0.037   2.893 -0.4765 -0.8806  0.3263
   69MOL   C12438340   1.156   0.047   2.877  1.1261  0.0617 -0.3513
   69MOL   N12538341   1.092   8.076   2.829  1.2612  0.4378 -0.3071
   69MOL   C12638342   1.087   0.169   2.899 -0.1103  0.2061  0.4787
   69MOL   C12738343   1.160   0.278   2.950 -0.1088 -0.0739 -0.3968
   69MOL   O12838344   1.586   0.320   3.028 -0.0347  0.4689  0.2803
   69MOL   C12938345   1.677   0.569   3.108 -0.3290 -0.0763  0.2233
   69MOL   C13038346   1.717   0.698   3.141 -0.3114 -0.3762  0.3813
   69MOL   O13138347   1.601   1.017   3.246 -0.1550 -1.0587  0.0569
   69MOL   H13238348   1.435   0.878   3.094 -0.5951 -0.6643  1.2147
   69MOL   H13338349   1.344   0.655   3.042  0.4393  1.8690  1.8071
   69MOL   H13438350   1.300   0.459   3.053 -0.0413  0.7903 -0.3696
   69MOL   H13538351   1.467   0.135   2.994 -1.7332  1.0582  2.2006
   69MOL   H13638352   1.355   8.102   2.854 -1.4992 -0.9190 -1.2220
   69MOL   H13738353   1.129   7.988   2.862 -0.6187 -0.3479 -0.2354
   69MOL   H13838354   0.981   0.182   2.883  0.5267  2.9147 -2.1528
   69MOL   H13938355   1.102   0.367   2.970  0.2644  0.4692 -1.6955
   69MOL   H14038356   1.743   0.487   3.132  0.2377 -0.1127 -1.3513
   69MOL   H14138357   1.815   0.712   3.182 -0.5227  0.8405  0.4845
   69MOL   C14238358   1.007   8.060   2.730  0.1135  1.1760 -0.5311
   69MOL   C14338359   0.967   7.919   2.699 -0.2482 -0.9455 -0.7865
   69MOL   C14438360   0.927   7.838   2.807 -0.2518  0.1573  0.3066
   69MOL   C14538361   0.886   7.709   2.785 -0.3284 -0.1181  0.5296
   69MOL   C14638362   0.876   7.653   2.651 -0.2554  0.4712 -0.0903
   69MOL   C14738363   0.833   7.508   2.618 -0.7124  0.3018 -0.5935
   69MOL   N14838364   0.805   7.435   2.728 -0.0364 -0.0315 -0.3180
   69MOL   C14938365   0.775   7.298   2.726  1.0962 -0.2756 -0.0018
   69MOL   C15038366   0.670   7.257   2.812 -0.1403  0.3176  0.0492
   69MOL   C15138367   0.642   7.126   2.840 -0.2862  0.1467 -0.3619
   69MOL   C15238368   0.716   7.019   2.783  0.1792 -0.4502  0.5766
   69MOL   N15338369   0.710   6.886   2.818 -0.3482  0.6328 -1.0758
   69MOL   C15438370   0.824   7.060   2.698 -0.3801 -0.7476  0.1922
   69MOL   C15538371   0.855   7.195   2.672  0.7224 -0.1440  0.5251
   69MOL   O15638372   0.829   7.465   2.504 -0.2050  0.0929 -0.2506
   69MOL   C15738373   0.934   7.733   2.549  0.8604  0.1171  0.5588
   69MOL   C15838374   0.973   7.869   2.569 -0.0515 -0.0562 -0.1720
   69MOL   O15938375   0.948   0.005   2.665 -0.2178 -0.2423 -0.2989
   69MOL   H16038376   0.924   7.866   2.911 -1.4131  0.3710  0.2282
   69MOL   H16138377   0.859   7.651   2.872 -3.4191 -2.7819 -2.0768
   69MOL   H16238378   0.799   7.481   2.818 -2.8962 -3.2510  1.2272
   69MOL   H16338379   0.610   7.334   2.858 -0.5225  0.7135 -1.0861
   69MOL   H16438380   0.554   7.106   2.900  0.7192 -2.0818  0.4172
   69MOL   H16538381   0.762   6.827   2.755 -0.4165  1.2862 -1.7456
   69MOL   H16638382   0.899   6.994   2.658  1.2723  0.9101  0.4336
   69MOL   H16738383   0.938   7.230   2.612  0.5796  0.8214  0.8833
   69MOL   H16838384   0.933   7.693   2.449  1.3384  0.3519  0.4610
   69MOL   H16938385   1.011   7.921   2.483 -0.2684 -2.2327 -1.6055
   69MOL   C17038386   0.647   6.825   2.919 -0.6097 -0.1385 -0.6110
   69MOL   C17138387   0.661   6.678   2.944 -0.3317  0.2703 -0.8301
   69MOL   C17238388   0.762   6.602   2.876  0.0590 -0.6946 -0.4527
   69MOL   C17338389   0.773   6.465   2.906  0.0791  0.1394  0.4523
   69MOL   C17438390   0.689   6.400   2.995  0.2505  0.3453  0.9496
   69MOL   C17538391   0.688   6.255   3.014 -0.8348 -0.7199 -0.2813
   69MOL   N17638392   0.797   6.222   3.088  0.2550  0.1304  0.1118
   69MOL   C17738393   0.805   6.108   3.175  0.5103  0.3383 -0.3901
   69MOL   C17838394   0.697   6.082   3.262  0.4880 -0.4087 -0.0249
   69MOL   C17938395   0.711   5.984   3.365 -0.9063  1.0026  0.0214
   69MOL   C18038396   0.829   5.908   3.368 -0.0394  0.4384 -0.7297
   69MOL   N18138397   0.832   5.805   3.466 -0.4254 -0.3516 -0.7308
   69MOL   C18238398   0.935   5.933   3.273 -0.5043  0.0834 -0.2279
   69MOL   C18338399   0.928   6.038   3.182  0.5794 -0.5261 -0.3914
   69MOL   O18438400   0.590   6.185   2.983 -0.3707 -0.2262 -0.6000
   69MOL   C18538401   0.592   6.472   3.067 -0.2756 -0.3428 -0.1436
   69MOL   C18638402   0.582   6.613   3.040 -0.2703 -0.6414 -0.4950
   69MOL   O18738403   0.572   6.885   2.989 -0.5089  0.1882 -0.2092
   69MOL   H18838404   0.830   6.645   2.805 -0.5801  0.3696 -0.4272
   69MOL   H18938405   0.845   6.400   2.857 -0.5236 -0.9596  1.0028
   69MOL   H19038406   0.877   6.285   3.086 -0.0305  0.4641 -1.1500
   69MOL   H19138407   0.604   6.136   3.267  0.0718 -1.3192  3.1611
   69MOL   H19238408   0.631   5.960   3.435  1.0320 -0.0851  1.9261
   69MOL   H19338409   0.745   5.778   3.510 -0.2316 -1.1131 -0.8101
   69MOL   H19438410   1.021   5.868   3.265 -1.3846 -0.9417 -1.7280
   69MOL   H19538411   1.012   6.054   3.117  0.5936 -2.0878 -0.7641
   69MOL   H19638412   0.524   6.427   3.138  2.6904 -1.8946  1.7595
   69MOL   H19738413   0.506   6.671   3.091  0.8649  1.9505 -1.6126
   69MOL   C19838414   0.942   5.760   3.529 -0.5033 -0.1400 -0.1641
   69MOL   C19938415   0.919   5.655   3.637  0.0358  0.2735  0.7592
   69MOL   C20038416   0.789   5.611   3.682  0.8883 -0.0037  0.3039
   69MOL   C20138417   0.770   5.518   3.785  0.3340  0.5434  0.4339
   69MOL   C20238418   0.883   5.459   3.845  0.7452  0.4898  0.7046
   69MOL   C20338419   0.859   5.337   3.935  0.0004 -0.2187 -0.1659
   69MOL   N20438420   0.944   5.317   4.038 -0.1031  0.2771  0.7410
   69MOL   C20538421   0.948   5.211   4.134  0.1105  0.0225 -0.0298
   69MOL   C20638422   0.875   5.087   4.131  0.2493  0.8233  1.2353
   69MOL   C20738423   0.900   4.992   4.227 -0.7015  1.0389 -0.0745
   69MOL   C20838424   0.981   5.022   4.342 -0.4439 -0.0991 -0.4915
   69MOL   N20938425   1.002   4.935   4.449  0.6982 -0.0022  0.4017
   69MOL   C21038426   1.043   5.147   4.351 -0.3047 -0.0341 -0.2578
   69MOL   C21138427   1.037   5.238   4.244  0.1268 -0.9012 -0.0543
   69MOL   O21238428   0.758   5.273   3.914 -0.4419  0.0681 -0.0639
   69MOL   C21338429   1.016   5.493   3.803  0.6461  0.7181  0.1370
   69MOL   C21438430   1.028   5.596   3.705 -0.4514  0.7394 -0.2526
   69MOL   O21538431   1.055   5.808   3.508 -0.3140 -0.4460 -0.5071
   69MOL   H21638432   0.697   5.647   3.638  1.4347  0.8541 -0.1560
   69MOL   H21738433   0.671   5.487   3.814  0.2128  1.4476  0.9909
   69MOL   H21838434   1.025   5.377   4.043  2.0022 -2.4551  0.1968
   69MOL   H21938435   0.809   5.063   4.049  0.7409 -0.1670  1.1221
   69MOL   H22038436   0.848   4.897   4.229  2.4150 -0.7182 -0.5176
   69MOL   H22138437   1.002   4.977   4.541 -2.6541 -0.7922  0.8228
   69MOL   H22238438   1.103   5.172   4.437  0.8216 -0.8120 -0.8047
   69MOL   H22338439   1.097   5.327   4.259  0.6624 -1.4856  1.3706
   69MOL   H22438440   1.105   5.437   3.824  0.0662 -1.0534 -1.9620
   69MOL   H22538441   1.130   5.627   3.688 -0.2007 -0.1651 -0.3809
   69MOL   C22638442   1.042   4.811   4.449  0.2308 -0.2163  0.6478
   69MOL   C22738443   1.063   4.744   4.583  0.5448 -0.2159  0.8181
   69MOL   C22838444   1.027   4.807   4.704 -0.4991 -0.8209 -0.0304
   69MOL   C22938445   1.034   4.739   4.830 -0.8388 -0.8505  0.1986
   69MOL   C23038446   1.089   4.614   4.833 -0.7289  0.4614  0.1101
   69MOL   C23138447   1.111   4.551   4.962  0.1667 -0.2595  1.1929
   69MOL   N23238448   1.028   4.449   4.982 -0.2713  0.0228 -0.0263
   69MOL   C23338449   1.022   4.363   5.098  0.3269  0.3029  0.0723
   69MOL   C23438450   0.972   4.232   5.084  0.1633  0.6480 -0.3474
   69MOL   C23538451   0.958   4.149   5.198  0.2592  0.1264 -0.2767
   69MOL   C23638452   0.973   4.198   5.325 -0.0350  0.1329  0.4452
   69MOL   N23738453   0.942   4.126   5.446 -0.3745  0.8938 -0.1425
   69MOL   C23838454   1.008   4.330   5.337 -0.4103 -0.6972 -0.4052
   69MOL   C23938455   1.033   4.415   5.229 -0.0073 -0.0737  0.6301
   69MOL   O24038456   1.194   4.586   5.049  0.0790  1.0594 -0.3248
   69MOL   C24138457   1.122   4.548   4.717  0.6938  0.2174 -0.0943
   69MOL   C24238458   1.111   4.612   4.593 -0.1632  0.1616 -0.1663
   69MOL   O24338459   1.053   4.749   4.345  0.3535  0.3835  0.1260
   69MOL   H24438460   0.980   4.904   4.697 -1.0506 -0.9841  1.3237
   69MOL   H24538461   1.015   4.794   4.921  3.2490  1.7655 -0.3873
   69MOL   H24638462   0.979   4.417   4.900 -0.4605 -0.4365  0.2635
   69MOL   H24738463   0.964   4.184   4.987 -2.1907 -0.0040  0.1357
   69MOL   H24838464   0.938   4.044   5.183  0.8426  0.1210 -1.0806
   69MOL   H24938465   0.847   4.102   5.469  0.5430 -1.2800  1.6307
   69MOL   H25038466   1.010   4.360   5.440  3.5448  1.2218 -0.9539
   69MOL   H25138467   1.049   4.520   5.249  0.8980 -0.1513  0.3769
   69MOL   H25238468   1.166   4.450   4.726 -3.0783 -1.5090  0.6265
   69MOL   H25338469   1.142   4.548   4.512 -0.9008 -1.6902  0.9796
   69MOL   C25438470   1.040   4.061   5.515  0.2046 -0.1353 -0.8546
   69MOL   C25538471   1.182   4.098   5.478 -1.0847  0.2714 -0.7278
   69MOL   C25638472   1.246   4.034   5.367 -0.4611  0.2117 -0.8651
   69MOL   C25738473   1.363   4.085   5.311 -0.4509  0.6313  0.1159
   69MOL   C25838474   1.429   4.192   5.373 -0.7074 -0.5557  0.1390
   69MOL   C25938475   1.561   4.253   5.326  0.5734  0.4251  0.0686
   69MOL   N26038476   1.538   4.375   5.273  0.0320 -0.8394  0.6159
   69MOL   C26138477   1.614   4.462   5.199 -0.3951 -0.4358  0.6499
   69MOL   C26238478   1.537   4.544   5.121  0.1782 -1.2378  0.1460
   69MOL   C26338479   1.600   4.632   5.035  0.8100  0.7522  0.1178
   69MOL   C26438480   1.741   4.646   5.020 -0.2232  0.1573 -0.0177
   69MOL   N26538481   1.796   4.726   4.921 -0.3594 -0.1695 -0.2665
   69MOL   C26638482   1.821   4.563   5.109  0.0214 -0.7023 -0.5720
   69MOL   C26738483   1.758   4.467   5.196  0.1512 -0.2199 -0.2185
   69MOL   O26838484   1.663   4.187   5.330 -0.3715 -0.2805 -0.1323
   69MOL   C26938485   1.362   4.249   5.484 -0.2542 -0.1441  0.1111
   69MOL   C27038486   1.240   4.212   5.529 -0.4155 -0.1070 -0.7264
   69MOL   O27138487   1.019   3.982   5.602  0.4024 -0.4965 -0.8831
   69MOL   H27238488   1.199   3.938   5.348  0.8929 -0.3155 -1.5852
   69MOL   H27338489   1.405   4.042   5.221 -0.1154  1.7054 -0.2587
   69MOL   H27438490   1.439   4.392   5.272  0.2832  0.7617  1.1549
   69MOL   H27538491   1.429   4.544   5.121  0.1133  1.5789 -1.2877
   69MOL   H27638492   1.538   4.698   4.976 -1.3728 -0.2217  1.3006
   69MOL   H27738493   1.748   4.731   4.832  2.4863  1.0908 -1.8191
   69MOL   H27838494   1.928   4.559   5.098 -0.0483 -1.4675 -0.9788
   69MOL   H27938495   1.821   4.405   5.259 -2.1246 -1.8107  0.5356
   69MOL   H28038496   1.404   4.332   5.540 -0.9120 -0.2649  0.7915
   69MOL   H28138497   1.187   4.279   5.596  0.4573  0.8408 -0.9660
   69MOL   C28238498   1.883   4.827   4.928  0.8040  0.6454 -0.1364
   69MOL   C28338499   1.888   4.914   4.804  0.0450  0.7010 -0.6311
   69MOL   C28438500   1.877   4.866   4.675  0.6151  0.6817 -0.1539
   69MOL   C28538501   1.864   4.954   4.564  0.0981  0.3845 -0.1021
   69MOL   C28638502   1.855   5.094   4.592  0.5791  0.2678  0.2761
   69MOL   C28738503   1.815   5.188   4.482 -0.0647  0.5797  0.4197
   69MOL   N28838504   1.712   5.268   4.518 -0.0394  0.4547 -0.2122
   69MOL   C28938505   1.653   5.357   4.424  0.5999 -0.0258  0.8504
   69MOL   C29038506   1.615   5.319   4.291  0.0838 -0.5149 -0.0779
   69MOL   C29138507   1.527   5.397   4.221  0.1543  0.3160 -0.6726
   69MOL   C29238508   1.502   5.534   4.259  0.1660 -0.3075  0.1882
   69MOL   N29338509   1.432   5.628   4.176  0.4189  0.2528  0.2381
   69MOL   C29438510   1.549   5.574   4.385 -0.6597 -0.1954 -0.5230
   69MOL   C29538511   1.615   5.484   4.475  0.5730  0.1102 -0.1014
   69MOL   O29638512   1.868   5.185   4.373 -0.0235 -0.1396 -0.4035
   69MOL   C29738513   1.870   5.140   4.724  0.3499 -0.1446  0.0506
   69MOL   C29838514   1.891   5.053   4.833  0.0101 -0.3800 -0.0012
   69MOL   O29938515   1.941   4.858   5.029  0.2198  0.1949 -0.2478
   69MOL   H30038516   1.877   4.761   4.649  0.5267  0.5193  0.5094
   69MOL   H30138517   1.854   4.919   4.463  0.1461 -1.9004  0.6665
   69MOL   H30238518   1.681   5.287   4.612 -1.0491  0.3187 -0.5125
   69MOL   H30338519   1.641   5.221   4.255  3.5274  0.1894  0.3522
   69MOL   H30438520   1.484   5.353   4.132  0.3339  1.5142 -1.3578
   69MOL   H30538521   1.451   5.724   4.201  2.9350  0.0384 -0.7403
   69MOL   H30638522   1.532   5.676   4.415  0.5137  0.2033 -1.1868
   69MOL   H30738523   1.639   5.507   4.577  2.0423 -0.4210 -0.3158
   69MOL   H30838524   1.868   5.246   4.748  0.7426  0.0300 -0.6733
   69MOL   H30938525   1.906   5.093   4.932  0.6438 -0.2926 -0.1327
   69MOL   C31038526   1.359   5.608   4.064  0.2729  0.3889  0.2534
   69MOL   C31138527   1.327   5.736   3.990  0.0891  0.0431 -0.0036
   69MOL   C31238528   1.303   5.855   4.064  0.2250 -0.1103 -0.0346
   69MOL   C31338529   1.285   5.973   3.992  0.4941  0.4708 -0.2293
   69MOL   C31438530   1.298   5.977   3.847  0.1444 -0.2440 -0.7229
   69MOL   C31538531   1.298   6.107   3.765  0.1080  0.2546 -0.0816
   69MOL   N31638532   1.376   6.205   3.818 -0.1926 -0.1472 -0.3899
   69MOL   C31738533   1.460   6.209   3.937  0.2938  0.4044  0.3026
   69MOL   C31838534   1.552   6.106   3.974 -0.1226  0.4295  0.2837
   69MOL   C31938535   1.629   6.113   4.093 -0.8898 -0.6245 -0.3754
   69MOL   C32038536   1.619   6.225   4.181  0.6406 -0.3699  0.4894
   69MOL   N32138537   1.699   6.230   4.301  0.3317  0.0548 -0.0155
   69MOL   C32238538   1.522   6.330   4.144  0.6711 -0.0727 -0.1302
   69MOL   C32338539   1.454   6.322   4.022  0.1676  0.2333  0.3356
   69MOL   O32438540   1.252   6.118   3.652  0.1113  0.2100 -0.5226
   69MOL   C32538541   1.317   5.859   3.776  0.1262  0.2016  0.1289
   69MOL   C32638542   1.334   5.737   3.844  0.6971 -0.1999 -0.2779
   69MOL   O32738543   1.315   5.498   4.016  0.0021 -0.1493  0.5905
   69MOL   H32838544   1.308   5.864   4.172 -2.2275 -1.2111  0.2015
   69MOL   H32938545   1.264   6.062   4.050 -1.2417 -0.1658  0.1596
   69MOL   H33038546   1.370   6.295   3.772  1.6952  1.2793  2.0134
   69MOL   H33138547   1.561   6.021   3.909 -0.5486 -0.8087  1.8124
   69MOL   H33238548   1.690   6.028   4.120 -0.8920  0.1619  2.3268
   69MOL   H33338549   1.784   6.175   4.302 -0.3054 -0.9429 -0.1875
   69MOL   H33438550   1.507   6.419   4.204 -1.3825  1.4073 -2.7162
   69MOL   H33538551   1.400   6.412   3.997 -1.1770 -1.0730 -1.6086
   69MOL   H33638552   1.321   5.847   3.669  0.6180 -1.5825  0.3352
   69MOL   H33738553   1.349   5.645   3.790  2.6671 -0.2664  0.3150
   69MOL   C33838554   1.650   6.272   4.420  0.4216 -0.2177  0.1031
   69MOL   C33938555   1.736   6.254   4.539  0.5813  0.5983  0.0227
   69MOL   C34038556   1.733   6.347   4.642 -0.0338 -0.4379 -0.7314
   69MOL   C34138557   1.795   6.323   4.764 -0.4851  0.1335 -0.0327
   69MOL   C34238558   1.878   6.213   4.783  0.7686 -0.9876  0.1618
   69MOL   C34338559   1.954   6.199   4.912 -0.2694 -0.5513  0.3911
   69MOL   N34438560   2.043   6.096   4.918 -0.1088 -0.9385  0.1704
   69MOL   C34538561   2.109   6.048   5.027 -0.7722  0.1714 -0.8498
   69MOL   C34638562   2.057   6.051   5.159  0.2177  0.2400 -0.6866
   69MOL   C34738563   2.125   6.009   5.270  0.5051  1.0648  0.2496
   69MOL   C34838564   2.253   5.958   5.254 -0.4589  0.2811  0.4480
   69MOL   N34938565   2.326   5.917   5.363 -0.0637  0.3592  0.4235
   69MOL   C35038566   2.301   5.936   5.126 -0.3858 -0.3898  0.2635
   69MOL   C35138567   2.230   5.984   5.009  0.6369  0.1556  0.4390
   69MOL   O35238568   1.939   6.271   5.008  0.5021  0.1888 -0.4358
   69MOL   C35338569   1.887   6.122   4.677 -0.5122 -0.0420 -0.3487
   69MOL   C35438570   1.818   6.142   4.556  0.5449 -0.0386 -0.0154
   69MOL   O35538571   1.547   6.339   4.435 -0.0890 -0.1019  0.2748
   69MOL   H35638572   1.661   6.428   4.639  0.7510  0.3015  0.2731
   69MOL   H35738573   1.774   6.389   4.847 -1.6813  1.4876 -1.3897
   69MOL   H35838574   2.073   6.050   4.834 -2.7182  0.7275 -1.7513
   69MOL   H35938575   1.955   6.086   5.171 -0.0505 -0.1425 -1.7971
   69MOL   H36038576   2.079   6.016   5.368  5.1737  1.5404  2.5705
   69MOL   H36138577   2.277   5.899   5.450  0.5044 -0.8347  0.5047
   69MOL   H36238578   2.396   5.889   5.107 -1.8369 -2.6015 -2.0136
   69MOL   H36338579   2.279   5.977   4.913  1.9993 -1.6897  1.2293
   69MOL   H36438580   1.946   6.032   4.690 -0.0663  0.0317 -1.8215
   69MOL   H36538581   1.822   6.078   4.470 -0.9831  0.1364 -0.2380
   69MOL   C36638582   2.459   5.931   5.386 -0.3528  0.5291 -0.1080
   69MOL   C36738583   2.498   5.924   5.530 -0.4328  0.5176 -0.3652
   69MOL   C36838584   2.610   5.993   5.583  0.1047 -0.3362  0.4266
   69MOL   C36938585   2.635   6.009   5.724 -0.3870 -0.2554  0.6468
   69MOL   C37038586   2.550   5.937   5.811 -0.4565 -0.2583 -0.7596
   69MOL   C37138587   2.574   5.939   5.961  0.1919 -0.4934 -0.0212
   69MOL   N37238588   2.567   5.819   6.021 -0.2244  0.0057 -0.0597
   69MOL   C37338589   2.584   5.795   6.165 -0.3993 -0.2921 -0.1630
   69MOL   C37438590   2.706   5.821   6.225 -0.4789 -0.1518  0.1086
   69MOL   C37538591   2.721   5.813   6.367 -0.3340 -0.1026 -0.1100
   69MOL   C37638592   2.617   5.758   6.447 -0.4738  0.5566  0.5780
   69MOL   N37738593   2.633   5.753   6.587  0.0687  0.4138  0.6168
   69MOL   C37838594   2.497   5.724   6.382 -0.5895  0.6659  0.2521
   69MOL   C37938595   2.486   5.734   6.240  0.5448 -0.4718  0.0041
   69MOL   O38038596   2.616   6.041   6.013 -0.8931  0.0886 -0.6043
   69MOL   C38138597   2.439   5.868   5.760 -0.4992 -0.3889  0.0329
   69MOL   C38238598   2.421   5.854   5.623 -0.0772 -1.3029  0.4158
   69MOL   O38338599   2.547   5.949   5.300 -0.4718  0.5166 -0.3869
   69MOL   H38438600   2.670   6.037   5.505  0.8702  0.3086  1.3805
   69MOL   H38538601   2.721   6.063   5.760  0.4700 -2.1300  1.4702
   69MOL   H38638602   2.534   5.742   5.964  0.2583 -0.0332 -0.2845
   69MOL   H38738603   2.774   5.875   6.160  0.0459 -2.5253 -1.3823
   69MOL   H38838604   2.818   5.839   6.407  0.2660 -0.2245 -1.4650
   69MOL   H38938605   2.671   5.837   6.627  1.2251  0.8450 -1.3189
   69MOL   H39038606   2.407   5.700   6.437 -2.0866  0.3091 -2.2468
   69MOL   H39138607   2.393   5.714   6.190 -0.5106  1.4250  1.1336
   69MOL   H39238608   2.368   5.815   5.821 -1.0473 -0.6047 -0.7822
   69MOL   H39338609   2.335   5.799   5.587 -0.3991 -0.5457  0.0204
   69MOL   C39438610   2.594   5.667   6.680  0.5732 -0.1281  0.3823
   69MOL   C39538611   2.548   5.532   6.644 -0.1886  0.5336 -0.4790
   69MOL   C39638612   2.606   5.453   6.541 -0.0612  0.2843  1.1141
   69MOL   C39738613   2.558   5.325   6.510  0.8084 -0.6111 -0.0352
   69MOL   C39838614   2.456   5.270   6.592  0.5541  0.5631  0.8728
   69MOL   C39938615   2.402   5.139   6.550 -0.1424 -0.1017 -0.2838
   69MOL   N40038616   2.379   5.133   6.418 -0.1971 -0.4177 -0.0892
   69MOL   C40138617   2.322   5.029   6.351 -0.7503  0.2782  0.6760
   69MOL   C40238618   2.219   4.944   6.404  0.6938  0.1935  0.1782
   69MOL   C40338619   2.186   4.819   6.348  0.5059 -0.1280  0.5455
   69MOL   C40438620   2.256   4.774   6.223  0.4865  0.2682 -0.3694
   69MOL   N40538621   2.239   4.647   6.164 -0.1740 -0.2057 -0.5240
   69MOL   C40638622   2.353   4.867   6.168 -0.4284  0.0715 -0.1059
   69MOL   C40738623   2.384   4.992   6.229 -0.2886  0.4142  0.4355
   69MOL   O40838624   2.372   5.057   6.631  0.3348  0.2617  0.9616
   69MOL   C40938625   2.389   5.351   6.683 -0.1184 -0.4451  0.2736
   69MOL   C41038626   2.438   5.477   6.715 -0.2580  0.1348 -0.1306
   69MOL   O41138627   2.583   5.709   6.796 -0.1009 -0.3784 -0.2578
   69MOL   H41238628   2.684   5.498   6.482 -0.2661 -0.9839 -0.1491
   69MOL   H41338629   2.613   5.270   6.435  1.4504 -1.1915  0.8522
   69MOL   H41438630   2.404   5.219   6.371 -0.0830  1.2121  2.8007
   69MOL   H41538631   2.160   4.988   6.483  0.4979  2.4551 -1.1735
   69MOL   H41638632   2.107   4.762   6.396 -1.6003  1.7910 -0.5685
   69MOL   H41738633   2.310   4.615   6.101 -1.2985 -1.7085 -1.0643
   69MOL   H41838634   2.422   4.835   6.091  0.6242  2.3565 -0.1624
   69MOL   H41938635   2.464   5.049   6.183  0.7137 -1.5399 -0.3249
   69MOL   H42038636   2.313   5.300   6.740 -1.0273  0.2962 -0.2445
   69MOL   H42138637   2.389   5.527   6.797 -1.8834 -0.9773 -0.4054
   69MOL   C42238638   2.138   4.562   6.179  0.2659 -0.2000 -0.5033
   69MOL   C42338639   2.152   4.431   6.100  0.8396  0.4089  0.5103
   69MOL   C42438640   2.090   4.313   6.150 -0.0009  0.1821 -0.2573
   69MOL   C42538641   2.120   4.186   6.088  0.5106  0.1677  0.7378
   69MOL   C42638642   2.208   4.172   5.976 -0.0750 -0.1875  0.0844
   69MOL   C42738643   2.226   4.041   5.910  0.1115 -0.0341 -0.3227
   69MOL   N42838644   2.313   4.046   5.809  0.1736  0.0415 -0.2690
   69MOL   C42938645   2.375   3.940   5.740  0.8531 -0.3654  0.2716
   69MOL   C43038646   2.428   3.963   5.614  0.1400  0.0258 -1.5626
   69MOL   C43138647   2.509   3.872   5.542 -0.1979 -0.1375  0.2217
   69MOL   C43238648   2.543   3.749   5.604 -0.5328  0.3499  0.3306
   69MOL   N43338649   2.623   3.653   5.538  0.2576 -0.4489  0.4016
   69MOL   C43438650   2.483   3.717   5.726  0.0019  0.5682  0.1483
   69MOL   C43538651   2.399   3.812   5.794  0.2291 -0.1170  0.1945
   69MOL   O43638652   2.174   3.941   5.947 -0.6689 -0.3794 -0.5312
   69MOL   C43738653   2.257   4.291   5.917  0.7886 -0.2930 -0.1829
   69MOL   C43838654   2.235   4.415   5.983 -0.3360  0.3601 -0.7678
   69MOL   O43938655   2.029   4.586   6.235 -0.4415 -0.2687 -0.2727
   69MOL   H44038656   2.022   4.318   6.234  0.3717  0.1617  0.0443
   69MOL   H44138657   2.060   4.103   6.120 -1.8231  0.6569 -2.1773
   69MOL   H44238658   2.360   4.135   5.797 -1.5949  0.9029 -1.0196
   69MOL   H44338659   2.422   4.064   5.578 -1.1936  0.3577 -0.4190
   69MOL   H44438660   2.541   3.903   5.443 -4.2702  1.3784 -0.7329
   69MOL   H44538661   2.589   3.559   5.548  0.0208 -0.6492 -2.1174
   69MOL   H44638662   2.505   3.624   5.775 -2.7563 -0.1092  0.1749
   69MOL   H44738663   2.355   3.787   5.889 -1.1412  1.0071 -0.1382
   69MOL   H44838664   2.302   4.292   5.819  0.6041  0.4664 -0.2654
   69MOL   H44938665   2.269   4.509   5.942  1.6712 -0.0529 -0.1489
   69MOL   C45038666   2.735   3.664   5.459  0.1916  0.5154 -0.2163
   69MOL   C45138667   2.784   3.796   5.421 -0.7025  0.0417  0.5771
   69MOL   C45238668   2.782   3.836   5.286  0.5668  0.1947  0.4055
   69MOL   C45338669   2.824   3.967   5.255 -0.1692 -0.6009  0.7526
   69MOL   C45438670   2.867   4.054   5.356 -0.1644 -0.3525  0.6851
   69MOL   C45538671   2.908   4.195   5.317  0.0374  0.7009 -0.1801
   69MOL   N45638672   2.900   4.288   5.410  0.2135  0.4493 -0.1816
   69MOL   C45738673   2.935   4.423   5.408  0.4366  0.1559  0.5202
   69MOL   C45838674   3.005   4.480   5.515  0.2191 -0.7725 -0.6355
   69MOL   C45938675   3.049   4.613   5.504  0.0487  0.4203 -0.8911
   69MOL   C46038676   3.016   4.688   5.390  0.8821 -0.2098  0.1324
   69MOL   N46138677   3.075   4.817   5.393 -0.2802 -0.1753 -0.1630
   69MOL   C46238678   2.941   4.633   5.282  0.5993  0.1632  0.4633
   69MOL   C46338679   2.905   4.498   5.292 -0.2069  0.3428 -0.1722
   69MOL   O46438680   2.953   4.220   5.207 -0.7921 -0.6199 -0.7311
   69MOL   C46538681   2.869   4.012   5.490 -0.5322  0.4542 -0.4111
   69MOL   C46638682   2.820   3.885   5.522 -0.0537  0.0215  0.1388
   69MOL   O46738683   2.790   3.566   5.414 -0.8654 -0.3518  0.0219
   69MOL   H46838684   2.766   3.766   5.205  2.0952  1.6735 -1.1946
   69MOL   H46938685   2.831   4.000   5.152 -0.8914  2.5522  1.6700
   69MOL   H47038686   2.865   4.255   5.499  1.7655 -0.2015  0.2033
   69MOL   H47138687   3.029   4.418   5.600 -1.9088 -1.8955 -0.8252
   69MOL   H47238688   3.097   4.668   5.584 -0.0302 -1.6675  0.6237
   69MOL   H47338689   3.138   4.824   5.472  0.1909 -0.5529 -0.5037
   69MOL   H47438690   2.918   4.687   5.191 -0.5924  0.3801  0.8817
   69MOL   H47538691   2.843   4.464   5.210 -1.1676 -0.4191  0.8555
   69MOL   H47638692   2.895   4.079   5.571 -2.5346  2.9649 -1.7761
   69MOL   H47738693   2.799   3.853   5.623 -3.2467 -0.7967 -0.7358
   69MOL   C47838694   3.070   4.918   5.309 -0.0056 -0.2117  0.0079
   69MOL   C47938695   3.155   5.034   5.343  0.2659 -0.3340  0.1556
   69MOL   C48038696   3.143   5.095   5.467  0.8725  0.3850 -1.2023
   69MOL   C48138697   3.247   5.172   5.521  0.6321  1.0604  0.0913
   69MOL   C48238698   3.364   5.201   5.440 -0.1846 -0.2745 -0.2050
   69MOL   C48338699   3.491   5.251   5.496  0.3380 -0.6892  0.0674
   69MOL   N48438700   3.509   5.226   5.622 -0.0348 -0.2549 -0.3741
   69MOL   C48538701   3.638   5.207   5.676  0.0409 -0.7753  0.0180
   69MOL   C48638702   3.738   5.128   5.619 -0.0205  0.1955  0.2690
   69MOL   C48738703   3.850   5.081   5.690  0.2075 -0.6743  0.6807
   69MOL   C48838704   3.863   5.117   5.825 -0.0668  0.3705  0.0427
   69MOL   N48938705   3.963   5.069   5.918 -0.0953  0.4663  0.2243
   69MOL   C49038706   3.771   5.211   5.878  0.6818  0.0548 -0.3758
   69MOL   C49138707   3.662   5.257   5.806 -0.1141  0.3031 -0.6749
   69MOL   O49238708   3.570   5.310   5.425 -0.4595  0.1831  0.0861
   69MOL   C49338709   3.357   5.166   5.306  0.2424  0.1339  0.6199
   69MOL   C49438710   3.255   5.082   5.254 -0.2550  0.2302 -0.6338
   69MOL   O49538711   3.007   4.908   5.209 -0.0203 -0.0161  0.1261
   69MOL   H49638712   3.079   5.046   5.539  1.2713  0.2502 -0.9369
   69MOL   H49738713   3.245   5.197   5.626  3.7154 -0.1914  0.5075
   69MOL   H49838714   3.435   5.198   5.684  0.5844  0.7576  0.8466
   69MOL   H49938715   3.726   5.083   5.522  1.6465 -1.7640  0.9478
   69MOL   H50038716   3.919   5.012   5.643  1.6096 -0.1968  2.0041
   69MOL   H50138717   3.946   5.091   6.015 -1.1666  0.9163 -0.0584
   69MOL   H50238718   3.786   5.241   5.980  2.1502 -2.5644  0.2319
   69MOL   H50338719   3.595   5.312   5.870  0.9057 -0.8776  1.4490
   69MOL   H50438720   3.442   5.185   5.242 -0.8198 -1.6683 -1.3980
   69MOL   H50538721   3.268   5.049   5.152  1.6658  0.7378 -0.5835
   69MOL   C50638722   4.065   4.991   5.905 -0.4902  0.0676  0.0417
   69MOL   C50738723   4.117   4.956   5.768  0.1728  0.5152  0.1731
   69MOL   C50838724   4.170   5.060   5.691  0.6683 -0.9428 -0.3847
   69MOL   C50938725   4.221   5.032   5.564 -0.8450 -0.2440  0.0500
   69MOL   C51038726   4.221   4.904   5.517  0.4337  0.0502 -0.4367
   69MOL   C51138727   4.291   4.875   5.381 -0.1037 -0.0940  0.1043
   69MOL   N51238728   4.224   4.793   5.301  0.0210  0.1097  0.1089
   69MOL   C51338729   4.251   4.737   5.175  0.0964  0.4812 -0.0200
   69MOL   C51438730   4.381   4.699   5.132  0.1952  0.0511  0.4689
   69MOL   C51538731   4.401   4.644   5.001 -1.2274 -0.0980  0.1326
   69MOL   C51638732   4.289   4.624   4.918 -0.7978  0.3681  1.1565
   69MOL   N51738733   4.305   4.566   4.786  0.0360 -0.7348  0.4228
   69MOL   C51838734   4.163   4.656   4.969  0.3644 -0.3232  0.3521
   69MOL   C51938735   4.138   4.712   5.095  0.4019  0.8372 -0.7686
   69MOL   O52038736   4.401   4.915   5.355  0.0570  0.4439  0.2806
   69MOL   C52138737   4.169   4.794   5.589 -0.5749  0.0920 -0.0125
   69MOL   C52238738   4.110   4.826   5.714  0.2745 -0.7671 -0.6191
   69MOL   O52338739   4.111   4.941   6.005  0.0733  0.4713 -0.0997
   69MOL   H52438740   4.179   5.160   5.732 -1.3671 -0.7228 -0.4393
   69MOL   H52538741   4.257   5.115   5.506  0.6420  0.3998  1.8704
   69MOL   H52638742   4.129   4.803   5.335  0.6021  1.3322  1.4515
   69MOL   H52738743   4.459   4.714   5.205 -1.0774 -1.4364  2.1808
   69MOL   H52838744   4.500   4.611   4.976 -1.0018  0.8445 -0.2392
   69MOL   H52938745   4.402   4.544   4.767  0.9454  1.0862  2.6525
   69MOL   H53038746   4.071   4.646   4.912 -0.5755 -0.6925  1.9048
   69MOL   H53138747   4.040   4.724   5.137 -0.0358 -1.4654 -1.0727
   69MOL   H53238748   4.183   4.695   5.547 -1.4843 -1.1877  2.5309
   69MOL   H53338749   4.083   4.736   5.767 -0.0689 -0.3805 -0.1372
   69MOL   C53438750   4.213   4.518   4.702  0.4253  0.0295  0.3170
   69MOL   C53538751   4.255   4.504   4.565 -0.2082  0.4373  0.7671
   69MOL   C53638752   4.154   4.495   4.464 -0.4373  1.1066 -0.4346
   69MOL   C53738753   4.188   4.461   4.330 -0.7918  0.1093  0.9584
   69MOL   C53838754   4.325   4.455   4.291  0.2292 -0.1062  0.3196
   69MOL   C53938755   4.356   4.405   4.161  0.2696 -0.1909  0.7670
   69MOL   N54038756   4.309   4.281   4.136 -0.3325  0.5447  0.0256
   69MOL   C54138757   4.370   4.183   4.063 -0.0616  0.2888  0.6820
   69MOL   C54238758   4.346   4.054   4.106  0.4051 -0.2577 -0.2088
   69MOL   C54338759   4.407   3.941   4.049  0.5019  0.3747 -0.0096
   69MOL   C54438760   4.500   3.963   3.941  0.1016  0.3907 -0.2965
   69MOL   N54538761   4.568   3.859   3.887  0.4150  0.0819 -0.0036
   69MOL   C54638762   4.526   4.090   3.893  0.3146 -0.0941 -0.3422
   69MOL   C54738763   4.462   4.200   3.955  0.0581  0.3658  0.7930
   69MOL   O54838764   4.421   4.472   4.084  0.0820  0.3437  0.3472
   69MOL   C54938765   4.421   4.469   4.394  0.2408 -0.1107 -0.0493
   69MOL   C55038766   4.390   4.486   4.526  0.1068  0.3249  0.0057
   69MOL   O55138767   4.099   4.484   4.737  0.0581  0.5059 -0.0767
   69MOL   H55238768   4.052   4.511   4.493 -0.2810 -1.6770  1.9119
   69MOL   H55338769   4.107   4.445   4.260 -1.1967  0.4062  1.3570
   69MOL   H55438770   4.247   4.248   4.208 -1.4250  0.6825 -0.8360
   69MOL   H55538771   4.281   4.049   4.192  0.9021  1.2358  0.2683
   69MOL   H55638772   4.402   3.843   4.092  2.5051  0.2684  0.0439
   69MOL   H55738773   4.547   3.768   3.925 -0.8394 -0.3367 -1.6494
   69MOL   H55838774   4.574   4.110   3.798  0.2923 -3.0616 -1.0079
   69MOL   H55938775   4.481   4.297   3.910  0.5881 -0.8642 -1.7506
   69MOL   H56038776   4.525   4.452   4.371  1.0434  2.0083  1.8758
   69MOL   H56138777   4.476   4.482   4.592  0.3863 -0.2077 -0.3857
   69MOL   H56238778   4.635   3.880   3.814  0.7425  1.6611  0.7165
   70MOL     C138779   0.568   0.151   0.714 -0.9045 -0.1219  0.5702
   70MOL     C238780   0.568   0.236   0.836 -1.3233  0.4650 -0.4503
   70MOL     C338781   0.473   0.339   0.851 -0.7565 -0.4314 -0.0461
   70MOL     C438782   0.487   0.430   0.963  0.3808  0.3120 -0.1939
   70MOL     C538783   0.577   0.407   1.066 -0.1404  1.0914  0.3383
   70MOL     C638784   0.582   0.490   1.186 -0.1173  0.3925  0.2262
   70MOL     N738785   0.639   0.614   1.168 -0.0721 -0.7026 -0.1226
   70MOL     C838786   0.660   0.717   1.264 -0.3801 -0.5069  0.1909
   70MOL     C938787   0.562   0.757   1.351 -0.2596 -0.2219  0.2793
   70MOL    C1038788   0.579   0.862   1.436  0.4624  0.3758 -0.0528
   70MOL    C1138789   0.711   0.926   1.437  0.4195  0.2420  0.5960
   70MOL    N1238790   0.736   1.007   1.545 -0.6355  0.0314  0.4343
   70MOL    C1338791   0.811   0.888   1.341  0.1443 -0.2581 -0.4782
   70MOL    C1438792   0.780   0.789   1.249 -0.0039 -0.5290 -0.8828
   70MOL    O1538793   0.537   0.436   1.290 -0.4726 -0.0117 -0.3528
   70MOL    C1638794   0.670   0.299   1.053 -0.3585 -0.5951  0.4507
   70MOL    C1738795   0.670   0.221   0.936 -0.2097  0.2151 -0.2232
   70MOL    O1838796   0.522   0.196   0.605 -0.4730  0.2953  0.3425
   70MOL    H1938797   0.394   0.350   0.778 -0.7077 -0.0620 -0.0436
   70MOL    H2038798   0.414   0.508   0.974  0.6424  0.3198  1.6535
   70MOL    H2138799   0.680   0.634   1.078 -2.3762  1.2730 -0.8102
   70MOL    H2238800   0.470   0.701   1.344  0.9489 -1.9321 -3.1388
   70MOL    H2338801   0.495   0.882   1.502  0.8285  2.7474 -0.2800
   70MOL    H2438802   0.683   0.995   1.630 -1.5402  0.5454 -0.0498
   70MOL    H2538803   0.915   0.919   1.347  0.1292 -0.5860  2.8223
   70MOL    H2638804   0.869   0.759   1.196  1.2226 -0.8256  1.2745
   70MOL    H2738805   0.744   0.281   1.129 -1.2497 -0.4097  1.3582
   70MOL    H2838806   0.744   0.144   0.916  0.6552  1.1987 -0.8425
   70MOL    H2938807   0.606   0.052   0.737  0.0769  0.5799  2.0877
   70MOL    C3038808   0.844   1.092   1.555 -0.4164  0.3732  0.2349
   70MOL    C3138809   0.899   1.122   1.692 -0.6350  0.1053 -0.1491
   70MOL    C3238810   1.038   1.114   1.706 -0.1321  0.1299  0.5436
   70MOL    C3338811   1.099   1.142   1.829  0.7311  0.7724  0.2367
   70MOL    C3438812   1.018   1.159   1.944 -0.1357  0.7070  0.3828
   70MOL    C3538813   1.076   1.165   2.083 -0.4414 -0.6450  0.0772
   70MOL    N3638814   1.186   1.247   2.089 -0.5356  0.0634  0.1490
   70MOL    C3738815   1.260   1.289   2.202 -0.1381 -0.0093  0.3792
   70MOL    C3838816   1.239   1.239   2.332 -0.7688  0.2630  1.1419
   70MOL    C3938817   1.312   1.284   2.442  0.1689 -0.9789 -0.3776
   70MOL    C4038818   1.407   1.389   2.424 -0.4028 -0.5989  0.1678
   70MOL    N4138819   1.479   1.432   2.538 -0.0845  0.2915  0.1131
   70MOL    C4238820   1.416   1.448   2.295 -0.1184  0.2241 -0.0809
   70MOL    C4338821   1.352   1.391   2.183 -0.0647 -0.0649 -0.0081
   70MOL    O4438822   1.020   1.107   2.176  0.4486  0.2551  0.5680
   70MOL    C4538823   0.879   1.163   1.931  0.0301  0.0638  0.1959
   70MOL    C4638824   0.818   1.153   1.804  0.0272 -0.9333 -0.2224
   70MOL    O4738825   0.909   1.130   1.458 -0.5553  0.5105 -0.4138
   70MOL    H4838826   1.097   1.088   1.620  1.1821  0.3049  1.3800
   70MOL    H4938827   1.206   1.136   1.840  0.5462 -0.7040  1.2674
   70MOL    H5038828   1.212   1.278   1.997 -1.1468 -1.2541 -0.4728
   70MOL    H5138829   1.169   1.160   2.356 -1.6264  1.0722  1.3252
   70MOL    H5238830   1.303   1.239   2.540  0.4666 -0.2781 -0.0193
   70MOL    H5338831   1.434   1.414   2.627  1.5924  2.1850  1.3835
   70MOL    H5438832   1.477   1.536   2.284  1.0712 -0.6385 -0.3957
   70MOL    H5538833   1.365   1.436   2.085  1.6478 -1.7780 -0.6048
   70MOL    H5638834   0.808   1.173   2.013 -0.8799  1.4002 -0.7386
   70MOL    H5738835   0.711   1.161   1.792 -0.0442 -0.0815  0.8872
   70MOL    C5838836   1.598   1.495   2.545  0.5212  0.2340  0.3809
   70MOL    C5938837   1.640   1.528   2.687 -0.1265 -1.2364  0.6070
   70MOL    C6038838   1.584   1.461   2.796  0.4279  0.1313 -0.1586
   70MOL    C6138839   1.623   1.499   2.922 -0.0509  0.1305  0.0702
   70MOL    C6238840   1.713   1.607   2.940 -0.4061 -0.6135 -0.9262
   70MOL    C6338841   1.757   1.640   3.085 -0.0792 -0.2980  0.1783
   70MOL    N6438842   1.783   1.538   3.166  0.5111  0.0664  0.7332
   70MOL    C6538843   1.730   1.513   3.291  0.2427  0.6387  0.6433
   70MOL    C6638844   1.718   1.379   3.335  0.3460  0.0383  0.7724
   70MOL    C6738845   1.641   1.339   3.444 -0.1702 -0.2889  0.5712
   70MOL    C6838846   1.573   1.435   3.516 -0.1746  0.6143  0.0640
   70MOL    N6938847   1.489   1.403   3.629  0.4122 -1.0812 -0.3711
   70MOL    C7038848   1.582   1.570   3.474 -0.0013  0.3153 -0.7630
   70MOL    C7138849   1.660   1.611   3.363 -0.2148 -0.2746 -0.3520
   70MOL    O7238850   1.767   1.756   3.122  0.1049 -0.1387  0.1731
   70MOL    C7338851   1.768   1.678   2.831 -0.0286  0.2602 -0.4500
   70MOL    C7438852   1.728   1.637   2.705 -1.2447 -0.2754 -0.7230
   70MOL    O7538853   1.669   1.522   2.452  0.3442  0.7460  0.1459
   70MOL    H7638854   1.519   1.376   2.781 -0.2784  0.6121  0.1165
   70MOL    H7738855   1.590   1.444   3.009 -1.1010 -0.2213 -0.5427
   70MOL    H7838856   1.793   1.451   3.116 -2.7439 -0.0175  0.1225
   70MOL    H7938857   1.765   1.304   3.272 -0.1480  0.0223  0.4187
   70MOL    H8038858   1.634   1.233   3.459 -1.7494 -0.2944 -0.0692
   70MOL    H8138859   1.500   1.317   3.681 -2.2532 -0.8288  0.6586
   70MOL    H8238860   1.533   1.645   3.536  0.9524 -0.6936  1.2535
   70MOL    H8338861   1.667   1.717   3.344 -2.4334 -0.0322  0.0280
   70MOL    H8438862   1.834   1.762   2.845 -0.8437  1.4530 -3.4063
   70MOL    H8538863   1.753   1.697   2.619  1.6207 -0.4174 -0.0360
   70MOL    C8638864   1.378   1.453   3.671 -0.1130  0.1936  0.1496
   70MOL    C8738865   1.313   1.367   3.779 -0.4716  0.2901 -0.1034
   70MOL    C8838866   1.174   1.349   3.774 -0.0480  0.9099 -0.0872
   70MOL    C8938867   1.112   1.270   3.866  0.7217 -0.1297 -0.1988
   70MOL    C9038868   1.189   1.203   3.963 -0.0231  0.6178 -0.2588
   70MOL    C9138869   1.118   1.096   4.047 -0.1358 -0.4911 -0.0420
   70MOL    N9238870   0.985   1.095   4.062 -0.0935  0.3229 -0.5246
   70MOL    C9338871   0.908   0.997   4.123  0.0249  0.2474 -0.1697
   70MOL    C9438872   0.945   0.939   4.248  0.0466 -0.6664 -0.1304
   70MOL    C9538873   0.856   0.864   4.324  0.8415  0.2159  0.0312
   70MOL    C9638874   0.722   0.848   4.279 -0.1239 -0.1214  0.5441
   70MOL    N9738875   0.622   0.780   4.352  0.2969 -0.1208  0.0541
   70MOL    C9838876   0.687   0.906   4.153 -0.2763 -0.3578  0.0592
   70MOL    C9938877   0.780   0.972   4.072 -0.0245 -0.1399  0.4994
   70MOL   O10038878   1.190   1.009   4.103  0.8202  0.0010  0.5193
   70MOL   C10138879   1.330   1.227   3.980  0.5165  0.0648 -0.4389
   70MOL   C10238880   1.389   1.312   3.889 -0.3619  0.4296  0.6635
   70MOL   O10338881   1.328   1.562   3.637  0.1226  0.5972 -0.6722
   70MOL   H10438882   1.112   1.391   3.696 -0.6144 -1.3588 -0.9030
   70MOL   H10538883   1.011   1.232   3.855  0.8853 -0.1853 -1.4997
   70MOL   H10638884   0.929   1.160   4.010  0.0513  0.0501 -1.0217
   70MOL   H10738885   1.039   0.958   4.297  0.5668 -0.7510 -1.0807
   70MOL   H10838886   0.872   0.832   4.426  0.1625 -1.4289 -0.3582
   70MOL   H10938887   0.524   0.787   4.325 -0.0402 -1.2652  0.9526
   70MOL   H11038888   0.587   0.891   4.114 -0.6129 -1.1522  1.2127
   70MOL   H11138889   0.745   1.015   3.979  0.4452  4.4528  2.3303
   70MOL   H11238890   1.392   1.174   4.052  2.3672  2.7965  0.0437
   70MOL   H11338891   1.495   1.333   3.890 -0.1529 -0.6214  1.2953
   70MOL   C11438892   0.632   0.665   4.421  0.3042 -0.6484  0.0034
   70MOL   C11538893   0.509   0.607   4.475 -0.0100  0.9979  0.6755
   70MOL   C11638894   0.399   0.579   4.388 -0.0810  0.3568 -0.6428
   70MOL   C11738895   0.275   0.534   4.446 -0.9084  0.3518 -0.0985
   70MOL   C11838896   0.269   0.509   4.584 -0.1916  0.0848  0.3049
   70MOL   C11938897   0.139   0.470   4.646 -0.2805 -0.1221  0.3710
   70MOL   N12038898   0.073   0.378   4.575 -0.5481  0.4885 -0.4179
   70MOL   C12138899   8.104   0.303   4.599 -0.1529  0.1027 -0.8061
   70MOL   C12238900   8.040   0.286   4.724  0.3326 -0.0985  0.5027
   70MOL   C12338901   7.925   0.215   4.745 -0.2260  0.2874  0.2009
   70MOL   C12438902   7.868   0.139   4.637  0.6290 -0.0212  0.0294
   70MOL   N12538903   7.767   0.045   4.660  0.3591  0.0960  0.1195
   70MOL   C12638904   7.929   0.164   4.509  0.5031  0.3756 -0.2667
   70MOL   C12738905   8.044   0.234   4.492  0.0545 -0.6871 -0.1157
   70MOL   O12838906   0.099   0.523   4.750  0.1201 -0.1757 -0.3496
   70MOL   C12938907   0.380   0.525   4.667 -0.5513 -0.4918 -0.3271
   70MOL   C13038908   0.500   0.579   4.621 -0.3897  0.4419  0.1766
   70MOL   O13138909   0.737   0.607   4.457 -0.6752 -0.0577  0.4571
   70MOL   H13238910   0.400   0.593   4.281  0.9097 -2.1397 -0.9774
   70MOL   H13338911   0.189   0.528   4.381 -0.0865 -0.6205 -1.1145
   70MOL   H13438912   0.136   0.342   4.504  1.9744  2.0121  0.9807
   70MOL   H13538913   8.069   0.351   4.804  1.5108 -2.9575  2.4773
   70MOL   H13638914   7.872   0.224   4.839 -0.1593 -1.7353  0.4441
   70MOL   H13738915   7.754   0.011   4.754  2.5827  0.2781  0.5211
   70MOL   H13838916   7.894   0.105   4.425 -1.3492  1.5612 -0.3516
   70MOL   H13938917   8.092   0.236   4.395 -0.4980  1.1466 -0.3657
   70MOL   H14038918   0.384   0.487   4.769 -2.7730 -0.9150 -0.3824
   70MOL   H14138919   0.580   0.595   4.691  1.3818  0.2829 -1.7633
   70MOL   C14238920   7.677   8.136   4.577  0.3522 -0.0050 -0.2327
   70MOL   C14338921   7.581   8.050   4.649  0.1954  0.1811 -0.4975
   70MOL   C14438922   7.500   8.111   4.750  0.5523  0.5407  0.0683
   70MOL   C14538923   7.396   8.039   4.803  0.1073 -0.1610 -0.3567
   70MOL   C14638924   7.369   7.910   4.753  0.5899 -0.2006 -0.1726
   70MOL   C14738925   7.252   7.830   4.806  0.3302  1.1504  0.3286
   70MOL   N14838926   7.135   7.892   4.836 -0.4464 -0.3937 -0.2895
   70MOL   C14938927   7.092   8.020   4.784  0.4799 -0.0338  0.3618
   70MOL   C15038928   7.010   8.099   4.869  0.6821 -0.1106  0.3813
   70MOL   C15138929   6.961   0.077   4.820  0.0039 -0.0114 -0.2723
   70MOL   C15238930   6.986   0.119   4.688 -0.3154 -0.1687 -0.5433
   70MOL   N15338931   6.940   0.242   4.641  1.3813  0.0391  0.1508
   70MOL   C15438932   7.063   0.040   4.601 -0.8655 -0.2317  0.2559
   70MOL   C15538933   7.115   8.064   4.651  0.0169 -0.1970 -0.1161
   70MOL   O15638934   7.263   7.707   4.795  1.0843  0.7503  0.1360
   70MOL   C15738935   7.456   7.846   4.667 -0.1730  0.4158 -0.2161
   70MOL   C15838936   7.556   7.921   4.605  0.3786 -0.6261  0.0976
   70MOL   O15938937   7.682   8.144   4.451  0.5529 -0.0113 -0.7147
   70MOL   H16038938   7.537   0.061   4.783  1.6573  0.8261 -1.9455
   70MOL   H16138939   7.328   8.074   4.880  1.7647 -0.0849  1.1229
   70MOL   H16238940   7.057   7.842   4.873  0.2463 -1.8278 -0.7242
   70MOL   H16338941   6.976   8.072   4.967 -0.1104  0.0236  0.1409
   70MOL   H16438942   6.905   0.133   4.893  1.8798  0.7771  0.5896
   70MOL   H16538943   6.973   0.269   4.550 -0.6722 -1.6750 -1.1689
   70MOL   H16638944   7.090   0.077   4.504 -3.3904 -0.5584 -0.5974
   70MOL   H16738945   7.178   8.007   4.585 -1.5663 -0.4232 -1.4573
   70MOL   H16838946   7.444   7.743   4.639 -1.0392  1.4363 -3.8314
   70MOL   H16938947   7.618   7.886   4.524  0.0090 -1.0054 -0.0189
   70MOL   C17038948   6.824   0.305   4.678 -0.8007  0.3578 -0.3010
   70MOL   C17138949   6.769   0.408   4.581 -0.1869 -0.7482  0.2157
   70MOL   C17238950   6.846   0.513   4.531 -0.1994  0.0283 -0.0618
   70MOL   C17338951   6.794   0.614   4.446 -0.7612  0.5563  0.4249
   70MOL   C17438952   6.653   0.614   4.421 -0.1794 -0.7350 -0.3774
   70MOL   C17538953   6.578   0.724   4.344  0.1719  0.1977 -0.2958
   70MOL   N17638954   6.655   0.792   4.261 -0.1120 -0.7591  0.1547
   70MOL   C17738955   6.621   0.911   4.183 -0.1860  0.7278  0.0332
   70MOL   C17838956   6.701   0.944   4.072 -0.1613 -0.0328  0.9730
   70MOL   C17938957   6.657   1.047   3.991  0.2924  0.1410 -0.1329
   70MOL   C18038958   6.534   1.119   4.021  0.0985  0.0704 -0.3434
   70MOL   N18138959   6.482   1.231   3.947 -0.5501 -0.0878 -0.6673
   70MOL   C18238960   6.456   1.093   4.133 -0.8027 -0.4240 -0.0597
   70MOL   C18338961   6.505   0.989   4.218 -0.3002 -0.0917  0.0686
   70MOL   O18438962   6.454   0.737   4.350  0.5559  0.2082  0.2606
   70MOL   C18538963   6.584   0.499   4.462  0.0271  0.3721 -0.3189
   70MOL   C18638964   6.635   0.402   4.547 -0.0177  0.2727 -0.2042
   70MOL   O18738965   6.756   0.281   4.777  0.0539  0.1773  0.0620
   70MOL   H18838966   6.952   0.508   4.552 -0.6309 -0.7837  2.0155
   70MOL   H18938967   6.858   0.690   4.403 -0.2374  0.3291  0.7958
   70MOL   H19038968   6.747   0.754   4.242 -0.0046 -0.0411 -0.8221
   70MOL   H19138969   6.799   0.904   4.052  0.6424  1.1947  2.3815
   70MOL   H19238970   6.729   1.061   3.913  2.0599  2.9530  1.9269
   70MOL   H19338971   6.398   1.274   3.986  0.7294  1.3340  0.6256
   70MOL   H19438972   6.366   1.149   4.152 -0.6240 -0.7206  1.7513
   70MOL   H19538973   6.444   0.967   4.303  0.3500  1.7274  1.0301
   70MOL   H19638974   6.476   0.490   4.469  0.0329  0.3246 -0.2926
   70MOL   H19738975   6.563   0.332   4.587 -1.5866  0.0601 -3.2318
   70MOL   C19838976   6.516   1.282   3.827  0.4483 -0.5158 -0.0284
   70MOL   C19938977   6.651   1.242   3.755 -0.5310  0.1739 -0.7525
   70MOL   C20038978   6.772   1.295   3.808  0.1167  0.1067  0.2665
   70MOL   C20138979   6.892   1.286   3.740  0.2852  0.6805  0.6580
   70MOL   C20238980   6.897   1.209   3.623 -0.2982  0.0527  1.1169
   70MOL   C20338981   7.021   1.188   3.544 -0.0349 -0.3119  0.3568
   70MOL   N20438982   7.137   1.232   3.594  0.3183  0.2786  0.1671
   70MOL   C20538983   7.266   1.222   3.546  0.2201 -0.1864  0.2400
   70MOL   C20638984   7.368   1.244   3.642  0.0316 -0.4028  0.4750
   70MOL   C20738985   7.503   1.258   3.598  0.0399 -0.0121 -0.0970
   70MOL   C20838986   7.538   1.239   3.460  0.0930  0.2693  0.5864
   70MOL   N20938987   7.667   1.237   3.408 -0.2712  0.1657 -0.3947
   70MOL   C21038988   7.436   1.226   3.368  1.0190  0.2787  0.2044
   70MOL   C21138989   7.299   1.217   3.412 -0.5876  0.4362  0.2672
   70MOL   O21238990   7.017   1.128   3.433  0.1146  0.5576 -0.1394
   70MOL   C21338991   6.779   1.147   3.580  0.0767  0.1133  0.0458
   70MOL   C21438992   6.654   1.153   3.646  0.6417  0.5025  0.1397
   70MOL   O21538993   6.435   1.352   3.767  1.0634 -0.4186  0.6110
   70MOL   H21638994   6.769   1.347   3.902 -3.3844  3.6770 -1.6281
   70MOL   H21738995   6.982   1.336   3.772  2.0412 -0.7578 -1.8782
   70MOL   H21838996   7.140   1.281   3.682  0.3750  0.2263  0.1949
   70MOL   H21938997   7.338   1.240   3.746  0.6385 -2.1864  0.6083
   70MOL   H22038998   7.578   1.282   3.672  0.6566 -1.6400 -0.1855
   70MOL   H22138999   7.677   1.189   3.320 -0.1493 -1.5586  0.5320
   70MOL   H22239000   7.465   1.222   3.264  0.3232 -0.3890  0.0268
   70MOL   H22339001   7.219   1.203   3.340 -1.4774  3.5432  0.5807
   70MOL   H22439002   6.782   1.090   3.489  0.4766 -1.1712  0.8431
   70MOL   H22539003   6.565   1.102   3.613  2.0606 -2.9248  1.4362
   70MOL   C22639004   7.774   1.285   3.459  0.2509  0.0110 -0.5483
   70MOL   C22739005   7.904   1.291   3.374 -0.0709  1.2420 -0.1505
   70MOL   C22839006   8.027   1.291   3.438 -0.0223 -0.7103 -0.0830
   70MOL   C22939007   0.007   1.301   3.364  0.3623  1.1402 -0.3059
   70MOL   C23039008   0.007   1.310   3.223  0.2871 -0.2185  0.4111
   70MOL   C23139009   0.136   1.319   3.150  0.4300  0.1946  0.3856
   70MOL   N23239010   0.129   1.370   3.026 -0.0314  0.3870 -0.4146
   70MOL   C23339011   0.238   1.392   2.927 -0.4099 -0.1699 -0.6407
   70MOL   C23439012   0.208   1.483   2.828 -0.3689  0.1328 -0.7501
   70MOL   C23539013   0.303   1.513   2.736 -0.1541  0.4463  0.9189
   70MOL   C23639014   0.431   1.457   2.744 -0.1166  0.3834 -0.4409
   70MOL   N23739015   0.537   1.490   2.654  0.0085 -0.3983 -0.2392
   70MOL   C23839016   0.459   1.350   2.835  0.2319 -0.0480 -0.2232
   70MOL   C23939017   0.361   1.314   2.929  0.2131  0.0816 -0.0139
   70MOL   O24039018   0.240   1.305   3.211  0.5522 -0.5243 -0.3536
   70MOL   C24139019   8.024   1.309   3.158 -0.2009  0.0403  0.3007
   70MOL   C24239020   7.903   1.301   3.234  0.0959  0.3472 -0.1843
   70MOL   O24339021   7.778   1.353   3.564 -0.3752 -0.0812  0.3740
   70MOL   H24439022   8.030   1.291   3.546  1.1464 -1.8528 -0.0986
   70MOL   H24539023   0.104   1.293   3.410 -0.5276 -0.0533  1.4316
   70MOL   H24639024   0.035   1.395   2.999 -0.4613  0.7742  1.3797
   70MOL   H24739025   0.113   1.533   2.819 -0.5058  0.5302  2.2483
   70MOL   H24839026   0.280   1.584   2.659 -2.7401 -1.1247  0.1985
   70MOL   H24939027   0.623   1.525   2.695 -0.8078  1.2639  0.0763
   70MOL   H25039028   0.558   1.307   2.830 -0.1119 -0.5815 -3.0651
   70MOL   H25139029   0.376   1.240   3.005 -0.0783  1.1467  1.1007
   70MOL   H25239030   8.009   1.322   3.052 -1.4425  0.3905  0.5083
   70MOL   H25339031   7.815   1.301   3.172 -0.6002 -3.3364  0.6625
   70MOL   C25439032   0.529   1.505   2.525 -0.8889  0.1661 -0.2562
   70MOL   C25539033   0.641   1.583   2.467  0.6428 -0.4852 -0.6884
   70MOL   C25639034   0.613   1.679   2.370 -0.2137  0.0263 -0.3382
   70MOL   C25739035   0.721   1.764   2.326  0.3348 -0.1943  0.2753
   70MOL   C25839036   0.851   1.744   2.384  0.5237  0.2273 -0.9398
   70MOL   C25939037   0.959   1.834   2.347  0.1397  0.5201 -0.1786
   70MOL   N26039038   1.062   1.786   2.278  0.2198  0.1989  0.3863
   70MOL   C26139039   1.193   1.834   2.288 -0.0942 -0.5585 -0.7259
   70MOL   C26239040   1.281   1.746   2.350  0.7349  0.1139  0.2765
   70MOL   C26339041   1.416   1.787   2.371  0.1707  0.1473 -0.8602
   70MOL   C26439042   1.449   1.921   2.342  0.5677 -0.0557 -0.2397
   70MOL   N26539043   1.573   1.971   2.390  0.8145 -0.5703  0.2925
   70MOL   C26639044   1.366   2.006   2.267 -0.1160  0.1742 -0.2368
   70MOL   C26739045   1.237   1.959   2.237 -0.4963  0.0790  0.3213
   70MOL   O26839046   0.948   1.951   2.380  0.1321 -0.7029 -0.3712
   70MOL   C26939047   0.872   1.632   2.471 -0.0442  0.6568 -0.2396
   70MOL   C27039048   0.766   1.550   2.507 -0.6696 -0.4033  0.0182
   70MOL   O27139049   0.434   1.466   2.452 -0.2151  0.0257 -0.8197
   70MOL   H27239050   0.516   1.707   2.331  0.4173  1.8859 -0.6170
   70MOL   H27339051   0.700   1.838   2.250 -0.8693 -0.7901  0.0102
   70MOL   H27439052   1.048   1.687   2.263 -2.2421  0.5887 -0.1068
   70MOL   H27539053   1.248   1.654   2.397 -1.3420  0.2369 -0.9029
   70MOL   H27639054   1.481   1.726   2.432  0.2276  0.8151 -0.2409
   70MOL   H27739055   1.657   1.938   2.345  0.5299 -0.6673 -0.1772
   70MOL   H27839056   1.389   2.106   2.236 -0.7301 -0.0238 -1.3362
   70MOL   H27939057   1.165   2.019   2.183  0.2381  0.7264  0.0546
   70MOL   H28039058   0.972   1.612   2.508 -0.3942  0.6237  0.6970
   70MOL   H28139059   0.785   1.476   2.583  1.7938  0.8300  0.6574
   70MOL   C28239060   1.588   2.039   2.505  0.7011 -0.4152  0.7225
   70MOL   C28339061   1.733   2.063   2.542  0.0537  0.0327  0.1497
   70MOL   C28439062   1.823   2.133   2.460  0.5562  0.1505  0.2637
   70MOL   C28539063   1.961   2.152   2.488 -0.5240  0.6845 -0.1193
   70MOL   C28639064   2.002   2.102   2.615  0.1204  0.8692  0.2646
   70MOL   C28739065   2.146   2.091   2.651 -0.0081 -0.4075  0.6370
   70MOL   N28839066   2.219   2.202   2.664  0.7395 -0.1478 -0.4815
   70MOL   C28939067   2.180   2.338   2.679  0.2742  0.0928  0.2367
   70MOL   C29039068   2.071   2.377   2.760  0.1142  0.3998  0.3650
   70MOL   C29139069   2.038   2.512   2.785  0.9972  0.1814  0.3115
   70MOL   C29239070   2.119   2.606   2.720  0.0097  0.6239 -0.3781
   70MOL   N29339071   2.097   2.743   2.751  0.4771 -0.2722 -0.2370
   70MOL   C29439072   2.240   2.575   2.655  0.1746  0.4012  0.3299
   70MOL   C29539073   2.274   2.434   2.633  0.0739  0.1973  0.1656
   70MOL   O29639074   2.194   1.982   2.673  1.1668  0.3536  0.0387
   70MOL   C29739075   1.912   2.036   2.706  0.4851  0.6806 -0.1680
   70MOL   C29839076   1.776   2.017   2.672  0.6726 -0.7596  0.4379
   70MOL   O29939077   1.491   2.080   2.569 -0.1091 -0.1735 -0.2506
   70MOL   H30039078   1.776   2.162   2.367  1.3322  1.5334  0.2895
   70MOL   H30139079   2.035   2.196   2.424 -0.5016 -0.4039 -0.8607
   70MOL   H30239080   2.313   2.178   2.693  0.4775  0.6728  1.1125
   70MOL   H30339081   2.009   2.305   2.812  0.4677  0.3966  0.7762
   70MOL   H30439082   1.947   2.546   2.832  0.7739 -0.1681  0.1329
   70MOL   H30539083   2.087   2.761   2.850  0.9132 -0.2217 -0.1999
   70MOL   H30639084   2.292   2.659   2.611 -1.3541  1.3042  0.2103
   70MOL   H30739085   2.356   2.397   2.574  0.2097  1.1731 -0.2720
   70MOL   H30839086   1.951   2.004   2.802  1.0102  0.2759 -0.5175
   70MOL   H30939087   1.706   1.964   2.735 -0.3452  0.6090  0.4850
   70MOL   C31039088   2.107   2.847   2.670 -0.1559  0.4321  0.3663
   70MOL   C31139089   2.116   2.826   2.521  0.2603  0.0992  0.2130
   70MOL   C31239090   2.217   2.884   2.442  0.3165 -0.0487  0.4888
   70MOL   C31339091   2.218   2.867   2.301  0.7430  1.1766 -0.2522
   70MOL   C31439092   2.121   2.779   2.242 -0.1328  0.5542 -0.5146
   70MOL   C31539093   2.130   2.763   2.090  0.3709  1.1765  0.8302
   70MOL   N31639094   2.022   2.707   2.038  0.2240 -0.2585  0.1788
   70MOL   C31739095   1.998   2.645   1.911 -0.0761  0.6027  0.5211
   70MOL   C31839096   1.873   2.575   1.899 -0.2497  0.7072  0.3868
   70MOL   C31939097   1.829   2.528   1.772  0.0715  0.2264  0.5880
   70MOL   C32039098   1.924   2.521   1.665 -0.2675 -0.7294 -0.0336
   70MOL   N32139099   1.893   2.437   1.558 -0.1977 -0.1945  0.1268
   70MOL   C32239100   2.053   2.579   1.686 -0.3848 -0.0939  0.3904
   70MOL   C32339101   2.090   2.642   1.807  0.1971 -0.5165  0.0682
   70MOL   O32439102   2.228   2.800   2.028  0.5305 -0.0117 -0.2443
   70MOL   C32539103   2.017   2.720   2.324 -0.3547  0.1234 -0.4929
   70MOL   C32639104   2.017   2.743   2.461 -0.9112  0.0518  0.1899
   70MOL   O32739105   2.108   2.958   2.716  0.2480  0.5334 -0.4953
   70MOL   H32839106   2.303   2.931   2.486  1.4613 -1.4091 -0.2596
   70MOL   H32939107   2.298   2.910   2.243  0.2749  0.8842 -1.1266
   70MOL   H33039108   1.950   2.699   2.109 -0.6316 -1.6376 -0.8385
   70MOL   H33139109   1.797   2.557   1.973 -1.1949 -2.5567 -1.2820
   70MOL   H33239110   1.733   2.480   1.758  0.4320 -0.0523 -1.0597
   70MOL   H33339111   1.837   2.354   1.569 -0.9549  0.4607  1.2655
   70MOL   H33439112   2.111   2.586   1.595  0.7785 -1.4325  1.0254
   70MOL   H33539113   2.185   2.692   1.818  0.4360 -1.5427  3.0087
   70MOL   H33639114   1.947   2.650   2.282  2.8681 -2.8620 -1.0849
   70MOL   H33739115   1.947   2.698   2.530 -2.1149  2.6480  0.7079
   70MOL   C33839116   1.932   2.458   1.433 -0.2919 -0.5908 -0.4634
   70MOL   C33939117   1.890   2.346   1.345  0.1005  0.2419  0.5544
   70MOL   C34039118   1.978   2.309   1.237  0.0202  0.5086  0.3865
   70MOL   C34139119   1.941   2.194   1.156  0.1051 -0.3480 -0.8379
   70MOL   C34239120   1.823   2.123   1.181 -0.0393 -0.0754 -0.6974
   70MOL   C34339121   1.784   2.003   1.092 -0.4817  0.1886  0.1707
   70MOL   N34439122   1.857   1.982   0.979 -0.6199 -0.2368 -0.0755
   70MOL   C34539123   1.819   1.886   0.882  0.2129 -0.3310  0.5530
   70MOL   C34639124   1.752   1.919   0.765  0.4850 -0.0847 -0.6626
   70MOL   C34739125   1.698   1.816   0.684  0.0827  1.1737  0.1069
   70MOL   C34839126   1.723   1.678   0.708  0.0903 -0.1236 -0.4534
   70MOL   N34939127   1.687   1.576   0.618 -0.1894  0.6991 -1.4852
   70MOL   C35039128   1.803   1.650   0.816 -0.2555 -0.9535  1.0925
   70MOL   C35139129   1.852   1.754   0.902 -0.1313  0.5680 -0.6181
   70MOL   O35239130   1.692   1.931   1.136  0.0192 -0.6354  0.8775
   70MOL   C35339131   1.740   2.162   1.289 -0.3516 -0.6909  0.5456
   70MOL   C35439132   1.778   2.263   1.376 -0.1923 -0.0528  0.3133
   70MOL   O35539133   2.000   2.552   1.389 -0.4384 -0.3872 -0.2917
   70MOL   H35639134   2.067   2.367   1.219 -0.3377  1.4040  1.3734
   70MOL   H35739135   2.007   2.160   1.077  1.4136 -0.6108  0.3420
   70MOL   H35839136   1.901   2.068   0.948  1.1176 -0.6856  1.0722
   70MOL   H35939137   1.731   2.023   0.743 -1.2339 -0.7753 -2.4677
   70MOL   H36039138   1.639   1.844   0.598  0.9991 -0.6051 -1.1436
   70MOL   H36139139   1.736   1.487   0.619  1.8435  1.7815  0.9645
   70MOL   H36239140   1.830   1.546   0.833 -2.0644 -1.3254  1.8470
   70MOL   H36339141   1.908   1.727   0.990 -0.8247  0.1315 -0.3076
   70MOL   H36439142   1.645   2.112   1.297 -0.4386 -0.7508 -0.7229
   70MOL   H36539143   1.708   2.284   1.456 -0.5300 -2.0949  0.5889
   70MOL   C36639144   1.581   1.570   0.531 -0.8763 -0.0186 -1.1803
   70MOL   C36739145   1.574   1.444   0.449  0.3311 -0.0295  0.5925
   70MOL   C36839146   1.640   1.326   0.485 -0.6486 -0.0330 -0.1424
   70MOL   C36939147   1.600   1.205   0.433 -0.3267  0.7526  0.0573
   70MOL   C37039148   1.504   1.196   0.329  0.3862  0.4214 -0.0290
   70MOL   C37139149   1.462   1.060   0.283 -0.7012  0.4351  0.3616
   70MOL   N37239150   1.336   1.053   0.251 -0.8444  0.2393  0.0205
   70MOL   C37339151   1.264   0.941   0.190  0.5035 -0.0188 -0.0870
   70MOL   C37439152   1.321   0.844   0.100  0.3204 -0.6681  0.3149
   70MOL   C37539153   1.243   0.755   0.028  0.2377 -0.0183 -0.5497
   70MOL   C37639154   1.106   0.739   0.052  0.2977  0.1017 -0.8073
   70MOL   N37739155   1.014   0.664   8.124  0.7408 -0.1493 -0.2844
   70MOL   C37839156   1.055   0.822   0.147 -0.1186  0.3230 -0.1414
   70MOL   C37939157   1.129   0.918   0.215 -0.0292  0.0107  0.5363
   70MOL   O38039158   1.546   0.968   0.280 -0.2624  0.3742  0.5201
   70MOL   C38139159   1.451   1.314   0.281 -0.5377  0.7382 -0.6320
   70MOL   C38239160   1.488   1.437   0.335  0.2122 -0.0272 -0.7349
   70MOL   O38339161   1.495   1.659   0.523  0.3750  0.1901  0.4129
   70MOL   H38439162   1.705   1.314   0.571 -0.2263  1.4000 -0.2563
   70MOL   H38539163   1.645   1.112   0.465  0.3742  0.0427 -2.8558
   70MOL   H38639164   1.270   1.129   0.259 -0.2430  0.7319  0.3625
   70MOL   H38739165   1.425   0.854   0.075  0.3618 -0.2543  0.6473
   70MOL   H38839166   1.298   0.688   8.109 -1.2112 -0.8251 -0.9555
   70MOL   H38939167   0.918   0.684   0.003  1.1155  1.3381 -0.0185
   70MOL   H39039168   0.952   0.804   0.175 -0.3125  0.2519 -0.9007
   70MOL   H39139169   1.075   0.981   0.284  1.1686  0.9753  0.5975
   70MOL   H39239170   1.372   1.315   0.207 -0.1765  0.1771 -1.0349
   70MOL   H39339171   1.427   1.521   0.307 -1.1573 -0.8542 -0.3301
   70MOL   C39439172   1.047   0.566   8.035 -0.3315 -0.8968  0.2659
   70MOL   C39539173   0.929   0.492   7.973 -0.2542  0.1282 -0.0743
   70MOL   C39639174   0.810   0.560   7.931 -0.2468  0.3543  0.5527
   70MOL   C39739175   0.704   0.481   7.888 -0.1991 -0.2898  0.3216
   70MOL   C39839176   0.712   0.343   7.864 -0.3004  0.5183  0.1222
   70MOL   C39939177   0.600   0.267   7.805  0.5359 -0.7578 -0.0628
   70MOL   N40039178   0.541   0.320   7.697 -0.7251  0.1695  0.0706
   70MOL   C40139179   0.416   0.284   7.652 -0.4698  0.2873 -0.6628
   70MOL   C40239180   0.368   0.328   7.528 -0.0044 -0.4019  0.3789
   70MOL   C40339181   0.237   0.308   7.485  0.5070  0.2767 -0.4373
   70MOL   C40439182   0.137   0.269   7.574 -0.9861  0.1377  0.0474
   70MOL   N40539183   0.004   0.265   7.532  0.0311  0.0875 -0.3445
   70MOL   C40639184   0.178   0.232   7.707  0.4033  0.0786  0.3431
   70MOL   C40739185   0.315   0.241   7.743  0.0432  0.0110 -0.5278
   70MOL   O40839186   0.586   0.154   7.838  0.6512  0.8336  0.2790
   70MOL   C40939187   0.829   0.278   7.906  0.4101 -0.0433  0.0353
   70MOL   C41039188   0.937   0.346   7.972 -0.0646 -0.5468  0.3045
   70MOL   O41139189   1.161   0.515   8.020 -0.5213  0.4960 -0.3744
   70MOL   H41239190   0.808   0.667   7.945 -0.1341  0.3672  0.4766
   70MOL   H41339191   0.608   0.522   7.862 -0.5862 -1.1564  0.3784
   70MOL   H41439192   0.582   0.407   7.668  0.5388 -0.6145 -0.5445
   70MOL   H41539193   0.430   0.379   7.454 -0.5000 -1.1446 -0.5544
   70MOL   H41639194   0.221   0.354   7.389  2.4866  0.9505 -0.4851
   70MOL   H41739195   8.083   0.203   7.576 -0.4358  0.3634 -0.6684
   70MOL   H41839196   0.105   0.214   7.785 -1.4858 -0.9348 -1.6164
   70MOL   H41939197   0.342   0.236   7.847  2.8853 -1.3983 -1.2930
   70MOL   H42039198   0.822   0.171   7.895  0.4068 -0.1247  0.8556
   70MOL   H42139199   1.025   0.293   8.008  0.3353  0.0743  0.2497
   70MOL   C42239200   8.095   0.375   7.484 -0.0777  0.1904  0.0297
   70MOL   C42339201   7.948   0.377   7.506 -0.0951  0.1955 -0.4001
   70MOL   C42439202   7.861   0.439   7.406 -0.6235  0.4688  0.1047
   70MOL   C42539203   7.726   0.461   7.440 -0.3433  0.1940  0.5918
   70MOL   C42639204   7.678   0.432   7.567 -0.6087 -0.3145 -0.5868
   70MOL   C42739205   7.549   0.498   7.606 -0.4453  0.1035  0.7807
   70MOL   N42839206   7.441   0.424   7.604 -0.3417  0.2456 -0.5706
   70MOL   C42939207   7.439   0.295   7.550  0.3092  0.0381  0.2180
   70MOL   C43039208   7.444   0.273   7.412  0.0368 -0.1303 -0.3199
   70MOL   C43139209   7.445   0.142   7.364  0.0217 -0.1250 -0.5120
   70MOL   C43239210   7.428   0.029   7.445  0.0764 -0.3253  0.2433
   70MOL   N43339211   7.440   8.048   7.381  0.1536  0.0484 -0.1427
   70MOL   C43439212   7.418   0.049   7.589 -0.1455  0.2289  0.1209
   70MOL   C43539213   7.413   0.184   7.634  0.2432 -0.0222 -0.0655
   70MOL   O43639214   7.549   0.619   7.632  0.3467 -0.0000 -0.3252
   70MOL   C43739215   7.754   0.359   7.660 -0.1816  0.0366 -0.1861
   70MOL   C43839216   7.889   0.339   7.633 -0.0829  0.1753 -0.4614
   70MOL   O43939217   0.003   0.467   7.430 -0.4617 -0.1099  0.3421
   70MOL   H44039218   7.894   0.466   7.307 -2.1314 -0.6132 -0.7268
   70MOL   H44139219   7.658   0.519   7.379 -0.2479  0.9698  1.2112
   70MOL   H44239220   7.362   0.457   7.657  0.2304  0.8291 -0.0811
   70MOL   H44339221   7.441   0.353   7.340 -0.2782 -0.0409 -0.2112
   70MOL   H44439222   7.453   0.134   7.257  1.8210 -1.2980 -0.3017
   70MOL   H44539223   7.453   8.053   7.281 -3.9757 -0.4638 -0.7712
   70MOL   H44639224   7.409   8.111   7.657  2.4207 -0.7034 -0.6254
   70MOL   H44739225   7.394   0.189   7.740 -0.1738 -2.5178  0.0024
   70MOL   H44839226   7.717   0.340   7.759 -1.1468  1.4748 -0.2525
   70MOL   H44939227   7.958   0.312   7.712  0.5419  1.5671 -0.5098
   70MOL   C45039228   7.450   7.927   7.431 -0.5089 -0.3577  0.0235
   70MOL   C45139229   7.500   7.818   7.341 -0.2256 -0.0221 -0.7059
   70MOL   C45239230   7.611   7.739   7.383 -0.3652 -0.4071  0.2270
   70MOL   C45339231   7.683   7.662   7.289  0.6664  0.4520  0.0817
   70MOL   C45439232   7.632   7.642   7.160 -0.7025  0.0640  0.9272
   70MOL   C45539233   7.707   7.561   7.057  0.4660  0.8132 -0.4456
   70MOL   N45639234   7.839   7.573   7.071  0.2783  0.4740  0.0468
   70MOL   C45739235   7.940   7.514   6.992 -0.0765 -0.3396  0.0047
   70MOL   C45839236   7.922   7.404   6.905  0.4643  0.6631  0.0286
   70MOL   C45939237   8.027   7.373   6.816 -0.4464  0.8753  0.5421
   70MOL   C46039238   0.002   7.452   6.808  0.8782 -0.1908  0.8917
   70MOL   N46139239   0.093   7.432   6.704  1.1199  0.3687  0.8001
   70MOL   C46239240   0.011   7.562   6.892 -0.5376 -0.7992 -0.2867
   70MOL   C46339241   8.057   7.592   6.992 -0.2624  0.1595  0.0322
   70MOL   O46439242   7.644   7.501   6.965 -0.4247  0.2986  0.1466
   70MOL   C46539243   7.512   7.710   7.121 -0.1060  0.3834  0.2768
   70MOL   C46639244   7.451   7.802   7.205  0.1927  0.4093  0.4817
   70MOL   O46739245   7.413   7.894   7.539 -1.0566 -0.1239  0.2680
   70MOL   H46839246   7.652   7.746   7.483  2.4285  2.0879 -1.0032
   70MOL   H46939247   7.770   7.605   7.318 -1.2371 -2.0998  0.9826
   70MOL   H47039248   7.876   7.630   7.146  2.6383 -1.5858  0.5333
   70MOL   H47139249   7.833   7.343   6.920  2.3548 -1.6365  2.3973
   70MOL   H47239250   8.014   7.291   6.748 -2.1806 -0.2632  2.2143
   70MOL   H47339251   0.120   7.513   6.649  1.7398 -0.9217 -0.8405
   70MOL   H47439252   0.102   7.620   6.896  0.8125 -2.8753  0.0116
   70MOL   H47539253   8.052   7.689   7.040  0.1997  1.0471 -1.6536
   70MOL   H47639254   7.474   7.690   7.022  0.0819  0.3284  0.2152
   70MOL   H47739255   7.375   7.873   7.175  2.0391  2.2386  0.0070
   70MOL   C47839256   0.140   7.318   6.661 -0.2908 -0.5196  0.6139
   70MOL   C47939257   0.225   7.331   6.538 -0.5740 -1.1802  0.3727
   70MOL   C48039258   0.193   7.259   6.423  0.5668  0.2195 -0.0645
   70MOL   C48139259   0.276   7.263   6.309 -0.3584 -0.6239 -0.2523
   70MOL   C48239260   0.390   7.354   6.319 -0.4999 -0.2812 -0.6275
   70MOL   C48339261   0.476   7.371   6.194 -0.6097  0.2905  0.1283
   70MOL   N48439262   0.606   7.366   6.219 -0.3226 -0.1595  0.5472
   70MOL   C48539263   0.709   7.393   6.118 -0.0414 -0.3202 -0.3402
   70MOL   C48639264   0.821   7.470   6.161  0.1838  0.7718 -0.1275
   70MOL   C48739265   0.940   7.470   6.084  0.5796 -0.2272  0.5397
   70MOL   C48839266   0.942   7.406   5.960  0.5205  0.6175 -1.0612
   70MOL   N48939267   1.065   7.400   5.895  0.0325 -0.2227  0.8823
   70MOL   C49039268   0.821   7.343   5.907  0.0272 -0.0395 -0.3461
   70MOL   C49139269   0.713   7.327   5.993 -0.2378 -0.3751 -0.3980
   70MOL   O49239270   0.426   7.349   6.077 -0.5406 -0.5606 -0.0519
   70MOL   C49339271   0.424   7.424   6.434  0.1190  0.1658 -0.1073
   70MOL   C49439272   0.349   7.400   6.547 -0.0350 -0.1879 -0.7648
   70MOL   O49539273   0.136   7.212   6.726 -0.0331  0.2836 -0.5700
   70MOL   H49639274   0.101   7.203   6.417  2.1108 -2.3105 -0.8349
   70MOL   H49739275   0.248   7.206   6.222 -0.9370 -0.9598  0.1557
   70MOL   H49839276   0.637   7.386   6.313  2.2925  0.0417 -0.3099
   70MOL   H49939277   0.822   7.508   6.262 -1.4793  1.6298 -0.4267
   70MOL   H50039278   1.030   7.513   6.125  0.4402 -0.0427  0.6557
   70MOL   H50139279   1.133   7.469   5.922 -1.4101  1.3554  0.5480
   70MOL   H50239280   0.821   7.302   5.807 -1.3471 -0.7873 -0.0552
   70MOL   H50339281   0.632   7.262   5.963 -0.4365  0.4125 -1.5701
   70MOL   H50439282   0.504   7.497   6.440 -0.7338  0.9604  2.0885
   70MOL   H50539283   0.378   7.463   6.630  1.0264  0.4381 -1.6050
   70MOL   C50639284   1.114   7.298   5.820 -0.3261  0.3364  0.0739
   70MOL   C50739285   1.263   7.293   5.806 -0.0108  0.5137 -0.2180
   70MOL   C50839286   1.333   7.181   5.742 -0.4547  0.2436 -0.4002
   70MOL   C50939287   1.468   7.185   5.723 -0.5691  0.8242 -1.0255
   70MOL   C51039288   1.548   7.294   5.762  0.4738 -0.4259 -0.4796
   70MOL   C51139289   1.695   7.304   5.739  0.1328  0.1457 -0.1640
   70MOL   N51239290   1.730   7.432   5.717  0.1259  1.1309 -0.7676
   70MOL   C51339291   1.860   7.486   5.749  1.0441 -0.1450 -0.1214
   70MOL   C51439292   1.863   7.560   5.867  0.5333  0.1120 -0.0326
   70MOL   C51539293   1.988   7.607   5.917 -0.1542 -0.2532  0.0037
   70MOL   C51639294   2.103   7.590   5.837 -0.1643 -0.5053  0.3277
   70MOL   N51739295   2.227   7.649   5.880 -0.3010  0.2624  0.7378
   70MOL   C51839296   2.103   7.512   5.722  0.7076  0.1339 -0.4601
   70MOL   C51939297   1.979   7.469   5.677  0.3985  0.3042 -0.1769
   70MOL   O52039298   1.770   7.206   5.726 -0.7469 -0.6491  0.0297
   70MOL   C52139299   1.482   7.405   5.819  0.4843  0.4040  0.4861
   70MOL   C52239300   1.342   7.408   5.837 -0.0619  0.4930 -0.3179
   70MOL   O52339301   1.046   7.207   5.769  0.2942 -0.2159 -0.0354
   70MOL   H52439302   1.278   7.094   5.712  0.5063 -0.5134 -0.0181
   70MOL   H52539303   1.510   7.100   5.671 -0.3140  0.1469  0.2715
   70MOL   H52639304   1.661   7.504   5.732 -0.3327  0.4698  0.2969
   70MOL   H52739305   1.768   7.580   5.914  0.0588 -0.8881 -0.5567
   70MOL   H52839306   1.991   7.662   6.009 -0.0685  1.9548 -1.2878
   70MOL   H52939307   2.300   7.586   5.909  0.9643  1.1449 -0.4687
   70MOL   H53039308   2.191   7.499   5.660  1.5441  1.3541  0.4640
   70MOL   H53139309   1.976   7.419   5.581  1.5275 -1.0192  0.4561
   70MOL   H53239310   1.536   7.496   5.842  0.9903  0.2182  0.0185
   70MOL   H53339311   1.300   7.503   5.866 -1.0745 -0.1678  0.4036
   70MOL   C53439312   2.258   7.778   5.891 -0.2862  0.8106 -0.7520
   70MOL   C53539313   2.369   7.808   5.989  0.9984 -0.2470  0.3977
   70MOL   C53639314   2.372   7.745   6.114  0.0927 -0.1413  0.0105
   70MOL   C53739315   2.466   7.778   6.208 -0.0674  0.0982  0.3978
   70MOL   C53839316   2.568   7.873   6.185  0.3209  0.1287  0.0870
   70MOL   C53939317   2.663   7.918   6.293  0.1249  0.1680  0.1249
   70MOL   N54039318   2.628   7.890   6.416 -0.5315 -0.2976 -0.2796
   70MOL   C54139319   2.708   7.915   6.532 -0.0172  0.4999  0.0934
   70MOL   C54239320   2.711   7.816   6.635  0.4990  0.4203  0.4932
   70MOL   C54339321   2.770   7.832   6.757 -0.0271  0.1556 -0.6184
   70MOL   C54439322   2.824   7.958   6.790 -0.2321 -0.3798 -0.1417
   70MOL   N54539323   2.869   7.978   6.921  0.0221  0.8448  0.4900
   70MOL   C54639324   2.827   8.057   6.695 -0.2039 -0.4113 -0.5005
   70MOL   C54739325   2.770   8.042   6.568  0.4391 -0.0228  0.2337
   70MOL   O54839326   2.767   7.972   6.263 -0.5749  0.6353 -0.1702
   70MOL   C54939327   2.575   7.927   6.051 -0.1036  0.3100  0.2111
   70MOL   C55039328   2.471   7.900   5.962 -0.3717  0.5572  0.6598
   70MOL   O55139329   2.206   7.867   5.832  0.0659 -0.4410 -0.5137
   70MOL   H55239330   2.303   7.669   6.147  3.1688 -2.2359  1.8443
   70MOL   H55339331   2.458   7.725   6.302  0.5486 -1.3197 -0.3237
   70MOL   H55439332   2.549   7.829   6.427 -1.9356  1.4234 -0.5807
   70MOL   H55539333   2.670   7.718   6.610  0.3110  0.3270  1.1677
   70MOL   H55639334   2.765   7.750   6.826  0.8810 -1.2575 -2.2123
   70MOL   H55739335   2.847   7.904   6.987  2.1588  0.1185  0.4218
   70MOL   H55839336   2.876   0.006   6.716 -1.3286  0.2888 -0.9877
   70MOL   H55939337   2.765   8.129   6.504 -0.0962 -0.4019 -0.2419
   70MOL   H56039338   2.654   7.983   6.004 -1.0589  0.1059 -1.7245
   70MOL   H56139339   2.480   7.941   5.863  0.5891 -1.1016  0.0453
   70MOL   H56239340   2.847   8.069   6.960 -3.7106 -0.5930  2.0447
   71MOL     C139341   6.313   3.979   5.626  0.0761  0.8287 -0.3800
   71MOL     C239342   6.300   4.050   5.753  0.7083 -0.0471  0.0292
   71MOL     C339343   6.168   4.067   5.807 -0.4059 -0.1972  0.2713
   71MOL     C439344   6.151   4.128   5.935  0.1795  0.9265  0.2955
   71MOL     C539345   6.263   4.178   5.999  0.3854 -0.2425  0.1339
   71MOL     C639346   6.246   4.241   6.135 -0.0677  0.3342 -0.8820
   71MOL     N739347   6.352   4.256   6.209  0.8223 -0.0614 -0.2917
   71MOL     C839348   6.369   4.326   6.331 -0.1617 -0.2594  0.5795
   71MOL     C939349   6.263   4.331   6.428  0.3611 -0.4465  0.0035
   71MOL    C1039350   6.285   4.409   6.542 -0.3701  0.3166 -0.3402
   71MOL    C1139351   6.409   4.479   6.566  0.3739  0.6227 -0.2448
   71MOL    N1239352   6.418   4.553   6.684  0.8209  0.0646  0.0061
   71MOL    C1339353   6.513   4.452   6.480 -0.1843 -0.5429 -0.2379
   71MOL    C1439354   6.494   4.385   6.358 -0.1034 -0.2982 -0.9866
   71MOL    O1539355   6.134   4.273   6.177  0.3950 -0.1555 -0.4322
   71MOL    C1639356   6.389   4.173   5.934  0.0645 -0.3630 -0.0313
   71MOL    C1739357   6.408   4.111   5.812 -0.5741  0.6411 -0.5724
   71MOL    O1839358   6.416   3.972   5.558  0.5352  0.2305 -0.6544
   71MOL    H1939359   6.077   4.028   5.764  0.3913  0.5438 -2.1292
   71MOL    H2039360   6.054   4.144   5.980 -0.5731  3.2227 -1.9949
   71MOL    H2139361   6.438   4.225   6.166  0.5854 -2.3815  0.8231
   71MOL    H2239362   6.169   4.281   6.410  0.1668 -0.6326  1.4623
   71MOL    H2339363   6.209   4.417   6.618  0.0810  0.2826  0.1161
   71MOL    H2439364   6.347   4.549   6.755 -1.8988 -1.0468 -2.7050
   71MOL    H2539365   6.612   4.489   6.499  0.1106 -1.7424  0.5958
   71MOL    H2639366   6.581   4.375   6.295  0.4920 -1.4157 -0.0211
   71MOL    H2739367   6.471   4.218   5.987  1.3502 -3.6945  0.9295
   71MOL    H2839368   6.509   4.102   5.776  0.5785 -0.6466  2.8206
   71MOL    H2939369   6.218   3.941   5.587  0.4268 -0.6061  0.1173
   71MOL    C3039370   6.492   4.665   6.704  0.6929 -0.3488  0.2897
   71MOL    C3139371   6.458   4.750   6.822  0.1369 -0.9902 -0.2594
   71MOL    C3239372   6.429   4.697   6.951 -0.9969 -0.2402  0.0108
   71MOL    C3339373   6.418   4.788   7.057  1.0989  0.4700 -0.5373
   71MOL    C3439374   6.431   4.925   7.038  0.4669 -0.2582  0.3665
   71MOL    C3539375   6.427   5.021   7.149 -0.2428  1.0017  0.8247
   71MOL    N3639376   6.415   4.966   7.273  0.2297 -0.3527 -0.3681
   71MOL    C3739377   6.430   5.030   7.398  0.5859  0.1207 -0.0331
   71MOL    C3839378   6.501   5.152   7.416 -0.3863  0.4835 -0.3153
   71MOL    C3939379   6.518   5.207   7.543  0.3613  0.0347 -0.2400
   71MOL    C4039380   6.468   5.134   7.654 -0.2221  0.3189 -0.7524
   71MOL    N4139381   6.493   5.191   7.782 -0.7037 -0.1901 -0.7401
   71MOL    C4239382   6.395   5.014   7.637  0.9299 -0.9234 -0.3060
   71MOL    C4339383   6.373   4.969   7.508 -0.4752 -0.4231 -0.2167
   71MOL    O4439384   6.425   5.144   7.126 -0.0980  0.2437  0.0586
   71MOL    C4539385   6.461   4.973   6.906 -0.3140 -0.1869  0.4830
   71MOL    C4639386   6.471   4.887   6.797 -0.1047  0.4729 -0.2874
   71MOL    O4739387   6.579   4.710   6.628 -0.8137  0.0724 -0.3215
   71MOL    H4839388   6.427   4.590   6.968  0.4196 -0.2652  0.1023
   71MOL    H4939389   6.405   4.743   7.154 -2.6541 -1.8834 -2.0416
   71MOL    H5039390   6.408   4.865   7.276 -0.3004 -0.4654 -3.3127
   71MOL    H5139391   6.545   5.207   7.334 -0.2129  0.9967  0.1218
   71MOL    H5239392   6.574   5.299   7.549  0.1674  0.1323  0.1237
   71MOL    H5339393   6.506   5.291   7.785  3.1448 -0.6287  2.5921
   71MOL    H5439394   6.355   4.961   7.722 -0.8365  0.0564 -0.5090
   71MOL    H5539395   6.328   4.873   7.488 -0.4384 -0.3383 -0.7029
   71MOL    H5639396   6.472   5.079   6.888  3.7529 -0.6471 -0.2355
   71MOL    H5739397   6.483   4.923   6.696  1.9003  0.4236 -0.0997
   71MOL    C5839398   6.502   5.132   7.904  0.2375  0.1706  0.0753
   71MOL    C5939399   6.522   5.234   8.007 -0.5452  0.0298 -0.1904
   71MOL    C6039400   6.615   5.335   7.994 -0.3442  0.5484 -0.0830
   71MOL    C6139401   6.638   5.425   8.102  1.0578  0.5054  0.3412
   71MOL    C6239402   6.574   5.402   0.085 -0.6430 -0.5389  0.4246
   71MOL    C6339403   6.624   5.482   0.202  0.1769  0.6937 -0.3728
   71MOL    N6439404   6.545   5.483   0.308 -0.2968  0.4249  0.0339
   71MOL    C6539405   6.548   5.555   0.429 -0.3617 -0.1799  0.0471
   71MOL    C6639406   6.635   5.661   0.444  0.1519 -0.9189 -0.0346
   71MOL    C6739407   6.640   5.742   0.559 -0.7514  0.1600  0.5430
   71MOL    C6839408   6.566   5.707   0.675 -0.2024 -0.6683  0.1042
   71MOL    N6939409   6.574   5.791   0.789 -0.2558  0.0840 -0.7662
   71MOL    C7039410   6.479   5.598   0.669 -0.4080 -0.5953 -0.0322
   71MOL    C7139411   6.468   5.526   0.544  0.0979  0.3998  0.4836
   71MOL    O7239412   6.728   5.549   0.199 -0.0555  0.4035  0.0349
   71MOL    C7339413   6.493   5.293   0.098  0.4096  0.5214 -0.3642
   71MOL    C7439414   6.469   5.210   8.136  0.1959 -0.0398 -0.2659
   71MOL    O7539415   6.504   5.014   7.929  0.2199  0.1858 -0.2913
   71MOL    H7639416   6.674   5.358   7.907 -0.0885 -1.5848 -0.5107
   71MOL    H7739417   6.699   5.513   8.090  1.1924  0.3066 -0.4897
   71MOL    H7839418   6.457   5.437   0.292 -0.5725  0.7898  0.4924
   71MOL    H7939419   6.702   5.705   0.371 -1.1710 -1.2718 -1.5035
   71MOL    H8039420   6.713   5.821   0.565 -0.1424 -0.2670 -1.0104
   71MOL    H8139421   6.656   5.849   0.792 -0.5629  0.4856  2.5506
   71MOL    H8239422   6.435   5.568   0.762 -0.0376  0.8881  0.6437
   71MOL    H8339423   6.396   5.446   0.541  0.4456  0.0536  1.1898
   71MOL    H8439424   6.441   5.269   0.190 -1.9277  0.5172 -1.6208
   71MOL    H8539425   6.410   5.122   0.011  0.2607 -0.1089 -0.3693
   71MOL    C8639426   6.485   5.820   0.889  0.0051 -0.7107 -0.4675
   71MOL    C8739427   6.549   5.925   0.982 -0.0471 -0.3127  0.1093
   71MOL    C8839428   6.474   5.968   1.092  0.7259  0.1917 -0.1831
   71MOL    C8939429   6.520   6.068   1.180  0.2159  0.3740 -0.1444
   71MOL    C9039430   6.642   6.132   1.153 -0.1151  0.0456 -0.1199
   71MOL    C9139431   6.690   6.259   1.219  0.8022 -0.2708  0.0155
   71MOL    N9239432   6.633   6.295   1.331 -0.0378  0.4447  0.0766
   71MOL    C9339433   6.668   6.406   1.415 -0.4769 -0.6247 -0.4728
   71MOL    C9439434   6.696   6.532   1.359 -0.3420 -0.3329  0.9641
   71MOL    C9539435   6.711   6.648   1.446  0.4632  0.6285 -0.3274
   71MOL    C9639436   6.694   6.626   1.586  0.1035 -0.4318 -0.0879
   71MOL    N9739437   6.697   6.730   1.673  0.1549 -0.1514 -0.1994
   71MOL    C9839438   6.671   6.501   1.639  0.3872  0.3822 -0.5391
   71MOL    C9939439   6.660   6.391   1.551 -0.2551 -0.6023 -0.3960
   71MOL   O10039440   6.786   6.321   1.174 -0.5989 -0.4400 -0.2182
   71MOL   C10139441   6.722   6.087   1.044 -0.1777  0.3450  0.8823
   71MOL   C10239442   6.677   5.984   0.961  0.1189  0.0418 -0.4875
   71MOL   O10339443   6.375   5.779   0.900  0.0405 -0.1079 -0.5644
   71MOL   H10439444   6.377   5.924   1.114 -0.3863  1.4569 -2.3405
   71MOL   H10539445   6.449   6.118   1.244  1.1413 -0.5791  1.6786
   71MOL   H10639446   6.569   6.226   1.366  1.0985 -1.5097 -1.5576
   71MOL   H10739447   6.711   6.536   1.253 -1.9187  0.2945  0.7502
   71MOL   H10839448   6.728   6.747   1.406 -0.0234  0.4054 -1.0905
   71MOL   H10939449   6.625   6.799   1.654 -0.9212 -1.3091 -0.3767
   71MOL   H11039450   6.652   6.489   1.744  1.6194 -0.4683 -0.4051
   71MOL   H11139451   6.653   6.293   1.596  0.5136 -0.7035 -0.4981
   71MOL   H11239452   6.820   6.126   1.018  0.3884 -2.6916 -1.9149
   71MOL   H11339453   6.745   5.946   0.886 -1.8376 -0.1897 -2.1814
   71MOL   C11439454   6.802   6.764   1.752 -0.4146 -0.3626  0.3164
   71MOL   C11539455   6.774   6.878   1.841 -0.2316 -0.9650 -0.4555
   71MOL   C11639456   6.652   6.891   1.912 -1.1370  0.0025 -0.5835
   71MOL   C11739457   6.612   7.012   1.964  0.3648  0.0023 -0.8695
   71MOL   C11839458   6.683   7.129   1.945  0.0832  0.2526 -0.0889
   71MOL   C11939459   6.612   7.260   1.966  0.4185  0.2012 -0.3907
   71MOL   N12039460   6.520   7.292   1.868 -0.0508  0.6106 -0.3778
   71MOL   C12139461   6.499   7.216   1.753  0.5396 -0.3567  0.1315
   71MOL   C12239462   6.374   7.150   1.733  0.7706  0.2144 -0.3516
   71MOL   C12339463   6.366   7.059   1.631  0.8990  0.1802  0.1653
   71MOL   C12439464   6.462   7.044   1.532  0.6900  0.3138  0.4867
   71MOL   N12539465   6.452   6.970   1.420  0.1086  0.2485 -0.2575
   71MOL   C12639466   6.581   7.115   1.544  0.0578  0.4207  0.3889
   71MOL   C12739467   6.598   7.200   1.650 -0.2462  0.2854  0.2921
   71MOL   O12839468   6.642   7.325   2.069  0.9445  0.2291 -0.3247
   71MOL   C12939469   6.814   7.120   1.891  0.3736 -0.2807  0.4838
   71MOL   C13039470   6.864   6.994   1.841 -0.1499 -0.5974 -0.3047
   71MOL   O13139471   6.907   6.693   1.758  0.0340 -0.5385 -0.3257
   71MOL   H13239472   6.583   6.808   1.924  1.5615 -2.4244 -1.2258
   71MOL   H13339473   6.516   7.021   2.012  2.0745  1.0836  2.5530
   71MOL   H13439474   6.450   7.363   1.882  1.3508  1.3814  3.4591
   71MOL   H13539475   6.285   7.159   1.793 -0.7247 -0.2222 -2.4659
   71MOL   H13639476   6.273   7.005   1.619 -0.0126  1.9341 -0.8727
   71MOL   H13739477   6.488   7.016   1.338 -0.0045  0.1151 -0.3813
   71MOL   H13839478   6.655   7.116   1.465  0.3878  0.2622  0.6981
   71MOL   H13939479   6.690   7.256   1.654 -0.1610  0.1462  0.2583
   71MOL   H14039480   6.873   7.210   1.885 -0.6623  0.3278 -0.8282
   71MOL   H14139481   6.963   6.990   1.800 -0.4024 -1.6372 -0.8342
   71MOL   C14239482   6.428   6.844   1.406  0.8486 -0.1195  0.0134
   71MOL   C14339483   6.449   6.792   1.265 -0.6328 -0.2640  0.4932
   71MOL   C14439484   6.358   6.702   1.207  0.0757  0.1207 -0.4317
   71MOL   C14539485   6.394   6.641   1.085  0.6005 -0.3412 -0.1635
   71MOL   C14639486   6.509   6.688   1.012  0.2353  0.6231  0.1331
   71MOL   C14739487   6.555   6.623   0.888  0.0346  0.2071  0.1258
   71MOL   N14839488   6.510   6.495   0.869  0.1128 -0.6332 -0.4292
   71MOL   C14939489   6.551   6.408   0.763  0.4848 -0.3304  0.0861
   71MOL   C15039490   6.596   6.272   0.786  1.1490 -0.3139 -0.1655
   71MOL   C15139491   6.645   6.193   0.682  0.7556 -0.5638  0.1678
   71MOL   C15239492   6.642   6.247   0.553  0.0440 -0.7796  0.1421
   71MOL   N15339493   6.688   6.161   0.455  0.4945 -0.3573 -0.3312
   71MOL   C15439494   6.588   6.373   0.522  0.0938  0.0069  0.4467
   71MOL   C15539495   6.546   6.458   0.629  0.0516  0.4342 -0.2698
   71MOL   O15639496   6.631   6.681   0.814 -0.0686  0.4984  0.1292
   71MOL   C15739497   6.589   6.793   1.065  0.0520  0.3333  0.0260
   71MOL   C15839498   6.561   6.831   1.194 -0.6088  0.3277 -0.7639
   71MOL   O15939499   6.370   6.778   1.498  0.2907 -0.0583  0.4420
   71MOL   H16039500   6.273   6.673   1.266  0.7130 -1.6315 -0.3314
   71MOL   H16139501   6.334   6.560   1.047  1.4477 -1.3873  0.6936
   71MOL   H16239502   6.469   6.455   0.951 -0.0958  0.7994  0.1805
   71MOL   H16339503   6.603   6.235   0.887 -0.6453 -0.7315 -0.1751
   71MOL   H16439504   6.691   6.095   0.693 -1.4372 -1.7498 -0.9943
   71MOL   H16539505   6.788   6.145   0.461 -0.1462 -4.0427  2.1059
   71MOL   H16639506   6.590   6.415   0.423 -1.3863 -2.9183 -0.8555
   71MOL   H16739507   6.510   6.558   0.607 -0.6348  0.4054  0.7255
   71MOL   H16839508   6.681   6.826   1.017  0.2535 -0.8491 -0.4144
   71MOL   H16939509   6.630   6.901   1.238 -0.6223 -0.7074  0.9566
   71MOL   C17039510   6.631   6.117   0.342  0.2953  0.3071  0.5366
   71MOL   C17139511   6.730   6.052   0.253 -0.7117 -0.1691 -0.1327
   71MOL   C17239512   6.695   5.928   0.191  0.2829  0.4534  0.1937
   71MOL   C17339513   6.786   5.861   0.104 -0.1729  0.1518  0.0447
   71MOL   C17439514   6.913   5.914   0.079  0.2433  0.1738 -0.0363
   71MOL   C17539515   7.020   5.831   0.006  0.3517  0.0754  0.4038
   71MOL   N17639516   6.969   5.752   8.053  0.0039 -0.0528  0.0082
   71MOL   C17739517   7.040   5.664   7.962  0.2994  0.3824 -0.5439
   71MOL   C17839518   6.960   5.562   7.904 -0.3033 -0.4534  0.0325
   71MOL   C17939519   7.011   5.467   7.812 -0.1229  0.0694  0.2704
   71MOL   C18039520   7.150   5.473   7.792 -0.7927 -0.2634  0.2012
   71MOL   N18139521   7.208   5.376   7.704 -0.8160 -0.8362 -0.5446
   71MOL   C18239522   7.234   5.576   7.846  0.2023  0.0179  0.2229
   71MOL   C18339523   7.176   5.662   7.938  0.9080  0.4687  0.1459
   71MOL   O18439524   7.136   5.831   0.043  0.3789  0.2862 -0.4934
   71MOL   C18539525   6.949   6.034   0.146 -0.3817 -0.0591 -0.3833
   71MOL   C18639526   6.855   6.108   0.224  0.3725  0.3210  0.5184
   71MOL   O18739527   6.510   6.108   0.321  0.3657 -0.1305 -0.2303
   71MOL   H18839528   6.595   5.888   0.201  1.3069 -2.4849 -0.6505
   71MOL   H18939529   6.755   5.764   0.069 -1.1821  0.6173 -0.3758
   71MOL   H19039530   6.872   5.771   8.031 -0.2944 -0.4628  0.9373
   71MOL   H19139531   6.857   5.562   7.936 -0.0415  0.2830  0.8814
   71MOL   H19239532   6.938   5.410   7.757  1.1185 -0.2246 -1.1155
   71MOL   H19339533   7.163   5.286   7.695  1.4560 -1.8304 -2.5806
   71MOL   H19439534   7.342   5.570   7.837  0.1615  0.1877 -0.4107
   71MOL   H19539535   7.228   5.744   7.984 -0.4621  1.2054  0.4097
   71MOL   H19639536   7.052   6.066   0.140 -1.1250  2.8434  1.3496
   71MOL   H19739537   6.898   6.192   0.276  1.7852  0.1764 -0.3853
   71MOL   C19839538   7.314   5.379   7.626  0.3733 -0.1768 -0.8009
   71MOL   C19939539   7.356   5.261   7.546  0.7527 -0.1781 -0.5792
   71MOL   C20039540   7.484   5.218   7.541  0.3719  0.3502 -0.2455
   71MOL   C20139541   7.511   5.103   7.462  0.5901 -0.3107 -0.1765
   71MOL   C20239542   7.414   5.034   7.395 -0.2150  0.0102  0.2182
   71MOL   C20339543   7.450   4.903   7.336 -1.0593 -0.7636  0.1088
   71MOL   N20439544   7.425   4.890   7.203 -0.6032 -0.0450  0.0558
   71MOL   C20539545   7.455   4.778   7.120  0.0190  0.1011  0.1031
   71MOL   C20639546   7.439   4.810   6.982 -0.5146  0.0289 -0.2811
   71MOL   C20739547   7.452   4.711   6.880  0.2588  0.0557 -0.0486
   71MOL   C20839548   7.480   4.579   6.925 -0.2504  0.3576 -0.4376
   71MOL   N20939549   7.474   4.467   6.841  0.1908  0.7459  1.0430
   71MOL   C21039550   7.494   4.551   7.065  0.5510  0.4917  0.2060
   71MOL   C21139551   7.486   4.650   7.165  0.2600 -0.0816  0.5380
   71MOL   O21239552   7.514   4.824   7.408 -0.1159 -0.1435  0.0538
   71MOL   C21339553   7.281   5.083   7.392 -0.1039  0.0027 -0.0663
   71MOL   C21439554   7.259   5.197   7.470  0.0903 -0.1143  0.4144
   71MOL   O21539555   7.382   5.481   7.620 -0.3155  0.1537  0.5707
   71MOL   H21639556   7.560   5.283   7.583  1.3544  0.5647 -2.2880
   71MOL   H21739557   7.613   5.067   7.451  1.2548  1.9490 -1.6935
   71MOL   H21839558   7.385   4.974   7.164 -0.1166 -0.2378 -0.8727
   71MOL   H21939559   7.406   4.909   6.955 -0.9162  0.6534  2.3818
   71MOL   H22039560   7.440   4.735   6.775  0.2077  0.9188  0.1487
   71MOL   H22139561   7.386   4.447   6.797  1.5108  0.7053 -1.7154
   71MOL   H22239562   7.505   4.448   7.093 -3.7273 -0.7007 -2.0203
   71MOL   H22339563   7.504   4.622   7.268 -0.4987  0.9846  0.9822
   71MOL   H22439564   7.201   5.034   7.339 -1.1464  0.3406  1.1773
   71MOL   H22539565   7.164   5.248   7.472  0.5508  0.7963 -0.4027
   71MOL   C22639566   7.588   4.397   6.793  0.3329  0.4876 -0.2304
   71MOL   C22739567   7.557   4.281   6.695 -0.2473  0.1369 -0.4976
   71MOL   C22839568   7.439   4.206   6.704 -0.2330  0.4288  0.6933
   71MOL   C22939569   7.407   4.110   6.607 -0.3809  0.5541 -0.3889
   71MOL   C23039570   7.506   4.077   6.503  0.0012 -0.7474  0.5098
   71MOL   C23139571   7.471   3.997   6.381  0.1171  0.8295  1.3801
   71MOL   N23239572   7.533   4.034   6.269 -0.0515 -0.7050  0.6448
   71MOL   C23339573   7.493   4.019   6.138  0.2838  0.6762 -0.0243
   71MOL   C23439574   7.596   4.023   6.045  0.1375 -1.0720 -0.2445
   71MOL   C23539575   7.571   4.028   5.910 -0.0344  0.1300 -0.3570
   71MOL   C23639576   7.436   4.025   5.869 -0.6334  0.4890  0.3621
   71MOL   N23739577   7.401   4.050   5.732 -0.2079  0.5771 -0.4258
   71MOL   C23839578   7.332   4.014   5.958  0.2429  1.0220  0.2212
   71MOL   C23939579   7.356   4.007   6.097 -0.0383 -0.5637 -0.4741
   71MOL   O24039580   7.385   3.909   6.379  0.7171  0.1002 -0.0009
   71MOL   C24139581   7.635   4.135   6.518  0.6731 -0.9167 -0.0704
   71MOL   C24239582   7.663   4.233   6.615  0.3079 -0.0755  0.6247
   71MOL   O24339583   7.700   4.427   6.832 -0.0433 -0.4972  0.0962
   71MOL   H24439584   7.367   4.227   6.781  0.2099  0.6967  1.0344
   71MOL   H24539585   7.314   4.055   6.608 -0.3612  0.5224  0.6838
   71MOL   H24639586   7.618   4.088   6.274 -1.4251  1.4123  1.9648
   71MOL   H24739587   7.698   4.028   6.079 -0.3557 -0.3259  1.1920
   71MOL   H24839588   7.651   4.036   5.838  1.2714 -0.3120  1.0187
   71MOL   H24939589   7.465   4.110   5.681  0.7498  0.9873  1.2193
   71MOL   H25039590   7.230   4.012   5.922  0.1878  3.7174  0.1733
   71MOL   H25139591   7.275   4.001   6.168 -1.3091 -1.2230 -1.9372
   71MOL   H25239592   7.704   4.107   6.440 -0.1569 -0.9148 -0.8157
   71MOL   H25339593   7.763   4.274   6.624  0.8281 -0.8181 -1.4754
   71MOL   C25439594   7.300   3.993   5.660 -0.2985 -0.1760  1.0286
   71MOL   C25539595   7.305   4.033   5.515  0.0495  0.0398  0.7280
   71MOL   C25639596   7.426   4.043   5.443  0.0107 -0.0809  0.0777
   71MOL   C25739597   7.423   4.087   5.311 -0.5315  0.8151  0.0037
   71MOL   C25839598   7.300   4.125   5.247  0.4030  0.1528 -0.3336
   71MOL   C25939599   7.300   4.168   5.107 -0.2544  0.5399  0.2675
   71MOL   N26039600   7.390   4.267   5.084  0.3371  0.1616  0.6886
   71MOL   C26139601   7.484   4.277   4.984 -0.4531 -1.0278  0.1749
   71MOL   C26239602   7.512   4.182   4.886 -0.0595  0.3010 -0.5504
   71MOL   C26339603   7.613   4.205   4.792  0.5933 -0.6545 -0.6392
   71MOL   C26439604   7.676   4.332   4.797  0.1616 -0.4691  0.0403
   71MOL   N26539605   7.775   4.357   4.697 -0.0830 -0.0858  0.0170
   71MOL   C26639606   7.650   4.425   4.898  0.1843 -0.1805  0.6620
   71MOL   C26739607   7.545   4.404   4.984 -0.4894  0.9951 -0.1295
   71MOL   O26839608   7.236   4.109   5.024 -0.3129  0.1368  0.4355
   71MOL   C26939609   7.177   4.114   5.319 -0.3719  0.2491 -0.0690
   71MOL   C27039610   7.178   4.062   5.452 -0.1790  0.1338 -0.7352
   71MOL   O27139611   7.222   3.907   5.701 -0.2537  0.4313 -0.4338
   71MOL   H27239612   7.522   4.016   5.483  0.5751  1.0018 -0.5100
   71MOL   H27339613   7.514   4.112   5.259 -0.2123 -2.6091 -1.2051
   71MOL   H27439614   7.417   4.314   5.169  0.2083  0.4765  0.5542
   71MOL   H27539615   7.460   4.088   4.887  0.9425 -0.2929  2.6161
   71MOL   H27639616   7.606   4.141   4.705 -1.7890 -0.5280 -0.5581
   71MOL   H27739617   7.820   4.447   4.702 -0.5168  0.1551 -0.4119
   71MOL   H27839618   7.705   4.518   4.903 -0.2678  0.1478 -0.3356
   71MOL   H27939619   7.517   4.469   5.066  1.4360  0.6676  0.8116
   71MOL   H28039620   7.087   4.144   5.268 -0.4826  2.5712  1.4529
   71MOL   H28139621   7.093   4.054   5.519  0.9710  1.3405  0.9324
   71MOL   C28239622   7.832   4.284   4.604  0.2076  0.4806 -0.3350
   71MOL   C28339623   7.950   4.358   4.547  0.0177  0.4844  0.2130
   71MOL   C28439624   7.996   4.344   4.413  0.3704  0.3284  0.7746
   71MOL   C28539625   8.091   4.432   4.358  0.4910  0.0938 -0.2985
   71MOL   C28639626   8.145   4.532   4.438  0.3608 -0.0737 -0.5538
   71MOL   C28739627   0.108   4.620   4.378 -0.6926  0.4312 -0.8067
   71MOL   N28839628   0.113   4.746   4.424  0.0521 -0.4747 -0.3300
   71MOL   C28939629   0.012   4.821   4.479  0.4006 -0.1043  0.3369
   71MOL   C29039630   0.045   4.921   4.573 -0.6370  0.2049  0.3262
   71MOL   C29139631   8.090   5.004   4.624  0.1797  0.2491  0.4432
   71MOL   C29239632   7.953   4.989   4.579 -0.5399 -0.2220 -0.5350
   71MOL   N29339633   7.851   5.069   4.630 -0.1597 -0.2662  0.2888
   71MOL   C29439634   7.922   4.883   4.491 -0.1968 -0.8848  0.0110
   71MOL   C29539635   8.026   4.806   4.437  0.6613 -0.1104  0.1319
   71MOL   O29639636   0.176   4.579   4.285  0.1468 -0.5247 -0.1108
   71MOL   C29739637   8.115   4.537   4.576  0.0191  0.3444  0.0002
   71MOL   C29839638   8.021   4.447   4.631  1.1425 -0.2509  0.1539
   71MOL   O29939639   7.800   4.165   4.561  0.5060 -0.1509 -0.2307
   71MOL   H30039640   7.963   4.267   4.345  1.0589  0.6334  0.0792
   71MOL   H30139641   8.128   4.421   4.257 -0.8493  0.4627 -0.8379
   71MOL   H30239642   0.195   4.802   4.405 -0.8041 -0.3681 -4.1526
   71MOL   H30339643   0.148   4.928   4.608 -0.8714  1.4267  0.7949
   71MOL   H30439644   8.121   5.067   4.706 -2.0238 -0.5724  1.9397
   71MOL   H30539645   7.760   5.025   4.632 -1.0314  1.4776 -0.3211
   71MOL   H30639646   7.820   4.866   4.458 -0.9376  0.0545  1.7037
   71MOL   H30739647   7.995   4.730   4.367 -2.1481  0.9031  0.2244
   71MOL   H30839648   0.014   4.602   4.650 -1.1442  0.4403  0.6264
   71MOL   H30939649   8.001   4.448   4.737 -0.5022  0.7739 -0.1425
   71MOL   C31039650   7.862   5.189   4.695  0.3303 -0.7351  0.1640
   71MOL   C31139651   7.746   5.233   4.774 -0.1794  0.3791  0.9746
   71MOL   C31239652   7.770   5.302   4.891  0.4335 -0.3563 -0.2691
   71MOL   C31339653   7.662   5.335   4.971  0.3954 -0.0241 -0.5615
   71MOL   C31439654   7.526   5.323   4.923 -0.1744 -0.4674 -0.0372
   71MOL   C31539655   7.423   5.393   5.005  0.1490  0.6565  0.6411
   71MOL   N31639656   7.367   5.488   4.927 -0.1013 -0.0699  0.1182
   71MOL   C31739657   7.275   5.592   4.967  0.3053 -0.8808 -0.3301
   71MOL   C31839658   7.201   5.666   4.872  0.4302  0.0909 -0.4844
   71MOL   C31939659   7.114   5.770   4.908 -0.4142  0.2159 -0.3225
   71MOL   C32039660   7.103   5.800   5.043 -0.2930 -1.1601  0.2451
   71MOL   N32139661   7.033   5.916   5.065  0.3904  0.0438  0.3216
   71MOL   C32239662   7.176   5.726   5.141 -0.5350 -0.5414  0.6254
   71MOL   C32339663   7.257   5.619   5.103  0.3599  0.7526  0.4616
   71MOL   O32439664   7.402   5.370   5.124 -0.0756  0.0202  0.0007
   71MOL   C32539665   7.505   5.268   4.796 -0.4764  0.2252  0.5021
   71MOL   C32639666   7.614   5.215   4.725  0.0626  0.5350 -0.0186
   71MOL   O32739667   7.959   5.269   4.680 -0.0697  0.5223  0.2730
   71MOL   H32839668   7.869   5.322   4.930  0.1660  0.7566 -0.1700
   71MOL   H32939669   7.678   5.363   5.074 -0.9028  2.3398 -0.9472
   71MOL   H33039670   7.410   5.482   4.836  0.1063 -0.5118  0.2466
   71MOL   H33139671   7.223   5.656   4.767  0.4956  2.9580 -0.7998
   71MOL   H33239672   7.067   5.830   4.831  0.5666 -1.4768 -2.3032
   71MOL   H33339673   7.022   5.971   4.981 -1.9381  0.2745  0.7255
   71MOL   H33439674   7.169   5.743   5.247 -0.9186  0.3860  0.4535
   71MOL   H33539675   7.307   5.572   5.186 -0.5502 -2.8792 -0.9324
   71MOL   H33639676   7.404   5.252   4.763 -0.1587 -0.5244 -0.1155
   71MOL   H33739677   7.596   5.183   4.624 -1.6587  1.8905 -0.1463
   71MOL   C33839678   6.993   5.963   5.184 -1.0962  0.2885 -0.3111
   71MOL   C33939679   6.946   6.106   5.175  0.0643 -0.7174 -0.2277
   71MOL   C34039680   6.840   6.149   5.257  0.8789  0.0612  0.2401
   71MOL   C34139681   6.784   6.279   5.248 -0.9425 -0.4159  0.4032
   71MOL   C34239682   6.845   6.370   5.155 -0.3591 -0.4817  0.5979
   71MOL   C34339683   6.782   6.509   5.141 -0.2292 -0.2418  0.0947
   71MOL   N34439684   6.733   6.560   5.256  0.2647 -0.1712 -0.0371
   71MOL   C34539685   6.666   6.681   5.280 -0.1524 -0.2405 -0.0834
   71MOL   C34639686   6.586   6.700   5.398  0.1528 -0.3770 -0.0577
   71MOL   C34739687   6.510   6.812   5.430 -0.6763  0.3381 -0.0429
   71MOL   C34839688   6.518   6.918   5.344 -0.1931 -0.7174 -0.0125
   71MOL   N34939689   6.456   7.045   5.380 -0.9529  0.1757 -0.3082
   71MOL   C35039690   6.584   6.902   5.220  0.4341  0.0594 -0.4794
   71MOL   C35139691   6.659   6.788   5.191  0.1352 -0.4473 -0.6981
   71MOL   O35239692   6.788   6.571   5.033  0.3076  0.2864 -0.2797
   71MOL   C35339693   6.947   6.329   5.072  0.1925  0.6020  0.6730
   71MOL   C35439694   7.001   6.197   5.082  1.0443 -0.1546 -0.1854
   71MOL   O35539695   6.995   5.898   5.290  0.5992  0.5230 -0.1704
   71MOL   H35639696   6.790   6.084   5.328  0.1225 -0.1295 -0.4643
   71MOL   H35739697   6.696   6.296   5.309 -0.8707 -1.5422  0.8467
   71MOL   H35839698   6.753   6.502   5.337  3.2676  1.1376  0.2215
   71MOL   H35939699   6.579   6.626   5.477  0.1586 -0.8498 -0.4959
   71MOL   H36039700   6.451   6.812   5.521 -1.8602 -0.6504 -0.7858
   71MOL   H36139701   6.429   7.052   5.477  1.7722  0.7453  0.4547
   71MOL   H36239702   6.577   6.974   5.140  0.2404  1.4577  0.7704
   71MOL   H36339703   6.711   6.787   5.096  0.6565  0.5763 -0.4235
   71MOL   H36439704   6.985   6.399   4.999 -0.8440  0.8181  0.3279
   71MOL   H36539705   7.078   6.162   5.015 -0.0219 -1.3175 -0.8179
   71MOL   C36639706   6.416   7.144   5.291 -0.9832 -0.5065 -0.0926
   71MOL   C36739707   6.355   7.270   5.356 -0.6515  0.3295 -0.8740
   71MOL   C36839708   6.391   7.303   5.488 -0.5032  0.1204 -0.2224
   71MOL   C36939709   6.349   7.424   5.544  0.0918  0.1252  0.4488
   71MOL   C37039710   6.273   7.512   5.469 -0.2151 -0.4119 -0.0640
   71MOL   C37139711   6.222   7.641   5.535  0.0570 -0.9195  0.3293
   71MOL   N37239712   6.143   7.717   5.455 -0.5979  0.3893  0.6000
   71MOL   C37339713   6.117   7.857   5.469  0.5512 -0.3527  0.0728
   71MOL   C37439714   6.173   7.934   5.568  0.1433 -0.0824 -0.6975
   71MOL   C37539715   6.156   8.073   5.563  0.2868 -0.4609 -0.4221
   71MOL   C37639716   6.069   8.134   5.471 -0.2329  0.4332 -0.8419
   71MOL   N37739717   6.039   0.129   5.477 -0.0029 -0.3282  0.1781
   71MOL   C37839718   6.011   8.056   5.373 -0.1978  0.6025 -0.0997
   71MOL   C37939719   6.033   7.917   5.371 -0.6291 -0.2165 -0.3875
   71MOL   O38039720   6.238   7.652   5.654 -0.1708 -0.1733  0.3797
   71MOL   C38139721   6.241   7.479   5.333  0.0686  0.1843 -0.3251
   71MOL   C38239722   6.285   7.363   5.273  0.0605  0.1270  0.1397
   71MOL   O38339723   6.417   7.134   5.170  0.0690  0.2877  0.0611
   71MOL   H38439724   6.465   7.252   5.546 -0.9686 -0.1089  0.1718
   71MOL   H38539725   6.373   7.442   5.648  0.7218  0.8782  0.1737
   71MOL   H38639726   6.109   7.680   5.368 -1.9421  2.8746  0.0169
   71MOL   H38739727   6.253   7.901   5.633 -0.1204 -0.2883 -0.4751
   71MOL   H38839728   6.195   8.140   5.638  0.1054 -0.3433 -0.4323
   71MOL   H38939729   6.043   0.182   5.391 -1.8668  1.2612  1.0276
   71MOL   H39039730   5.958   8.096   5.288  0.2556  0.3947 -0.4844
   71MOL   H39139731   6.004   7.848   5.293 -1.9022  0.0281 -0.1465
   71MOL   H39239732   6.186   7.548   5.270  0.2532 -1.3555 -2.2026
   71MOL   H39339733   6.249   7.337   5.174 -3.4161 -0.5779  1.5163
   71MOL   C39439734   5.951   0.182   5.572 -0.2716  0.6386 -0.0737
   71MOL   C39539735   5.929   0.329   5.555  0.2101 -0.0914  0.6008
   71MOL   C39639736   6.021   0.414   5.493 -0.0416  0.1081 -0.4589
   71MOL   C39739737   6.005   0.559   5.489  0.2538  0.3462  0.3337
   71MOL   C39839738   5.895   0.618   5.559  0.1300 -0.0540 -0.2588
   71MOL   C39939739   5.879   0.765   5.556  0.2204 -0.9154  0.6391
   71MOL   N40039740   5.824   0.817   5.665  0.5748  0.9224  0.2711
   71MOL   C40139741   5.806   0.958   5.698  0.4583  0.1442  0.4865
   71MOL   C40239742   5.755   0.989   5.826  0.2844 -0.2655  0.3267
   71MOL   C40339743   5.732   1.119   5.862  0.0172 -0.5560  0.3312
   71MOL   C40439744   5.749   1.227   5.772  0.6098  0.5626 -0.3375
   71MOL   N40539745   5.723   1.361   5.808 -0.2849 -0.4770 -0.0645
   71MOL   C40639746   5.768   1.194   5.635 -0.1738 -0.5296  0.2589
   71MOL   C40739747   5.808   1.062   5.604  0.6628 -0.6085  0.1999
   71MOL   O40839748   5.902   0.823   5.447  0.3057 -0.4497  0.0808
   71MOL   C40939749   5.812   0.531   5.621  0.8251  0.3746  0.2169
   71MOL   C41039750   5.818   0.394   5.619 -0.0837 -0.5099 -0.4182
   71MOL   O41139751   5.908   0.115   5.668  0.1501 -0.0843 -0.6076
   71MOL   H41239752   6.104   0.370   5.441  1.7899  2.0106  0.7790
   71MOL   H41339753   6.075   0.617   5.431  1.9218 -1.4692  0.4794
   71MOL   H41439754   5.803   0.755   5.742  2.9237  2.6153  2.3437
   71MOL   H41539755   5.744   0.909   5.898 -0.4181 -1.0025 -0.5914
   71MOL   H41639756   5.695   1.138   5.961 -2.3722 -2.9409 -0.0478
   71MOL   H41739757   5.690   1.419   5.733  0.2331 -1.0053 -0.7096
   71MOL   H41839758   5.772   1.271   5.560  0.5570 -0.9683 -0.1557
   71MOL   H41939759   5.832   1.033   5.503  2.8125 -1.9444  1.0661
   71MOL   H42039760   5.718   0.571   5.657 -1.2197 -3.2155 -0.8405
   71MOL   H42139761   5.739   0.331   5.657  0.5277 -0.5909  0.7237
   71MOL   C42239762   5.727   1.425   5.921 -0.0439  0.3544 -0.5687
   71MOL   C42339763   5.692   1.579   5.909 -0.9150  0.0964 -0.0068
   71MOL   C42439764   5.604   1.641   6.002  0.3884  0.6310  0.5397
   71MOL   C42539765   5.577   1.782   5.998  0.3488 -0.3059 -0.0691
   71MOL   C42639766   5.644   1.860   5.903  0.2282  0.1030 -0.1367
   71MOL   C42739767   5.625   2.003   5.900 -0.3042 -0.1277 -0.4610
   71MOL   N42839768   5.613   2.074   5.783  0.0274  0.2955  0.2490
   71MOL   C42939769   5.594   2.019   5.651  0.7318 -0.9708 -0.1438
   71MOL   C43039770   5.493   1.929   5.619 -0.4515  0.2864  0.8045
   71MOL   C43139771   5.475   1.889   5.487 -1.1040  0.0651 -0.0278
   71MOL   C43239772   5.556   1.936   5.382 -0.2528  0.5379 -0.2464
   71MOL   N43339773   5.540   1.890   5.244 -0.3212  0.0978 -0.4177
   71MOL   C43439774   5.662   2.021   5.419  0.1961 -0.0143  0.1728
   71MOL   C43539775   5.676   2.072   5.547  0.0878  0.1330 -0.0265
   71MOL   O43639776   5.600   2.059   6.006 -0.3063 -0.0839  0.5264
   71MOL   C43739777   5.738   1.798   5.813 -0.2709  0.1196 -0.6935
   71MOL   C43839778   5.753   1.657   5.810 -0.5571 -0.2926  0.0373
   71MOL   O43939779   5.755   1.375   6.031 -0.0739  0.2493 -0.2675
   71MOL   H44039780   5.555   1.577   6.074  1.0701 -0.7578 -0.1939
   71MOL   H44139781   5.505   1.822   6.068  1.1168  1.1563 -0.0822
   71MOL   H44239782   5.607   2.174   5.788  3.2192  0.7722 -3.2674
   71MOL   H44339783   5.438   1.888   5.702 -2.2412 -0.3195 -0.6135
   71MOL   H44439784   5.393   1.823   5.465 -0.3539 -0.3705 -1.5504
   71MOL   H44539785   5.622   1.874   5.188  0.7140 -0.3813  1.1782
   71MOL   H44639786   5.727   2.049   5.337  1.8928  1.0345  1.8403
   71MOL   H44739787   5.748   2.153   5.556  1.6531 -0.9677 -2.1677
   71MOL   H44839788   5.797   1.855   5.744 -1.3586 -0.2584 -1.9726
   71MOL   H44939789   5.813   1.612   5.732 -1.2338  0.3445 -0.8598
   71MOL   C45039790   5.426   1.847   5.187 -0.2691  0.1148 -0.2506
   71MOL   C45139791   5.458   1.782   5.054  0.3669 -0.2787 -0.4194
   71MOL   C45239792   5.361   1.687   5.009  0.4223  0.4856  0.0207
   71MOL   C45339793   5.395   1.605   4.900 -0.0375  0.7335 -0.0629
   71MOL   C45439794   5.524   1.602   4.840  0.7471 -0.8635 -0.4135
   71MOL   C45539795   5.572   1.490   4.754  0.4587  0.7484  0.0445
   71MOL   N45639796   5.499   1.379   4.755 -0.2705 -0.5014  0.7584
   71MOL   C45739797   5.513   1.263   4.674 -0.1332 -0.2520  0.0291
   71MOL   C45839798   5.640   1.213   4.633  0.1414  0.4301 -0.0437
   71MOL   C45939799   5.641   1.103   4.550  0.3730  0.3135 -0.1196
   71MOL   C46039800   5.522   1.028   4.519 -0.2772  0.2491  0.0733
   71MOL   N46139801   5.537   0.921   4.428 -0.1641  0.2294  0.7941
   71MOL   C46239802   5.397   1.079   4.557  0.0104 -0.7007  0.1412
   71MOL   C46339803   5.393   1.198   4.632  0.3559 -0.2346  0.1169
   71MOL   O46439804   5.677   1.505   4.685 -0.3313  0.2886  0.8691
   71MOL   C46539805   5.617   1.693   4.889 -0.3897 -0.7900  0.4386
   71MOL   C46639806   5.584   1.789   4.983 -0.1788 -0.1127 -0.2180
   71MOL   O46739807   5.313   1.859   5.234  0.4874 -0.1810 -0.6833
   71MOL   H46839808   5.273   1.670   5.070  0.7317 -0.5692  0.1748
   71MOL   H46939809   5.323   1.528   4.877  2.2552 -0.1632 -4.8823
   71MOL   H47039810   5.410   1.386   4.802 -0.3905  2.5648  0.1956
   71MOL   H47139811   5.731   1.259   4.667  0.4952  0.0433 -0.4710
   71MOL   H47239812   5.726   1.059   4.501  0.6929 -0.1479  0.8340
   71MOL   H47339813   5.599   0.934   4.350  0.4100 -0.4298  1.1313
   71MOL   H47439814   5.307   1.034   4.518 -0.7190  2.6812 -2.2731
   71MOL   H47539815   5.292   1.225   4.660  0.7576 -0.2424  1.6345
   71MOL   H47639816   5.715   1.696   4.845 -1.3587  1.6080 -1.6627
   71MOL   H47739817   5.662   1.856   5.015  0.2072  1.0134 -3.3725
   71MOL   C47839818   5.451   0.831   4.385  0.0984 -0.1580  0.4057
   71MOL   C47939819   5.477   0.789   4.246 -0.1992  0.1404 -0.1724
   71MOL   C48039820   5.509   0.655   4.207 -0.0711 -0.1707  0.8144
   71MOL   C48139821   5.548   0.630   4.074 -0.1901  0.7110 -0.1033
   71MOL   C48239822   5.558   0.730   3.981 -0.2014  0.5441 -0.1589
   71MOL   C48339823   5.623   0.695   3.848 -0.2734 -0.0844 -0.0736
   71MOL   N48439824   5.690   0.800   3.794  0.1076 -0.3149 -0.1020
   71MOL   C48539825   5.780   0.809   3.691  0.3521 -0.3786  0.9526
   71MOL   C48639826   5.878   0.908   3.704 -0.1518  1.0535 -0.0598
   71MOL   C48739827   5.966   0.935   3.599 -0.0517 -0.0962 -0.0642
   71MOL   C48839828   5.974   0.841   3.494 -0.1863 -0.0023  0.5664
   71MOL   N48939829   6.073   0.859   3.398  0.1243 -0.1503  0.1047
   71MOL   C49039830   5.871   0.748   3.471  0.6593 -0.1273 -0.7153
   71MOL   C49139831   5.768   0.729   3.575  0.0818 -0.1809 -0.8414
   71MOL   O49239832   5.632   0.581   3.797  0.1131 -0.2126 -0.2480
   71MOL   C49339833   5.515   0.858   4.017 -0.4387  0.1844 -0.1949
   71MOL   C49439834   5.479   0.889   4.146  0.4604 -0.4113 -0.0479
   71MOL   O49539835   5.361   0.776   4.452  0.0346 -0.5724  0.1114
   71MOL   H49639836   5.506   0.576   4.280 -2.3134  0.3907  1.3595
   71MOL   H49739837   5.576   0.528   4.054 -0.6449  0.5415  0.1326
   71MOL   H49839838   5.687   0.881   3.855 -0.5752 -2.8087  3.3445
   71MOL   H49939839   5.883   0.963   3.797 -0.6307 -1.4819  1.5049
   71MOL   H50039840   6.028   1.021   3.618 -1.9230  0.9532  1.5002
   71MOL   H50139841   6.119   0.948   3.407  0.3544 -0.3760  1.2469
   71MOL   H50239842   5.856   0.679   3.389 -1.8508 -1.1534  0.5167
   71MOL   H50339843   5.680   0.666   3.567 -0.3932  0.7951 -3.9534
   71MOL   H50439844   5.506   0.944   3.951 -1.8329  0.3906  0.2398
   71MOL   H50539845   5.422   0.979   4.165 -0.6256 -0.6143 -2.1453
   71MOL   C50639846   6.123   0.782   3.294 -0.5960 -0.2809  0.7296
   71MOL   C50739847   6.258   0.825   3.228 -0.2587 -0.0186  0.3401
   71MOL   C50839848   6.297   0.780   3.099 -0.3850 -0.1330 -0.1063
   71MOL   C50939849   6.407   0.838   3.035 -0.6306 -0.7056  0.5565
   71MOL   C51039850   6.494   0.918   3.106 -0.1352 -0.1972  0.5722
   71MOL   C51139851   6.617   0.977   3.028  0.9704 -0.2403  0.0699
   71MOL   N51239852   6.722   1.023   3.108  0.1056  0.7272 -0.1144
   71MOL   C51339853   6.858   1.038   3.076 -0.5519  0.3576 -0.7909
   71MOL   C51439854   6.907   1.097   2.962  0.0601  0.4253  0.1754
   71MOL   C51539855   7.043   1.107   2.932  0.4743  0.4251 -0.6452
   71MOL   C51639856   7.136   1.051   3.022  0.4409  0.3566 -0.7930
   71MOL   N51739857   7.269   1.052   2.985  0.0853  0.2778  0.2549
   71MOL   C51839858   7.087   0.992   3.138  0.5861  0.4282  0.1025
   71MOL   C51939859   6.951   0.993   3.176 -0.2542  0.3156 -0.1917
   71MOL   O52039860   6.631   0.963   2.905 -0.3147  0.0182 -0.2039
   71MOL   C52139861   6.463   0.952   3.235  0.1528 -0.0779  0.4136
   71MOL   C52239862   6.346   0.909   3.298 -0.4620  0.0968 -0.3255
   71MOL   O52339863   6.058   0.687   3.244  0.4046 -0.5377  0.0886
   71MOL   H52439864   6.236   0.705   3.049 -1.7634  1.6615 -1.1860
   71MOL   H52539865   6.435   0.816   2.933  0.5140  2.5288  0.0827
   71MOL   H52639866   6.710   1.032   3.208 -2.3534  0.4706 -0.3614
   71MOL   H52739867   6.840   1.149   2.896  1.0027  0.9641 -0.3758
   71MOL   H52839868   7.084   1.160   2.848 -0.3251  0.5771 -0.9423
   71MOL   H52939869   7.281   1.074   2.887  2.7486  1.4046  0.7985
   71MOL   H53039870   7.152   0.936   3.203 -1.0205 -1.0886  0.4435
   71MOL   H53139871   6.919   0.939   3.264 -2.1590  4.2360  1.6464
   71MOL   H53239872   6.524   1.020   3.292  1.5685 -2.1448  1.4345
   71MOL   H53339873   6.316   0.939   3.398 -0.4909  1.6118 -0.7907
   71MOL   C53439874   7.377   1.021   3.061 -0.5399 -0.3830 -0.2596
   71MOL   C53539875   7.512   1.050   3.000 -0.2927 -0.4714 -0.0046
   71MOL   C53639876   7.531   1.071   2.858  0.6075  0.7394  0.4897
   71MOL   C53739877   7.650   1.107   2.800 -0.4845 -1.3086 -0.2924
   71MOL   C53839878   7.763   1.119   2.887  0.2594 -0.4735  0.2728
   71MOL   C53939879   7.894   1.162   2.824  0.2392  0.1193 -0.1980
   71MOL   N54039880   7.969   1.061   2.778 -0.0327  0.0279  0.4916
   71MOL   C54139881   8.100   1.054   2.722  0.1784  0.6102 -0.5177
   71MOL   C54239882   8.144   0.923   2.691  0.2709 -0.2238  0.0075
   71MOL   C54339883   0.130   0.906   2.637  0.7711 -0.2080  0.1608
   71MOL   C54439884   0.222   1.008   2.640  0.4503 -0.3567  0.0702
   71MOL   N54539885   0.354   0.980   2.613  0.0812 -0.4305  0.0279
   71MOL   C54639886   0.178   1.138   2.674 -0.4735  0.6862  0.2155
   71MOL   C54739887   0.045   1.168   2.711  1.1068 -0.2357  0.1475
   71MOL   O54839888   7.933   1.277   2.832 -0.2917 -0.4325 -0.0346
   71MOL   C54939889   7.751   1.093   3.024  0.0854 -0.1954  0.1394
   71MOL   C55039890   7.627   1.066   3.077  0.1825  0.2959 -0.3776
   71MOL   O55139891   7.376   0.987   3.176 -0.1439 -0.2088 -0.1293
   71MOL   H55239892   7.449   1.051   2.791  0.3523 -1.9498  1.5275
   71MOL   H55339893   7.649   1.121   2.693 -0.7681  1.5881  0.0588
   71MOL   H55439894   7.911   0.978   2.781 -2.3594  1.6561  3.9135
   71MOL   H55539895   8.073   0.842   2.704  0.6027 -0.3488  1.1149
   71MOL   H55639896   0.149   0.803   2.608  1.0134 -0.4190  1.0450
   71MOL   H55739897   0.375   0.884   2.588 -0.4295 -0.8594  1.2682
   71MOL   H55839898   0.250   1.219   2.670 -0.3971  0.6641  0.9687
   71MOL   H55939899   0.005   1.265   2.736 -1.3367 -1.0681 -0.4385
   71MOL   H56039900   7.832   1.104   3.094  0.2979  0.1436 -0.1599
   71MOL   H56139901   7.618   1.049   3.183 -3.3422 -1.7271 -0.9343
   71MOL   H56239902   0.406   1.049   2.560  3.6350 -1.5795  1.8714
   72MOL     C139903   5.232   1.028   3.762 -0.1082  0.3727  0.3487
   72MOL     C239904   5.249   0.883   3.733  0.3365 -0.1821  0.8023
   72MOL     C339905   5.247   0.789   3.840 -0.7734  0.9418  0.1185
   72MOL     C439906   5.275   0.647   3.812 -0.3273 -0.5668 -0.2328
   72MOL     C539907   5.307   0.607   3.679 -0.0777 -0.2075  0.1821
   72MOL     C639908   5.332   0.468   3.640  0.1323 -0.4227  0.1354
   72MOL     N739909   5.424   0.395   3.714  0.5357  0.0662 -0.2303
   72MOL     C839910   5.444   0.258   3.717  0.0185 -0.4850  0.1871
   72MOL     C939911   5.565   0.208   3.778 -0.3148  0.0187  0.1476
   72MOL    C1039912   5.590   0.069   3.772  0.5816 -0.1349 -0.3057
   72MOL    C1139913   5.504   8.127   3.705 -0.0954 -0.7558 -1.2149
   72MOL    N1239914   5.521   7.983   3.688  0.9390  0.4825 -0.1229
   72MOL    C1339915   5.385   0.032   3.651 -0.0974 -0.2034  0.3524
   72MOL    C1439916   5.354   0.167   3.652  0.4480  0.4594 -0.2171
   72MOL    O1539917   5.276   0.425   3.544 -0.5277  0.0718  0.2123
   72MOL    C1639918   5.305   0.703   3.577  0.4416 -0.3109  0.1217
   72MOL    C1739919   5.276   0.836   3.602  0.3726 -0.1795  0.0292
   72MOL    O1839920   5.232   1.080   3.872  0.3952 -0.5517  0.0963
   72MOL    H1939921   5.218   0.829   3.935  0.7495  0.2242  0.9104
   72MOL    H2039922   5.277   0.574   3.891 -1.5922 -2.3023 -1.7813
   72MOL    H2139923   5.485   0.463   3.756 -1.4103  1.7462 -0.0568
   72MOL    H2239924   5.629   0.274   3.835  0.8621  0.5157 -1.7343
   72MOL    H2339925   5.670   0.032   3.834 -0.8505 -1.5616  0.7432
   72MOL    H2439926   5.439   7.934   3.654 -0.2891 -0.4658  3.8532
   72MOL    H2539927   5.310   8.122   3.598 -2.3710 -0.0816  3.3338
   72MOL    H2639928   5.264   0.206   3.609 -1.0390  0.9682  3.1625
   72MOL    H2739929   5.334   0.680   3.476 -2.5180 -2.8259 -0.2373
   72MOL    H2839930   5.281   0.909   3.523  1.3142 -2.5102 -2.1264
   72MOL    H2939931   5.227   1.086   3.670 -1.2531  2.7869  1.8708
   72MOL    C3039932   5.634   7.921   3.661 -0.1502  0.2016 -0.6839
   72MOL    C3139933   5.616   7.783   3.608 -0.0259 -0.2237 -0.8048
   72MOL    C3239934   5.680   7.741   3.492  0.1943  0.6152 -0.2346
   72MOL    C3339935   5.657   7.611   3.440  0.0571  0.1907 -0.0226
   72MOL    C3439936   5.558   7.524   3.500 -0.7467 -0.3041  0.3155
   72MOL    C3539937   5.527   7.393   3.450  0.3366  0.0746  0.0493
   72MOL    N3639938   5.628   7.318   3.419 -0.3558  0.0058 -0.1943
   72MOL    C3739939   5.645   7.178   3.418 -0.0312 -0.1627 -0.1459
   72MOL    C3839940   5.535   7.088   3.453 -0.5281 -0.0224  0.5527
   72MOL    C3939941   5.563   6.954   3.466  0.4981 -0.4078 -0.0221
   72MOL    C4039942   5.694   6.901   3.446 -0.1319  0.0618 -0.2852
   72MOL    N4139943   5.728   6.763   3.477  0.2692  0.3785 -0.2579
   72MOL    C4239944   5.799   6.990   3.412  0.7731  0.3604  0.7614
   72MOL    C4339945   5.775   7.123   3.393  0.3987 -0.0961  0.5440
   72MOL    O4439946   5.409   7.361   3.446 -0.1391  0.3053 -0.3072
   72MOL    C4539947   5.508   7.562   3.629 -0.0419 -1.0432 -0.1035
   72MOL    C4639948   5.525   7.696   3.676  0.0830  0.5723  0.2123
   72MOL    O4739949   5.747   7.968   3.678  0.3213 -0.1497  0.0845
   72MOL    H4839950   5.756   7.802   3.444  0.3622 -0.8354 -1.8457
   72MOL    H4939951   5.710   7.580   3.351  1.0815 -1.4705  1.1298
   72MOL    H5039952   5.713   7.374   3.423 -1.3611  1.5059  0.9571
   72MOL    H5139953   5.432   7.121   3.461 -0.8215 -0.4452 -1.1343
   72MOL    H5239954   5.482   6.889   3.493 -0.9924  1.2309 -0.4608
   72MOL    H5339955   5.662   6.731   3.547  0.6953 -1.3868 -0.6528
   72MOL    H5439956   5.900   6.962   3.388  0.1005 -2.0010  0.5258
   72MOL    H5539957   5.857   7.186   3.363 -0.1798  0.5297  0.2568
   72MOL    H5639958   5.459   7.498   3.701 -1.0230  1.1918  1.2689
   72MOL    H5739959   5.483   7.717   3.773  0.7736 -0.3313  0.7131
   72MOL    C5839960   5.797   6.668   3.414  0.1849 -0.4739  0.1152
   72MOL    C5939961   5.806   6.542   3.494  0.3137 -0.2602  0.3945
   72MOL    C6039962   5.898   6.446   3.446 -0.3217  0.1019  0.7503
   72MOL    C6139963   5.936   6.339   3.528  0.1487 -0.3770  0.2381
   72MOL    C6239964   5.889   6.324   3.658  0.6330  0.0224 -0.4431
   72MOL    C6339965   5.940   6.204   3.741 -0.4137  0.3898 -0.6094
   72MOL    N6439966   5.901   6.200   3.868  0.2961  0.5476 -0.3231
   72MOL    C6539967   5.921   6.104   3.962  0.3577 -0.7227 -0.2267
   72MOL    C6639968   6.043   6.079   4.024 -0.2571 -0.3211  0.0388
   72MOL    C6739969   6.053   5.979   4.121  0.3581  0.3566 -0.0768
   72MOL    C6839970   5.934   5.902   4.151  0.6295 -0.2471  0.0520
   72MOL    N6939971   5.933   5.791   4.242  0.1074 -0.1503 -0.2710
   72MOL    C7039972   5.808   5.950   4.112 -0.4647 -0.5175  0.2589
   72MOL    C7139973   5.803   6.042   4.010  0.0041  0.7067  0.2040
   72MOL    O7239974   6.016   6.118   3.692  0.4439  0.2305  0.1845
   72MOL    C7339975   5.791   6.416   3.707 -0.3023  0.3673  0.1877
   72MOL    C7439976   5.747   6.529   3.625 -0.0451  0.1584  0.1107
   72MOL    O7539977   5.847   6.682   3.305  0.8810  0.2867 -0.4731
   72MOL    H7639978   5.954   6.441   3.354  0.2782  1.4744  1.0167
   72MOL    H7739979   6.014   6.280   3.483 -0.4060 -1.2794  0.4294
   72MOL    H7839980   5.835   6.269   3.901 -0.9091  0.0770 -1.6804
   72MOL    H7939981   6.138   6.126   4.003 -0.3465 -0.0228  0.2883
   72MOL    H8039982   6.144   5.947   4.168 -1.2296 -2.7833  0.9573
   72MOL    H8139983   5.839   5.779   4.279 -0.2167  0.9826 -0.7003
   72MOL    H8239984   5.720   5.897   4.144 -1.3159 -0.1897 -1.4811
   72MOL    H8339985   5.707   6.074   3.975 -0.1172 -0.4108 -0.5026
   72MOL    H8439986   5.756   6.419   3.809 -0.5952 -0.5664  0.1253
   72MOL    H8539987   5.683   6.604   3.668 -0.0601 -0.7349  1.6788
   72MOL    C8639988   6.033   5.711   4.269  0.0758  0.6717 -0.6399
   72MOL    C8739989   5.996   5.605   4.369 -0.4498  0.5877  0.0454
   72MOL    C8839990   5.885   5.612   4.463  0.0102 -0.0091 -0.1985
   72MOL    C8939991   5.854   5.508   4.548 -0.4238  0.0131 -0.1453
   72MOL    C9039992   5.936   5.397   4.557 -0.3669 -0.4615 -0.6200
   72MOL    C9139993   5.909   5.298   4.666  0.7662  0.1521 -0.4212
   72MOL    N9239994   5.989   5.191   4.658 -0.7794 -0.0381  0.0153
   72MOL    C9339995   6.011   5.076   4.738  1.2535 -0.4079 -0.6384
   72MOL    C9439996   6.109   4.985   4.692  0.2234  0.0977 -0.0444
   72MOL    C9539997   6.139   4.871   4.764 -0.1095  0.6007 -0.1120
   72MOL    C9639998   6.075   4.844   4.887  0.4578 -0.1072 -0.2975
   72MOL    N9739999   6.100   4.711   4.939 -0.0784  1.7727 -0.2391
   72MOL    C9840000   5.971   4.931   4.936 -0.7099 -0.3470 -0.2343
   72MOL    C9940001   5.939   5.043   4.856  0.5355 -1.0367 -0.5469
   72MOL   O10040002   5.825   5.314   4.755  0.0120  0.0498  0.2863
   72MOL   C10140003   6.042   5.389   4.464 -0.0580 -0.1591 -0.4852
   72MOL   C10240004   6.074   5.489   4.369  0.2824  0.2700 -0.3570
   72MOL   O10340005   6.145   5.707   4.208  0.0218  0.2931 -0.1186
   72MOL   H10440006   5.825   5.702   4.459 -0.4541 -0.3249 -0.3870
   72MOL   H10540007   5.766   5.519   4.610 -0.8555  0.0740 -0.7636
   72MOL   H10640008   6.062   5.200   4.590 -0.5836 -0.7030  0.1314
   72MOL   H10740009   6.153   5.003   4.595  0.8156  0.1327  0.2286
   72MOL   H10840010   6.209   4.802   4.720 -2.0303 -1.5558  0.0915
   72MOL   H10940011   6.141   4.638   4.882  1.4402  1.3681  1.3411
   72MOL   H11040012   5.908   4.914   5.022 -0.6403 -0.5637 -0.2242
   72MOL   H11140013   5.848   5.096   4.879  1.0298 -0.0520 -0.8132
   72MOL   H11240014   6.107   5.302   4.465  2.1989  1.4619  0.7166
   72MOL   H11340015   6.162   5.469   4.309  1.0603 -0.3767  0.9876
   72MOL   C11440016   6.093   4.654   5.062  0.4362 -0.4153 -0.0868
   72MOL   C11540017   6.140   4.513   5.077 -0.3197 -0.1426  0.4062
   72MOL   C11640018   6.095   4.408   4.987  0.1538 -0.6526  0.0155
   72MOL   C11740019   6.159   4.284   4.994 -0.2368  0.4455 -0.4307
   72MOL   C11840020   6.250   4.254   5.097  0.0422 -0.1835 -0.0312
   72MOL   C11940021   6.323   4.122   5.107 -0.4381 -0.1717  0.5273
   72MOL   N12040022   6.439   4.108   5.039  0.3620 -0.2419 -0.3448
   72MOL   C12140023   6.464   4.195   4.929  0.2740 -0.0047  0.5599
   72MOL   C12240024   6.517   4.323   4.957  0.0178 -0.2554 -0.2655
   72MOL   C12340025   6.524   4.422   4.854  0.1117  0.0316 -0.4146
   72MOL   C12440026   6.461   4.400   4.729  0.3085  0.2971  0.0477
   72MOL   N12540027   6.439   4.507   4.645  0.2326  0.3581  0.3325
   72MOL   C12640028   6.419   4.265   4.700  0.1853 -0.2689 -0.1018
   72MOL   C12740029   6.416   4.161   4.798  0.1830 -0.2213  0.0689
   72MOL   O12840030   6.277   4.031   5.175 -0.0292  0.1858 -0.5887
   72MOL   C12940031   6.277   4.354   5.201 -0.0403  0.3614  1.0992
   72MOL   C13040032   6.214   4.480   5.191  0.7316  0.5945  0.5366
   72MOL   O13140033   6.062   4.718   5.165 -0.1501 -0.0598  0.2665
   72MOL   H13240034   6.029   4.429   4.904  0.9002  0.1343 -0.3811
   72MOL   H13340035   6.135   4.209   4.920  1.7315  0.1424 -0.7875
   72MOL   H13440036   6.482   4.017   5.035  0.9393  0.0366 -0.5217
   72MOL   H13540037   6.540   4.347   5.059 -2.7202  0.0572  0.3206
   72MOL   H13640038   6.558   4.522   4.875  1.7031 -0.2839 -1.3846
   72MOL   H13740039   6.341   4.517   4.621  0.9575  3.3981 -1.5672
   72MOL   H13840040   6.375   4.249   4.603 -1.1337  2.1302  0.0712
   72MOL   H13940041   6.379   4.060   4.790  0.5287 -0.5458  2.4390
   72MOL   H14040042   6.346   4.334   5.281 -1.7187 -0.9392  2.2744
   72MOL   H14140043   6.230   4.563   5.258  1.7135  3.3105 -2.9384
   72MOL   C14240044   6.531   4.593   4.597 -0.2830  0.1628  0.3563
   72MOL   C14340045   6.486   4.705   4.512  0.4905  0.5938 -0.5828
   72MOL   C14440046   6.549   4.831   4.518 -0.3685 -1.2131 -0.4851
   72MOL   C14540047   6.499   4.945   4.451 -0.0895  0.7271 -0.0084
   72MOL   C14640048   6.381   4.936   4.375 -0.0433  0.6600 -0.1877
   72MOL   C14740049   6.324   5.065   4.321 -0.5271 -0.0644  0.4158
   72MOL   N14840050   6.284   5.060   4.192  0.1952 -0.0388  0.1115
   72MOL   C14940051   6.209   5.168   4.122 -0.4031  0.0462 -0.5630
   72MOL   C15040052   6.261   5.207   3.997  0.8229 -0.1438  0.3098
   72MOL   C15140053   6.187   5.295   3.919  0.1399  0.2394  0.2146
   72MOL   C15240054   6.067   5.354   3.967 -0.6329 -0.2153  0.4045
   72MOL   N15340055   6.014   5.461   3.892 -0.2031 -0.2752  0.1334
   72MOL   C15440056   6.016   5.321   4.095 -0.4580  0.1086 -0.0101
   72MOL   C15540057   6.088   5.223   4.166 -0.3801  0.0427  0.3091
   72MOL   O15640058   6.313   5.162   4.396  0.0265 -0.6372 -0.1342
   72MOL   C15740059   6.319   4.804   4.369 -0.4369 -0.8367  0.0942
   72MOL   C15840060   6.372   4.693   4.433 -0.6350  0.3759 -0.1801
   72MOL   O15940061   6.653   4.583   4.606 -0.1613 -0.2279  0.0699
   72MOL   H16040062   6.618   4.852   4.598 -1.9090  0.9402  0.3023
   72MOL   H16140063   6.554   5.038   4.446  0.0431  0.5631 -2.7733
   72MOL   H16240064   6.310   4.980   4.136 -1.6288  0.0203 -0.8609
   72MOL   H16340065   6.355   5.172   3.958 -0.2299 -0.9497 -1.5699
   72MOL   H16440066   6.236   5.325   3.827  1.6049  1.9196  1.5125
   72MOL   H16540067   5.952   5.527   3.938  0.7863  0.3063  0.6604
   72MOL   H16640068   5.925   5.364   4.134 -1.3910 -0.5886 -1.3877
   72MOL   H16740069   6.040   5.190   4.257  0.0542  1.0335  0.9085
   72MOL   H16840070   6.222   4.797   4.322 -1.8516  0.9057  2.6425
   72MOL   H16940071   6.327   4.596   4.421  0.6305 -0.0272 -1.7907
   72MOL   C17040072   6.014   5.466   3.760  0.7166  0.8709  0.2806
   72MOL   C17140073   5.935   5.584   3.705 -0.2770  0.5133  0.5181
   72MOL   C17240074   5.889   5.690   3.785  0.5385 -0.3400  0.5123
   72MOL   C17340075   5.813   5.797   3.723  0.7151 -0.5236  0.1261
   72MOL   C17440076   5.788   5.799   3.588 -0.0455 -0.3210  0.3432
   72MOL   C17540077   5.683   5.892   3.525 -0.0795 -0.8264  0.3459
   72MOL   N17640078   5.717   5.963   3.419 -0.0876  0.1792  0.2185
   72MOL   C17740079   5.658   6.090   3.381 -0.1356 -0.3268 -0.2106
   72MOL   C17840080   5.686   6.150   3.257  0.4900  0.5958 -0.3408
   72MOL   C17940081   5.645   6.274   3.215 -0.1924 -0.0240  0.0675
   72MOL   C18040082   5.571   6.357   3.303  0.2654  0.1757  0.3107
   72MOL   N18140083   5.537   6.480   3.245  0.3988 -0.4684 -0.0843
   72MOL   C18240084   5.535   6.302   3.427 -0.3289 -0.0477 -0.2379
   72MOL   C18340085   5.576   6.173   3.466 -1.1923 -0.0957  0.1284
   72MOL   O18440086   5.574   5.901   3.581  0.2441 -0.6478  0.1656
   72MOL   C18540087   5.844   5.695   3.507 -0.2487 -1.2150 -0.5685
   72MOL   C18640088   5.921   5.590   3.560 -0.3472 -1.0478  0.1631
   72MOL   O18740089   6.057   5.380   3.681 -0.6547  0.1149  0.3671
   72MOL   H18840090   5.898   5.679   3.892  0.5572  0.1837  0.5630
   72MOL   H18940091   5.774   5.873   3.788 -1.6589 -2.6406  1.2659
   72MOL   H19040092   5.797   5.945   3.360 -0.7249  0.6208 -0.7908
   72MOL   H19140093   5.733   6.090   3.181 -0.7462  0.5785 -1.1065
   72MOL   H19240094   5.676   6.311   3.119  1.7244 -0.9347  0.3093
   72MOL   H19340095   5.554   6.480   3.146 -0.5082  1.5271 -0.2514
   72MOL   H19440096   5.467   6.354   3.492 -2.4335 -1.5457 -1.1891
   72MOL   H19540097   5.547   6.137   3.564 -0.9226 -1.4247 -0.2728
   72MOL   H19640098   5.820   5.711   3.402  2.6328  0.8951 -0.9597
   72MOL   H19740099   5.967   5.515   3.497 -0.6553 -0.8680 -0.2829
   72MOL   C19840100   5.485   6.588   3.312 -0.2021 -0.1259 -0.7333
   72MOL   C19940101   5.441   6.703   3.231 -0.8100 -0.9204 -0.9005
   72MOL   C20040102   5.520   6.750   3.124 -0.0954 -0.2071  0.0025
   72MOL   C20140103   5.493   6.874   3.062 -0.3335 -0.3925  0.3540
   72MOL   C20240104   5.374   6.939   3.090  0.2801  0.0787 -0.0527
   72MOL   C20340105   5.351   7.074   3.041 -0.4822 -0.2697  0.2005
   72MOL   N20440106   5.265   7.145   3.115  0.6878 -0.3773 -0.5103
   72MOL   C20540107   5.197   7.270   3.097 -0.4617 -0.2994  0.9445
   72MOL   C20640108   5.158   7.325   3.220  0.1336  0.2522 -0.1672
   72MOL   C20740109   5.105   7.452   3.215 -0.0094  0.1322  0.1583
   72MOL   C20840110   5.081   7.521   3.094 -0.6300 -0.3777 -0.1611
   72MOL   N20940111   5.031   7.647   3.112  0.0409  0.3138  0.0558
   72MOL   C21040112   5.112   7.457   2.973  0.2069 -0.3838 -0.1598
   72MOL   C21140113   5.175   7.328   2.972  0.1940  0.1276 -0.4972
   72MOL   O21240114   5.412   7.121   2.942 -0.3569  0.3089 -0.3338
   72MOL   C21340115   5.292   6.884   3.194 -0.0681  0.0973  0.2277
   72MOL   C21440116   5.329   6.771   3.271  0.3381 -0.3795 -0.2747
   72MOL   O21540117   5.458   6.586   3.431  0.0835 -0.1840  0.0057
   72MOL   H21640118   5.610   6.701   3.091 -0.3523 -1.3979  1.0303
   72MOL   H21740119   5.568   6.904   2.991 -0.1885 -1.5434  0.0252
   72MOL   H21840120   5.249   7.106   3.206  2.5593 -1.4679 -0.6171
   72MOL   H21940121   5.183   7.272   3.311 -2.7341  0.7907  0.9764
   72MOL   H22040122   5.082   7.499   3.310  1.0645 -0.3869  0.6859
   72MOL   H22140123   5.036   7.678   3.208 -1.6081 -0.6061  0.4678
   72MOL   H22240124   5.100   7.514   2.881  0.1683  0.9870  0.6841
   72MOL   H22340125   5.196   7.291   2.872 -1.1541  1.9942 -1.5153
   72MOL   H22440126   5.195   6.925   3.217 -0.6671 -0.5390 -1.0967
   72MOL   H22540127   5.277   6.730   3.356 -0.1274 -0.0053 -0.3799
   72MOL   C22640128   4.980   7.730   3.022  0.2760  0.3625 -0.2034
   72MOL   C22740129   4.949   7.867   3.077 -0.4595  0.1503  0.2315
   72MOL   C22840130   4.828   7.928   3.044  0.1796 -0.4953  0.0191
   72MOL   C22940131   4.788   8.053   3.098 -0.0078  0.2734 -0.5679
   72MOL   C23040132   4.882   8.123   3.173 -0.3947  0.4956  0.1764
   72MOL   C23140133   4.853   0.123   3.200 -0.6197 -0.1167 -0.1497
   72MOL   N23240134   4.940   0.216   3.153  0.5369  0.6084  0.2468
   72MOL   C23340135   5.076   0.203   3.125  0.1877  0.2918 -0.5791
   72MOL   C23440136   5.120   0.119   3.019 -0.8293  0.0813 -0.1700
   72MOL   C23540137   5.254   0.110   2.989 -0.3248 -0.1183  0.2539
   72MOL   C23640138   5.344   0.191   3.069 -0.4789 -0.6137 -0.2348
   72MOL   N23740139   5.481   0.197   3.031 -0.0772  0.0666 -0.3090
   72MOL   C23840140   5.296   0.277   3.174 -0.6835  0.2923  0.7108
   72MOL   C23940141   5.160   0.284   3.201 -0.1273  1.0618  0.0640
   72MOL   O24040142   4.750   0.150   3.256  0.0358 -0.6486  0.4388
   72MOL   C24140143   5.002   8.061   3.224  0.7820  0.2223 -0.1605
   72MOL   C24240144   5.033   7.927   3.177 -0.5498 -0.1960  0.0765
   72MOL   O24340145   4.942   7.691   2.910  0.2914 -0.1630 -0.4271
   72MOL   H24440146   4.763   7.890   2.966  2.1541 -2.0726 -0.8794
   72MOL   H24540147   4.693   8.095   3.068  1.2889  1.2167 -3.5179
   72MOL   H24640148   4.913   0.310   3.179 -0.9771  0.2230  0.1318
   72MOL   H24740149   5.051   0.061   2.960 -2.2493 -0.8052  2.2860
   72MOL   H24840150   5.287   0.046   2.908  0.2278 -1.6490  1.6422
   72MOL   H24940151   5.536   0.272   3.069  1.1442 -0.9095 -0.1167
   72MOL   H25040152   5.357   0.352   3.222 -0.4236  0.2191  0.4931
   72MOL   H25140153   5.126   0.343   3.285  1.5279 -0.3077  1.7245
   72MOL   H25240154   5.069   8.111   3.293 -2.5995  2.4476  1.6309
   72MOL   H25340155   5.119   7.869   3.208  1.0920  1.6937 -0.8212
   72MOL   C25440156   5.560   0.094   2.993 -0.5493  0.7894  0.1083
   72MOL   C25540157   5.714   0.123   2.999  0.2856 -0.0804 -0.2048
   72MOL   C25640158   5.755   0.254   3.024 -0.6387  0.0962  0.4519
   72MOL   C25740159   5.897   0.286   3.049 -0.2856  0.2485 -0.5171
   72MOL   C25840160   5.989   0.181   3.042 -0.2142 -0.2995  0.5491
   72MOL   C25940161   6.137   0.210   3.054  0.3944  0.1453  0.5058
   72MOL   N26040162   6.214   0.164   2.952  0.5705  0.1949 -0.1018
   72MOL   C26140163   6.353   0.165   2.928 -0.4580 -0.1340 -0.5142
   72MOL   C26240164   6.398   0.144   2.797 -0.1447 -0.0959 -0.0751
   72MOL   C26340165   6.530   0.129   2.765 -0.4975  0.3048  0.2382
   72MOL   C26440166   6.625   0.145   2.863  0.0965  0.0131 -0.0110
   72MOL   N26540167   6.761   0.100   2.849 -0.3759  0.0806  0.1938
   72MOL   C26640168   6.584   0.198   2.986  0.2552  0.0599 -0.0844
   72MOL   C26740169   6.449   0.202   3.025 -0.7399  0.6330 -0.7169
   72MOL   O26840170   6.173   0.267   3.151  0.5015 -0.0425 -0.0182
   72MOL   C26940171   5.954   0.052   3.006  0.0289  0.7694 -0.1724
   72MOL   C27040172   5.816   0.020   2.990 -0.1230 -0.8328  0.0940
   72MOL   O27140173   5.520   8.129   2.957 -0.1211 -0.0143  0.5955
   72MOL   H27240174   5.689   0.339   3.024  0.0560  0.6468  0.8644
   72MOL   H27340175   5.931   0.381   3.087  3.1507 -1.7161  1.5266
   72MOL   H27440176   6.150   0.120   2.888  0.2183  2.3816 -1.2874
   72MOL   H27540177   6.327   0.123   2.718 -2.3276  1.9593  1.2472
   72MOL   H27640178   6.547   0.094   2.664  1.3637 -0.5528  0.8061
   72MOL   H27740179   6.810   0.086   2.937  1.0399  0.3439 -0.5421
   72MOL   H27840180   6.660   0.234   3.054  0.2916  1.0235 -0.6165
   72MOL   H27940181   6.416   0.224   3.125 -0.8396 -1.0706 -0.3637
   72MOL   H28040182   6.028   8.120   2.991 -1.5995 -1.5641  3.3179
   72MOL   H28140183   5.792   8.067   2.953  0.8073 -1.7082  1.7781
   72MOL   C28240184   6.811   0.025   2.750 -0.4705  0.4067 -0.1142
   72MOL   C28340185   6.901   8.064   2.785 -0.5089  0.9743 -0.1146
   72MOL   C28440186   6.884   7.992   2.901 -0.2310  0.1294 -0.4902
   72MOL   C28540187   6.959   7.873   2.912 -0.0850 -0.1017 -0.2439
   72MOL   C28640188   7.066   7.840   2.822 -0.4116  0.3118  0.2171
   72MOL   C28740189   7.138   7.715   2.845  0.7243 -0.2213  0.8247
   72MOL   N28840190   7.080   7.612   2.783  0.1247 -0.7033 -0.3677
   72MOL   C28940191   7.124   7.473   2.786  0.1130  0.3507  0.4669
   72MOL   C29040192   7.090   7.395   2.673 -0.1379 -0.0654 -0.3667
   72MOL   C29140193   7.138   7.262   2.667 -0.4742  0.9306 -0.1666
   72MOL   C29240194   7.215   7.216   2.780  0.3259  0.2395 -0.8017
   72MOL   N29340195   7.260   7.084   2.785  0.5729  0.2830 -0.8828
   72MOL   C29440196   7.232   7.291   2.894  0.0137 -0.4120  0.2952
   72MOL   C29540197   7.184   7.418   2.897  0.2090  0.4366  0.2409
   72MOL   O29640198   7.236   7.705   2.911 -0.2318 -0.3321 -0.2494
   72MOL   C29740199   7.092   7.919   2.715 -0.0116 -0.0090 -0.0500
   72MOL   C29840200   7.001   8.027   2.693 -0.2486 -0.3049 -0.4882
   72MOL   O29940201   6.779   0.038   2.635 -0.2465  0.6448  0.5342
   72MOL   H30040202   6.811   8.024   2.974  0.4290 -1.7568  1.0206
   72MOL   H30140203   6.945   7.803   2.993 -0.1586 -0.1810 -0.3248
   72MOL   H30240204   7.023   7.641   2.705  1.0772 -0.3532 -0.9389
   72MOL   H30340205   7.061   7.445   2.581 -0.6059 -1.6188 -1.0687
   72MOL   H30440206   7.129   7.206   2.575 -1.2283  1.8213 -0.6399
   72MOL   H30540207   7.246   7.036   2.873  0.8681 -2.3332 -2.2191
   72MOL   H30640208   7.282   7.258   2.984  0.5064 -0.5070 -0.0173
   72MOL   H30740209   7.199   7.467   2.992  0.8981  0.0427  0.3456
   72MOL   H30840210   7.188   7.916   2.665 -0.7807  0.6060 -1.5958
   72MOL   H30940211   7.018   8.081   2.601  1.2647  1.1257  0.5882
   72MOL   C31040212   7.325   7.028   2.684 -0.2188  0.3904 -0.2043
   72MOL   C31140213   7.351   6.877   2.703 -1.0529  0.4728  0.2109
   72MOL   C31240214   7.379   6.795   2.588  0.1269  0.0049 -0.1614
   72MOL   C31340215   7.420   6.660   2.596 -0.4595 -0.0505  0.0834
   72MOL   C31440216   7.413   6.598   2.716 -0.1870  0.2135 -0.1410
   72MOL   C31540217   7.440   6.450   2.729  0.4534 -0.1803  0.1267
   72MOL   N31640218   7.408   6.386   2.618  0.4570  0.2103 -0.2900
   72MOL   C31740219   7.422   6.252   2.573 -0.2291 -0.4329 -0.5952
   72MOL   C31840220   7.472   6.151   2.651 -0.8152  0.5936  0.2759
   72MOL   C31940221   7.474   6.018   2.602 -0.0983  0.1200  0.1172
   72MOL   C32040222   7.406   5.983   2.486 -0.3226  0.7246  0.6281
   72MOL   N32140223   7.404   5.847   2.436 -0.3192  0.3732 -0.2711
   72MOL   C32240224   7.356   6.084   2.404  0.2855 -0.3030  0.7165
   72MOL   C32340225   7.359   6.220   2.451 -0.8012 -0.0562 -0.0478
   72MOL   O32440226   7.499   6.399   2.824 -0.5492  0.1115 -0.0831
   72MOL   C32540227   7.393   6.679   2.831 -0.4327 -0.1614  0.6086
   72MOL   C32640228   7.362   6.813   2.823  0.2167  0.6452 -0.0903
   72MOL   O32740229   7.373   7.091   2.589 -0.0680  0.1444 -0.3398
   72MOL   H32840230   7.380   6.859   2.502 -0.4487  0.0639 -0.1227
   72MOL   H32940231   7.450   6.611   2.504 -1.1854  0.1055 -0.2409
   72MOL   H33040232   7.352   6.440   2.554 -0.0425  0.9247  0.7289
   72MOL   H33140233   7.524   6.172   2.743  1.4780  0.3449 -0.9170
   72MOL   H33240234   7.515   5.942   2.668  0.2195 -0.2766 -0.5287
   72MOL   H33340235   7.477   5.788   2.472 -0.8297 -0.0839  0.0227
   72MOL   H33440236   7.311   6.071   2.307 -1.3788  0.1354  1.4149
   72MOL   H33540237   7.311   6.292   2.386  2.3644  0.5946 -1.7536
   72MOL   H33640238   7.392   6.629   2.927 -0.6060 -0.7406  0.3099
   72MOL   H33740239   7.350   6.873   2.913  0.7995 -0.6946  0.8989
   72MOL   C33840240   7.319   5.787   2.350  0.3713 -0.0700 -0.5045
   72MOL   C33940241   7.353   5.645   2.316 -0.1108  0.4997  0.0119
   72MOL   C34040242   7.414   5.557   2.408  0.6459  0.7878  0.4042
   72MOL   C34140243   7.425   5.418   2.385 -0.5623 -0.3554 -0.1176
   72MOL   C34240244   7.372   5.367   2.259 -1.1412 -0.4092 -0.2027
   72MOL   C34340245   7.388   5.219   2.225  0.0365 -0.7753  0.8657
   72MOL   N34440246   7.285   5.169   2.156  0.1752  0.0313 -0.0323
   72MOL   C34540247   7.244   5.037   2.125  0.2554 -0.5259  0.3385
   72MOL   C34640248   7.106   5.017   2.102 -0.1269 -0.2865  0.5733
   72MOL   C34740249   7.054   4.893   2.066 -0.7837 -0.4366  0.5485
   72MOL   C34840250   7.142   4.783   2.043  0.7067 -0.5106 -0.3267
   72MOL   N34940251   7.104   4.660   1.987  0.2319 -0.3640 -0.4594
   72MOL   C35040252   7.280   4.799   2.069  0.4418 -0.1153  0.7913
   72MOL   C35140253   7.331   4.930   2.110  0.5034  0.3841  0.1431
   72MOL   O35240254   7.476   5.146   2.275 -0.8317  0.2402  0.0648
   72MOL   C35340255   7.332   5.460   2.163 -0.3841 -0.2742 -0.4661
   72MOL   C35440256   7.311   5.592   2.198 -0.2777  1.0475 -0.2105
   72MOL   O35540257   7.222   5.848   2.302 -0.5124  0.1123 -0.2069
   72MOL   H35640258   7.438   5.589   2.508 -1.4028  1.7380  0.6321
   72MOL   H35740259   7.470   5.354   2.460  0.4031  1.8562  1.2510
   72MOL   H35840260   7.217   5.238   2.125  0.6826 -1.1061 -3.9961
   72MOL   H35940261   7.032   5.096   2.109  0.7452  0.3485  2.7152
   72MOL   H36040262   6.948   4.879   2.051 -1.2581  2.7850  0.4867
   72MOL   H36140263   7.175   4.618   1.929  0.1360  1.3047 -1.8246
   72MOL   H36240264   7.344   4.715   2.049 -0.1633 -0.4278  0.1464
   72MOL   H36340265   7.435   4.946   2.135 -0.2709  0.5860  3.4635
   72MOL   H36440266   7.306   5.438   2.060 -3.6813 -1.2433  0.5290
   72MOL   H36540267   7.270   5.658   2.123 -0.4013  0.7246 -0.4297
   72MOL   C36640268   7.006   4.585   2.025  0.2453 -0.3472  0.9240
   72MOL   C36740269   6.979   4.459   1.956 -0.4823  1.0435 -0.3841
   72MOL   C36840270   7.088   4.363   1.935 -0.1725 -0.3862  0.6067
   72MOL   C36940271   7.049   4.233   1.893  0.0585 -0.3546  0.4476
   72MOL   C37040272   6.913   4.194   1.873  0.4635  0.3285  0.3503
   72MOL   C37140273   6.880   4.055   1.838 -0.3011 -0.1309  0.3491
   72MOL   N37240274   6.752   4.028   1.850  0.3252 -0.2354  0.1841
   72MOL   C37340275   6.678   3.916   1.805  0.4667 -0.9484  1.2931
   72MOL   C37440276   6.721   3.786   1.767  0.5338 -0.4150  0.3176
   72MOL   C37540277   6.633   3.685   1.721  0.0641 -0.7202  0.0421
   72MOL   C37640278   6.495   3.723   1.711 -0.5982 -1.0326  0.1127
   72MOL   N37740279   6.394   3.628   1.675 -0.3258  0.0824  0.3056
   72MOL   C37840280   6.455   3.857   1.731  0.0692 -0.4217 -0.2209
   72MOL   C37940281   6.548   3.952   1.775 -0.1754  0.0370 -0.8348
   72MOL   O38040282   6.973   3.978   1.802  0.1033  0.1667 -0.4218
   72MOL   C38140283   6.806   4.291   1.886  0.4449  0.6425 -0.5083
   72MOL   C38240284   6.846   4.421   1.930  0.7757  0.0276 -0.8044
   72MOL   O38340285   6.934   4.625   2.116  0.3618  0.1059 -0.0558
   72MOL   H38440286   7.191   4.392   1.949 -0.0995  0.4694 -1.4826
   72MOL   H38540287   7.122   4.155   1.877 -1.5014 -1.5041 -1.3999
   72MOL   H38640288   6.700   4.110   1.876 -1.1625 -1.2810  0.6189
   72MOL   H38740289   6.826   3.763   1.755  0.3593 -0.1618 -1.7515
   72MOL   H38840290   6.674   3.590   1.692  0.5090 -0.6820  0.5248
   72MOL   H38940291   6.416   3.584   1.587  0.2973 -0.9504  0.9744
   72MOL   H39040292   6.351   3.880   1.715  0.5806  1.8259 -0.4389
   72MOL   H39140293   6.516   4.053   1.796  0.3673 -0.0507  0.4691
   72MOL   H39240294   6.703   4.272   1.859  0.9019 -1.0067 -1.1558
   72MOL   H39340295   6.768   4.493   1.947  0.2095 -0.8369  0.2578
   72MOL   C39440296   6.266   3.624   1.719 -0.1183 -0.0344 -0.1240
   72MOL   C39540297   6.169   3.566   1.623  0.0444 -0.0945 -0.0010
   72MOL   C39640298   6.195   3.570   1.484  0.7519  0.6085  0.3192
   72MOL   C39740299   6.100   3.513   1.393 -0.4632 -0.2818 -0.4694
   72MOL   C39840300   5.971   3.470   1.435 -0.0666  0.1094 -0.5514
   72MOL   C39940301   5.876   3.406   1.344 -0.5937  0.6643 -1.1273
   72MOL   N40040302   5.868   3.447   1.220  0.3435  0.2982  0.3883
   72MOL   C40140303   5.783   3.384   1.118 -0.4837 -0.0023 -0.3922
   72MOL   C40240304   5.735   3.458   1.011  0.0117 -0.1425 -0.4417
   72MOL   C40340305   5.655   3.396   0.909 -0.0606 -0.5116 -0.4914
   72MOL   C40440306   5.622   3.262   0.919 -0.0413 -0.8854 -0.3007
   72MOL   N40540307   5.557   3.204   0.807 -0.5067  0.2617 -0.6849
   72MOL   C40640308   5.668   3.189   1.028 -0.1397  0.2656  0.2279
   72MOL   C40740309   5.750   3.248   1.123 -0.0375  0.3182 -0.5165
   72MOL   O40840310   5.801   3.325   1.393 -0.6797  0.0348  0.3202
   72MOL   C40940311   5.944   3.472   1.571 -0.2410  0.1866 -0.1417
   72MOL   C41040312   6.040   3.525   1.659  0.3154 -0.3319  0.2064
   72MOL   O41140313   6.228   3.663   1.829 -0.1086  0.1822 -0.2521
   72MOL   H41240314   6.277   3.628   1.444  2.4994 -0.3353  2.4290
   72MOL   H41340315   6.133   3.517   1.290 -0.7454 -0.9393 -0.5879
   72MOL   H41440316   5.917   3.532   1.196  0.7995  0.8252  3.0130
   72MOL   H41540317   5.738   3.566   1.005 -4.2899  0.0098 -1.6091
   72MOL   H41640318   5.633   3.444   0.815 -1.2587 -1.9690 -0.9796
   72MOL   H41740319   5.467   3.241   0.781 -1.2911 -0.5193  0.7894
   72MOL   H41840320   5.648   3.083   1.038 -0.1374  0.4107  1.9144
   72MOL   H41940321   5.790   3.187   1.203  0.0920  0.0149 -0.8125
   72MOL   H42040322   5.853   3.432   1.614  0.2282  1.4436  2.0891
   72MOL   H42140323   6.008   3.537   1.762  0.0275 -2.3619  0.3717
   72MOL   C42240324   5.580   3.088   0.750  0.0127  0.2582 -0.0777
   72MOL   C42340325   5.700   3.002   0.780  1.1261  0.2083  0.3226
   72MOL   C42440326   5.827   3.056   0.798  0.5225  0.0888 -0.5995
   72MOL   C42540327   5.938   2.983   0.836  0.1808  0.1073  0.0903
   72MOL   C42640328   5.930   2.842   0.848  0.3780 -0.2686  0.0578
   72MOL   C42740329   6.057   2.763   0.873  0.1741 -0.5550 -0.4323
   72MOL   N42840330   6.141   2.825   0.949 -0.6177 -0.1819  0.2980
   72MOL   C42940331   6.282   2.825   0.915  0.1517 -0.2979 -0.2771
   72MOL   C43040332   6.352   2.709   0.884  0.8379 -0.5894  0.3364
   72MOL   C43140333   6.490   2.718   0.851 -0.5612  0.6682  0.0614
   72MOL   C43240334   6.561   2.837   0.848  0.7013  0.3386 -0.4900
   72MOL   N43340335   6.700   2.859   0.817 -0.0576 -0.1856  0.1859
   72MOL   C43440336   6.486   2.954   0.868 -0.4795 -0.5648  0.7488
   72MOL   C43540337   6.348   2.948   0.898  0.1457  0.6991  0.3880
   72MOL   O43640338   6.069   2.643   0.850 -0.0227 -0.4593 -0.2356
   72MOL   C43740339   5.804   2.780   0.817  0.1440  0.8106 -0.3391
   72MOL   C43840340   5.694   2.860   0.782 -0.0964 -0.1791  0.3394
   72MOL   O43940341   5.503   3.044   0.666 -0.0681  0.4795 -0.7347
   72MOL   H44040342   5.848   3.161   0.800 -0.6741  0.3207  0.0832
   72MOL   H44140343   6.031   3.035   0.857  0.9462 -1.6805  1.2229
   72MOL   H44240344   6.124   2.913   0.995 -2.5246 -0.5337  0.3023
   72MOL   H44340345   6.303   2.613   0.893  0.9522 -0.4796  2.3635
   72MOL   H44440346   6.537   2.625   0.821  1.2905  1.7439 -0.4263
   72MOL   H44540347   6.741   2.951   0.814  0.6178 -0.5153 -1.9777
   72MOL   H44640348   6.524   3.054   0.858  2.3058 -1.8248 -2.0584
   72MOL   H44740349   6.302   3.043   0.921  0.2600  0.4404  1.7213
   72MOL   H44840350   5.795   2.672   0.813  3.5439  0.5195 -2.8245
   72MOL   H44940351   5.599   2.815   0.761 -0.3796  0.9324 -0.8454
   72MOL   C45040352   6.795   2.767   0.798  0.0635 -0.4345 -0.5949
   72MOL   C45140353   6.934   2.826   0.810 -0.1683 -0.5162 -0.0566
   72MOL   C45240354   6.964   2.926   0.907 -0.9167 -0.4223 -0.7653
   72MOL   C45340355   7.090   2.989   0.900  0.3713 -0.0243 -0.3869
   72MOL   C45440356   7.186   2.948   0.805  0.5663  0.0613 -0.0533
   72MOL   C45540357   7.319   3.016   0.805 -0.3542  0.1120 -0.0423
   72MOL   N45640358   7.361   3.066   0.924  0.1440 -0.8532  0.1883
   72MOL   C45740359   7.458   3.168   0.955  0.0000  0.8793  0.3346
   72MOL   C45840360   7.438   3.265   1.060 -0.9017  0.2125  0.1505
   72MOL   C45940361   7.532   3.368   1.082 -0.4885 -0.3077 -0.1794
   72MOL   C46040362   7.645   3.371   1.002 -0.1705 -0.5731 -0.0933
   72MOL   N46140363   7.738   3.475   1.020 -0.2227 -0.4951  0.1289
   72MOL   C46240364   7.669   3.271   0.902  0.7388  0.2238 -0.6029
   72MOL   C46340365   7.576   3.173   0.875 -0.0336 -0.3611 -0.1690
   72MOL   O46440366   7.396   3.015   0.707  0.2002  0.2004  0.0722
   72MOL   C46540367   7.158   2.844   0.712  0.7026  0.0434  0.0908
   72MOL   C46640368   7.031   2.783   0.714  0.2105 -0.8328 -0.1668
   72MOL   O46740369   6.772   2.652   0.763  0.8615  0.2292 -0.0294
   72MOL   H46840370   6.897   2.959   0.985 -0.0136 -1.3794  0.4360
   72MOL   H46940371   7.113   3.078   0.956 -0.1489  1.4827 -2.5022
   72MOL   H47040372   7.315   3.028   1.006 -0.2417 -1.2072 -0.1951
   72MOL   H47140373   7.353   3.259   1.126 -0.9213  0.2064  0.1249
   72MOL   H47240374   7.506   3.445   1.153 -0.9077 -1.3695  0.8327
   72MOL   H47340375   7.814   3.461   1.084  1.1423  2.0005 -0.8740
   72MOL   H47440376   7.753   3.273   0.834  2.3704 -0.8871  1.3368
   72MOL   H47540377   7.606   3.108   0.794 -0.8299 -2.6063  1.2911
   72MOL   H47640378   7.233   2.804   0.646  0.4260 -0.3387  0.0097
   72MOL   H47740379   6.996   2.709   0.644  0.0383  0.6623 -1.7071
   72MOL   C47840380   7.722   3.605   0.989  0.1240 -0.2687  0.3104
   72MOL   C47940381   7.809   3.705   1.067  0.2195  0.2210  0.0376
   72MOL   C48040382   7.855   3.816   0.999  0.3708 -0.0586 -0.1952
   72MOL   C48140383   7.931   3.915   1.070  0.1934 -0.8326 -0.0895
   72MOL   C48240384   7.949   3.907   1.208 -0.1842  0.5026 -0.0884
   72MOL   C48340385   8.019   4.012   1.282  0.2189 -0.2006  0.3883
   72MOL   N48440386   7.960   4.132   1.284 -0.7890  0.8412  0.1859
   72MOL   C48540387   7.988   4.243   1.370  0.0098  0.1509 -0.3570
   72MOL   C48640388   7.898   4.355   1.366  0.1600  0.1654 -0.3117
   72MOL   C48740389   7.928   4.475   1.439  0.5964 -0.3033  0.7773
   72MOL   C48840390   8.043   4.480   1.516  0.4281 -0.4806 -1.0777
   72MOL   N48940391   8.062   4.602   1.577  0.0443  0.2882  0.0012
   72MOL   C49040392   8.133   4.368   1.518 -0.5139  0.8865 -0.1718
   72MOL   C49140393   8.103   4.254   1.448  0.3800  0.5278  0.7424
   72MOL   O49240394   8.127   3.992   1.334 -0.4733 -0.7849 -0.2125
   72MOL   C49340395   7.908   3.791   1.269  0.3309  0.7459 -0.6998
   72MOL   C49440396   7.830   3.694   1.202  0.3377 -0.2916 -0.2475
   72MOL   O49540397   7.638   3.646   0.909  0.2346  0.0682  0.4141
   72MOL   H49640398   7.821   3.829   0.897 -0.5111 -0.9769 -0.0364
   72MOL   H49740399   7.975   3.991   1.007 -1.0792  0.2680  0.3490
   72MOL   H49840400   7.891   4.150   1.212  1.2466  1.0875 -1.7669
   72MOL   H49940401   7.815   4.351   1.297  0.7028 -0.7289 -0.9120
   72MOL   H50040402   7.866   4.563   1.432  1.1679 -0.1521 -3.8647
   72MOL   H50140403   8.014   4.681   1.536  0.4706  0.0369 -0.9906
   72MOL   H50240404   0.071   4.364   1.585 -1.6882  0.7456  1.3214
   72MOL   H50340405   0.027   4.173   1.461  1.6997  1.4828 -0.1595
   72MOL   H50440406   7.923   3.779   1.376  0.5022  3.4827 -0.3984
   72MOL   H50540407   7.793   3.611   1.261  1.1004 -0.1399  0.4515
   72MOL   C50640408   0.002   4.624   1.677 -0.1424  0.1710 -1.0237
   72MOL   C50740409   0.041   4.768   1.691  0.4974  0.4268  0.2783
   72MOL   C50840410   8.096   4.875   1.651  0.2097  0.4916 -0.2199
   72MOL   C50940411   8.138   5.007   1.652  0.1436  0.3261 -0.1462
   72MOL   C51040412   0.127   5.029   1.694  0.2415  0.4252 -0.1691
   72MOL   C51140413   0.174   5.167   1.690 -0.3107  0.0884 -0.2908
   72MOL   N51240414   0.084   5.258   1.733  0.4343  0.1241  0.7257
   72MOL   C51340415   0.084   5.395   1.744 -0.8741 -0.3571  0.5615
   72MOL   C51440416   8.110   5.467   1.744  0.0772  0.1380  0.0302
   72MOL   C51540417   8.104   5.603   1.755  0.0341  0.1657 -0.7018
   72MOL   C51640418   0.078   5.674   1.771 -0.5955  0.1130  0.7747
   72MOL   N51740419   0.081   5.815   1.784 -0.2793  0.0608  0.5886
   72MOL   C51840420   0.205   5.611   1.764 -0.7051 -1.2501  0.7557
   72MOL   C51940421   0.205   5.468   1.751  0.1213 -0.6132 -0.0389
   72MOL   O52040422   0.279   5.199   1.639 -0.5314  0.2798 -0.3588
   72MOL   C52140423   0.220   4.928   1.732 -0.2613 -0.2527  0.4426
   72MOL   C52240424   0.173   4.796   1.725  0.0614  0.0457 -0.5053
   72MOL   O52340425   0.055   4.531   1.739  0.2131 -0.0525 -0.0634
   72MOL   H52440426   7.993   4.853   1.626 -0.2333  1.0273  1.0954
   72MOL   H52540427   8.071   5.090   1.634 -0.3491 -0.3860 -1.7621
   72MOL   H52640428   8.142   5.213   1.754  0.8669  0.5362  3.6536
   72MOL   H52740429   8.014   5.417   1.738 -0.8737  2.0515 -0.8831
   72MOL   H52840430   8.009   5.652   1.740  0.4206  0.6448 -1.5918
   72MOL   H52940431   0.149   5.858   1.722 -2.7219  2.0048 -0.8559
   72MOL   H53040432   0.299   5.664   1.769 -1.4667  0.2425 -0.5685
   72MOL   H53140433   0.297   5.411   1.746  1.0400  0.8931 -0.7331
   72MOL   H53240434   0.321   4.962   1.749  0.2742 -1.3283 -0.5433
   72MOL   H53340435   0.236   4.712   1.749 -0.1197  0.5707  1.9964
   72MOL   C53440436   8.133   5.889   1.853 -0.5273  0.0417 -0.0784
   72MOL   C53540437   8.142   6.043   1.834 -0.2157 -0.0943 -0.7670
   72MOL   C53640438   0.115   6.110   1.817 -0.3609 -0.1324 -0.6662
   72MOL   C53740439   0.117   6.247   1.786 -0.5014  0.4350  0.2139
   72MOL   C53840440   8.144   6.325   1.786 -0.2886 -0.4123  0.1599
   72MOL   C53940441   0.008   6.476   1.763  0.1748  0.3261 -0.4089
   72MOL   N54040442   8.052   6.545   1.806 -0.7027  0.9173 -0.6389
   72MOL   C54140443   8.008   6.681   1.777  0.4293 -0.0066  0.3528
   72MOL   C54240444   8.097   6.787   1.761  0.0483  0.3486  0.1180
   72MOL   C54340445   8.049   6.921   1.763  0.2628 -0.2254  0.1514
   72MOL   C54440446   7.916   6.954   1.772  0.2509  0.3426  0.6447
   72MOL   N54540447   7.866   7.085   1.763  0.1090  0.8958 -0.4325
   72MOL   C54640448   7.822   6.847   1.784  0.0793  0.0928  0.0335
   72MOL   C54740449   7.869   6.709   1.785 -0.0214 -0.0657 -0.1571
   72MOL   O54840450   0.103   6.524   1.704  0.2419 -0.0620 -0.3005
   72MOL   C54940451   8.020   6.257   1.805  0.4510 -0.2792 -0.2827
   72MOL   C55040452   8.022   6.122   1.838 -0.3296  0.2678  0.2748
   72MOL   O55140453   8.045   5.833   1.923 -0.1645  0.2290 -0.2691
   72MOL   H55240454   0.207   6.053   1.823 -1.5681 -2.1274 -0.9022
   72MOL   H55340455   0.209   6.301   1.771 -0.3201 -0.7027 -3.2383
   72MOL   H55440456   7.993   6.493   1.869  0.2010 -1.0741 -1.3671
   72MOL   H55540457   0.058   6.768   1.758  0.1259  0.7340  0.2782
   72MOL   H55640458   8.124   6.999   1.761  0.9046 -0.8631 -1.5980
   72MOL   H55740459   7.767   7.084   1.780 -0.3303  3.9852 -2.4264
   72MOL   H55840460   7.715   6.864   1.787  0.1195  0.8654 -1.7934
   72MOL   H55940461   7.800   6.628   1.801  0.2205 -0.1974  0.2254
   72MOL   H56040462   7.926   6.310   1.801  0.8981  0.6942  1.3430
   72MOL   H56140463   7.928   6.071   1.853 -2.2445  3.1235 -1.5657
   72MOL   H56240464   7.919   7.159   1.809  2.1681 -0.0202 -1.2484
   73MOL     C140465   4.769   6.079   3.750 -0.4678 -0.0788  0.0559
   73MOL     C240466   4.683   6.058   3.633 -0.6734 -0.3073  0.3716
   73MOL     C340467   4.571   6.136   3.606 -0.2727 -0.8240  0.2604
   73MOL     C440468   4.490   6.106   3.491  0.0780 -0.0883  0.3919
   73MOL     C540469   4.520   5.996   3.404  0.3428 -0.4752 -0.3897
   73MOL     C640470   4.425   5.967   3.294 -0.1329 -0.5494  0.2480
   73MOL     N740471   4.294   6.001   3.315 -0.3656  0.4164 -0.7483
   73MOL     C840472   4.184   6.019   3.228 -0.1013  0.6409  0.1714
   73MOL     C940473   4.081   6.100   3.274  0.1675  0.0258  0.0676
   73MOL    C1040474   3.968   6.116   3.202 -0.5835  0.0334  0.2299
   73MOL    C1140475   3.945   6.063   3.081 -0.1732  0.1669  0.6077
   73MOL    N1240476   3.818   6.086   3.016  0.0594  0.3837 -0.5359
   73MOL    C1340477   4.048   5.981   3.029 -0.0900  0.6682 -0.6054
   73MOL    C1440478   4.167   5.957   3.106 -0.3706 -0.0923 -0.8444
   73MOL    O1540479   4.472   5.925   3.187  0.6667  0.0657 -0.5668
   73MOL    C1640480   4.643   5.927   3.420 -0.4975 -0.8548 -0.8612
   73MOL    C1740481   4.724   5.956   3.534 -0.4564  0.0576  0.0842
   73MOL    O1840482   4.735   6.134   3.859  0.5353 -0.3542  0.0096
   73MOL    H1940483   4.543   6.217   3.672  3.4568 -0.7312  1.8389
   73MOL    H2040484   4.403   6.169   3.481 -1.9380 -2.2011  3.5559
   73MOL    H2140485   4.274   6.027   3.411  0.8103 -0.9069 -0.1215
   73MOL    H2240486   4.082   6.148   3.371 -0.5229 -1.7594  0.9815
   73MOL    H2340487   3.886   6.179   3.233  0.5497  2.5098 -1.6865
   73MOL    H2440488   3.753   6.143   3.069 -2.3437 -0.1161 -2.8333
   73MOL    H2540489   4.036   5.931   2.934 -1.9346 -0.3457  0.1385
   73MOL    H2640490   4.253   5.905   3.066  0.6200  0.3445  0.6854
   73MOL    H2740491   4.676   5.844   3.360  3.7133  0.0093  0.0241
   73MOL    H2840492   4.803   5.883   3.549 -1.3481 -0.5163  2.1168
   73MOL    H2940493   4.871   6.041   3.740 -0.9347 -1.9490  2.0286
   73MOL    C3040494   3.770   6.040   2.904  0.3196 -0.0304 -0.6143
   73MOL    C3140495   3.646   6.113   2.860 -0.3527 -0.1919  0.1914
   73MOL    C3240496   3.583   6.217   2.940  0.2604 -0.1008  0.0082
   73MOL    C3340497   3.475   6.290   2.890 -0.3645  1.1101 -0.0877
   73MOL    C3440498   3.421   6.263   2.764  0.9636 -0.9650 -0.2668
   73MOL    C3540499   3.291   6.337   2.723  0.9747  0.8749 -0.0272
   73MOL    N3640500   3.279   6.472   2.732  0.2407  0.1682  0.0144
   73MOL    C3740501   3.380   6.566   2.780 -0.3206 -0.3346  0.6184
   73MOL    C3840502   3.513   6.569   2.725  0.1722  0.9216  0.7375
   73MOL    C3940503   3.613   6.657   2.773  0.2185 -0.0698 -0.0718
   73MOL    C4040504   3.591   6.720   2.896  0.3031 -0.4517  0.4626
   73MOL    N4140505   3.701   6.782   2.956 -0.0263 -0.1651  0.1319
   73MOL    C4240506   3.456   6.716   2.949 -0.2037  0.4000  0.2233
   73MOL    C4340507   3.347   6.649   2.890 -0.0108 -0.6845  0.1736
   73MOL    O4440508   3.196   6.276   2.670 -0.6404 -0.4058 -0.2211
   73MOL    C4540509   3.475   6.162   2.688 -0.1110  0.3904 -0.4652
   73MOL    C4640510   3.594   6.089   2.729 -0.1303  0.1330 -0.6125
   73MOL    O4740511   3.819   5.946   2.836  0.3572 -0.0443  0.1141
   73MOL    H4840512   3.619   6.238   3.039  0.1364 -0.1493  0.0626
   73MOL    H4940513   3.414   6.347   2.958 -3.0147 -2.0233  0.3096
   73MOL    H5040514   3.184   6.505   2.720  0.1862  1.0038  2.3707
   73MOL    H5140515   3.540   6.509   2.639  1.5067  1.5597  0.7062
   73MOL    H5240516   3.710   6.663   2.726 -0.0365  0.2494 -0.5553
   73MOL    H5340517   3.781   6.799   2.896  0.9958 -0.4830  1.3942
   73MOL    H5440518   3.425   6.779   3.031 -1.1238  0.6738 -0.3269
   73MOL    H5540519   3.244   6.657   2.921 -0.2141 -2.7092  0.0849
   73MOL    H5640520   3.428   6.140   2.594 -0.3777  1.2028 -0.5228
   73MOL    H5740521   3.633   6.008   2.669 -1.8636 -0.3922 -1.0754
   73MOL    C5840522   3.714   6.826   3.081  0.1141  0.0056  0.5072
   73MOL    C5940523   3.847   6.881   3.123  0.4220 -0.1496  0.1322
   73MOL    C6040524   3.963   6.805   3.107 -0.3910 -0.1886  0.2153
   73MOL    C6140525   4.082   6.841   3.173  0.0702 -0.4664  0.1717
   73MOL    C6240526   4.087   6.961   3.247 -0.7805  0.0659 -0.0657
   73MOL    C6340527   4.220   7.012   3.301 -0.1862 -0.0116 -0.3231
   73MOL    N6440528   4.295   6.915   3.355  0.0881  0.1111  0.9022
   73MOL    C6540529   4.422   6.918   3.420 -0.3975 -0.6983  0.8543
   73MOL    C6640530   4.479   6.796   3.439  0.2381  0.9018  0.3580
   73MOL    C6740531   4.604   6.784   3.502  0.3962  0.5854 -0.2408
   73MOL    C6840532   4.661   6.898   3.549  0.5780 -0.6624 -0.1564
   73MOL    N6940533   4.785   6.885   3.612  0.5408  0.0313 -0.1889
   73MOL    C7040534   4.594   7.025   3.544 -0.5773  0.0494  0.5212
   73MOL    C7140535   4.470   7.041   3.478  0.3934 -1.0205  0.1586
   73MOL    O7240536   4.244   7.137   3.308  0.5031  0.1004 -0.7131
   73MOL    C7340537   3.971   7.042   3.260 -0.3522  0.2829  0.0016
   73MOL    C7440538   3.849   7.001   3.204  0.1940 -0.1198  0.7108
   73MOL    O7540539   3.622   6.833   3.165  0.4366 -0.4609 -0.1106
   73MOL    H7640540   3.966   6.722   3.038  0.6444 -1.0044  1.2377
   73MOL    H7740541   4.167   6.777   3.153 -0.2346 -0.1501 -2.3906
   73MOL    H7840542   4.253   6.825   3.336  1.2742 -0.0349 -1.0963
   73MOL    H7940543   4.435   6.710   3.390 -3.6719  3.1534 -0.1993
   73MOL    H8040544   4.658   6.691   3.508  1.6670  1.2393 -1.3404
   73MOL    H8140545   4.785   6.919   3.707  1.3514  0.9052 -0.4952
   73MOL    H8240546   4.634   7.108   3.601  1.1354  0.3067 -1.0041
   73MOL    H8340547   4.422   7.138   3.470  0.1916 -1.2298 -1.1962
   73MOL    H8440548   3.978   7.142   3.300 -1.0014  0.8904 -1.3669
   73MOL    H8540549   3.761   7.060   3.227 -0.4829 -0.3081 -1.3178
   73MOL    C8640550   4.894   6.823   3.560 -0.1594 -0.1800 -0.4381
   73MOL    C8740551   5.019   6.801   3.646  0.9059 -0.2404  0.6789
   73MOL    C8840552   5.126   6.722   3.599 -0.7808 -0.2888  0.2646
   73MOL    C8940553   5.232   6.682   3.679 -0.1194 -0.7238 -0.0800
   73MOL    C9040554   5.243   6.731   3.810  0.3711  0.2503 -0.4169
   73MOL    C9140555   5.355   6.682   3.896  0.7016 -0.2677  0.0030
   73MOL    N9240556   5.324   6.660   4.027 -0.2500 -1.1406  0.1640
   73MOL    C9340557   5.422   6.630   4.132 -0.3584 -0.2981 -0.7934
   73MOL    C9440558   5.547   6.566   4.116 -0.3741 -0.2719  0.2837
   73MOL    C9540559   5.627   6.535   4.229  0.2095  0.6555  0.3956
   73MOL    C9640560   5.571   6.548   4.355  0.5837  0.3036 -0.2013
   73MOL    N9740561   5.634   6.484   4.461 -0.2025 -0.7636 -0.1594
   73MOL    C9840562   5.450   6.610   4.368 -0.0497 -0.3723  0.1706
   73MOL    C9940563   5.371   6.647   4.260 -0.1133 -0.2041  0.4742
   73MOL   O10040564   5.462   6.644   3.851  0.8371  0.3198  0.2994
   73MOL   C10140565   5.137   6.817   3.857 -0.4231  0.7257  0.1193
   73MOL   C10240566   5.026   6.852   3.773  0.2403  0.5247 -0.2929
   73MOL   O10340567   4.898   6.775   3.447  0.6827  0.1893  0.6548
   73MOL   H10440568   5.112   6.688   3.498 -0.0799  2.2291 -0.7285
   73MOL   H10540569   5.309   6.620   3.635  1.0743 -0.7320  1.9932
   73MOL   H10640570   5.239   6.701   4.062  0.3040 -0.5891  0.8731
   73MOL   H10740571   5.586   6.538   4.019 -3.6134  0.3252 -1.2693
   73MOL   H10840572   5.724   6.491   4.207  0.0502  1.2185 -1.5233
   73MOL   H10940573   5.734   6.499   4.455 -0.4861  1.5894  0.7078
   73MOL   H11040574   5.415   6.631   4.468 -0.2971 -1.0334  0.2236
   73MOL   H11140575   5.272   6.688   4.274  0.4401  0.9352  1.1176
   73MOL   H11240576   5.148   6.851   3.959  2.4244  0.7437 -0.1692
   73MOL   H11340577   4.943   6.910   3.810  0.8796  0.8434  0.6734
   73MOL   C11440578   5.585   6.405   4.562  0.3581 -0.2920 -0.2954
   73MOL   C11540579   5.443   6.365   4.555  0.4491 -0.6680 -0.1610
   73MOL   C11640580   5.403   6.291   4.438  0.6921 -0.2692 -0.1688
   73MOL   C11740581   5.269   6.265   4.417  0.3747 -0.0812 -0.7659
   73MOL   C11840582   5.167   6.313   4.512 -0.1161  0.7750  0.0686
   73MOL   C11940583   5.021   6.284   4.475  0.2437  0.4429  0.5964
   73MOL   N12040584   4.949   6.393   4.441  0.7935  0.2557  0.0758
   73MOL   C12140585   4.817   6.409   4.402 -0.3452 -0.5111 -0.3926
   73MOL   C12240586   4.718   6.313   4.426  0.1146  0.0801  0.0828
   73MOL   C12340587   4.585   6.334   4.385  0.1942  1.0941  0.0668
   73MOL   C12440588   4.548   6.449   4.318 -0.1739  0.1478 -0.4695
   73MOL   N12540589   4.411   6.456   4.279  0.3155  0.4551 -0.2649
   73MOL   C12640590   4.645   6.549   4.297  0.4638 -0.5945 -0.0416
   73MOL   C12740591   4.778   6.531   4.340  1.0130 -0.4442  0.4198
   73MOL   O12840592   4.970   6.170   4.474  0.0950  0.3482  0.1909
   73MOL   C12940593   5.209   6.372   4.628  0.5062  0.1319 -0.0483
   73MOL   C13040594   5.345   6.399   4.651  0.0892 -0.2825 -0.1111
   73MOL   O13140595   5.668   6.388   4.655  0.1188  0.5554 -0.0462
   73MOL   H13240596   5.471   6.264   4.358  1.1174 -3.0980  1.0927
   73MOL   H13340597   5.229   6.212   4.332  0.5379 -2.0493  0.3574
   73MOL   H13440598   4.992   6.484   4.433 -1.5244  1.4496  0.5746
   73MOL   H13540599   4.739   6.219   4.475 -2.9026 -1.1988 -0.9398
   73MOL   H13640600   4.513   6.254   4.390  0.1756  1.1662  0.9339
   73MOL   H13740601   4.351   6.375   4.283 -2.0469  2.2313  1.7216
   73MOL   H13840602   4.622   6.646   4.255  1.6560 -1.0460 -1.8105
   73MOL   H13940603   4.851   6.611   4.342  2.4256 -1.7283  2.2535
   73MOL   H14040604   5.145   6.405   4.708  2.1298 -0.1623  1.3996
   73MOL   H14140605   5.388   6.458   4.730  0.2175 -0.2872 -0.1780
   73MOL   C14240606   4.347   6.567   4.233 -0.5668 -0.4097  0.1350
   73MOL   C14340607   4.203   6.540   4.200  0.0948 -0.6102  0.4114
   73MOL   C14440608   4.163   6.415   4.146 -0.2929  0.0620  0.0464
   73MOL   C14540609   4.030   6.386   4.107 -0.0626 -0.8102  0.0076
   73MOL   C14640610   3.929   6.487   4.119 -0.3370  0.0022  0.3524
   73MOL   C14740611   3.790   6.450   4.095 -0.3327  0.0485  0.1338
   73MOL   N14840612   3.706   6.508   4.178 -0.5357 -0.3251 -0.4065
   73MOL   C14940613   3.565   6.516   4.165  0.0042  0.1037  0.0471
   73MOL   C15040614   3.516   6.604   4.263  0.5511  0.0711 -0.0865
   73MOL   C15140615   3.373   6.616   4.286  0.1998  0.3362 -0.1619
   73MOL   C15240616   3.284   6.534   4.220  0.5854 -0.7636 -0.3396
   73MOL   N15340617   3.139   6.543   4.231  0.3672 -0.1242  0.3865
   73MOL   C15440618   3.338   6.443   4.125  0.4653  0.1626  0.0139
   73MOL   C15540619   3.476   6.436   4.095  0.1897  0.2700 -0.3292
   73MOL   O15640620   3.751   6.371   4.011 -0.0367 -0.1178 -0.0300
   73MOL   C15740621   3.963   6.616   4.171  0.2569 -0.2417  0.4344
   73MOL   C15840622   4.104   6.642   4.201  0.4265 -0.8589  0.1191
   73MOL   O15940623   4.383   6.682   4.253 -0.8395  0.0380 -0.0465
   73MOL   H16040624   4.230   6.331   4.140  0.5595  0.8924 -2.4598
   73MOL   H16140625   3.998   6.287   4.080 -1.5881 -0.8854  1.9956
   73MOL   H16240626   3.752   6.550   4.257 -0.0443  1.2096 -1.4833
   73MOL   H16340627   3.583   6.661   4.325 -0.8887 -1.2495  2.7727
   73MOL   H16440628   3.328   6.676   4.363  0.9088  1.8238 -0.8918
   73MOL   H16540629   3.081   6.518   4.153 -0.1658  1.5533  0.2420
   73MOL   H16640630   3.275   6.381   4.063  0.0021 -0.8711  1.4736
   73MOL   H16740631   3.520   6.369   4.023  1.8453  0.8465  0.1255
   73MOL   H16840632   3.896   6.699   4.185  1.9094  1.0626  0.7647
   73MOL   H16940633   4.128   6.746   4.218 -0.9068 -0.2360 -1.6184
   73MOL   C17040634   3.069   6.550   4.348  0.4190 -0.0229 -0.1281
   73MOL   C17140635   3.134   6.539   4.483  0.0860 -0.6337 -0.0757
   73MOL   C17240636   3.144   6.644   4.581 -0.9016 -0.2110  0.3651
   73MOL   C17340637   3.188   6.619   4.713 -0.7701  0.4391 -0.2846
   73MOL   C17440638   3.217   6.491   4.754 -0.0430  0.0987 -0.1694
   73MOL   C17540639   3.254   6.464   4.897 -0.1719 -0.8457  0.4794
   73MOL   N17640640   3.338   6.364   4.912  0.0918  0.1931 -0.4522
   73MOL   C17740641   3.402   6.326   5.032 -0.1336  0.6729 -0.3499
   73MOL   C17840642   3.527   6.261   5.026 -0.1860 -0.5254 -0.1160
   73MOL   C17940643   3.585   6.206   5.147  0.8200  0.5087 -0.3762
   73MOL   C18040644   3.522   6.229   5.269  1.0109 -0.8439 -0.3321
   73MOL   N18140645   3.589   6.185   5.379 -0.0694 -0.2756  0.5841
   73MOL   C18240646   3.402   6.306   5.270 -0.0706  0.2267  0.6247
   73MOL   C18340647   3.333   6.339   5.157 -0.2898 -0.0827  0.3161
   73MOL   O18440648   3.222   6.536   4.986 -0.2318 -0.2284  0.7140
   73MOL   C18540649   3.209   6.384   4.655 -0.2728  0.4062  0.3449
   73MOL   C18640650   3.170   6.411   4.519  0.2344 -0.1101 -0.7544
   73MOL   O18740651   2.948   6.574   4.346 -0.0473 -0.2590  0.5134
   73MOL   H18840652   3.121   6.745   4.548  2.2471 -0.0716 -1.5916
   73MOL   H18940653   3.195   6.703   4.780  0.4112  0.1639 -0.0533
   73MOL   H19040654   3.360   6.323   4.822 -1.3995  2.4393 -1.8897
   73MOL   H19140655   3.572   6.231   4.933  2.3857  0.2288  0.8160
   73MOL   H19240656   3.671   6.141   5.146  0.2896 -0.2077 -2.4348
   73MOL   H19340657   3.664   6.119   5.365  0.1360 -0.5389  2.8232
   73MOL   H19440658   3.335   6.311   5.354  0.8738 -0.5472  1.4281
   73MOL   H19540659   3.233   6.377   5.166 -0.4904  0.0950 -2.2860
   73MOL   H19640660   3.228   6.281   4.683  1.0172  0.2597 -1.0439
   73MOL   H19740661   3.163   6.333   4.445  1.0819  0.0558 -1.0150
   73MOL   C19840662   3.582   6.232   5.505  0.6032  0.2323  0.1430
   73MOL   C19940663   3.680   6.170   5.597  0.2651 -0.5821  0.5681
   73MOL   C20040664   3.661   6.171   5.738 -0.0123  0.3576  0.7928
   73MOL   C20140665   3.769   6.124   5.826 -0.0150  0.3448 -0.0255
   73MOL   C20240666   3.880   6.060   5.772 -0.1706  0.2503 -0.4328
   73MOL   C20340667   3.984   6.000   5.867 -0.1472 -0.0551  0.1130
   73MOL   N20440668   3.925   5.962   5.982  0.1017  0.6736 -0.4508
   73MOL   C20540669   3.981   5.961   6.111  1.1503 -0.0634  0.7048
   73MOL   C20640670   3.889   5.933   6.213 -0.1259  0.1499 -0.6787
   73MOL   C20740671   3.935   5.924   6.343  0.6634 -0.1254 -0.8115
   73MOL   C20840672   4.070   5.932   6.375  0.0947 -0.5600 -0.1192
   73MOL   N20940673   4.127   5.927   6.506 -0.2337  0.1798 -0.5557
   73MOL   C21040674   4.169   5.958   6.271 -0.4900 -1.1338  0.0533
   73MOL   C21140675   4.119   5.976   6.138 -0.0171 -0.3252 -0.0083
   73MOL   O21240676   4.106   5.989   5.837 -0.4416  0.4008  0.4905
   73MOL   C21340677   3.892   6.050   5.631  0.2206  0.3406  0.6624
   73MOL   C21440678   3.799   6.113   5.546 -0.0742 -0.0804 -0.3140
   73MOL   O21540679   3.493   6.310   5.550 -0.2108  0.1552 -0.6733
   73MOL   H21640680   3.571   6.211   5.783  0.5194  1.5338  0.8379
   73MOL   H21740681   3.763   6.137   5.933  0.4159  1.5174 -0.1322
   73MOL   H21840682   3.825   5.978   5.983 -0.5399 -2.7622 -1.3609
   73MOL   H21940683   3.782   5.918   6.202 -0.2073  0.8199 -0.8598
   73MOL   H22040684   3.869   5.903   6.426 -0.4296  2.2757 -1.0293
   73MOL   H22140685   4.218   5.968   6.515  0.1659 -1.0657  1.3063
   73MOL   H22240686   4.274   5.961   6.297 -0.1281 -0.4693 -1.4504
   73MOL   H22340687   4.187   5.995   6.056  2.2298  1.9692  2.3141
   73MOL   H22440688   3.983   6.006   5.593 -1.3634 -1.8124 -0.8012
   73MOL   H22540689   3.826   6.106   5.441  1.1766  0.1294 -0.0139
   73MOL   C22640690   4.079   5.860   6.611 -0.4285 -0.0773  0.1448
   73MOL   C22740691   4.148   5.887   6.741  0.0966  0.0912  1.1115
   73MOL   C22840692   4.284   5.913   6.739 -0.1018 -0.8556  0.0341
   73MOL   C22940693   4.353   5.931   6.861  0.1942 -0.2068  0.5007
   73MOL   C23040694   4.290   5.918   6.986  0.4706  0.3094 -0.3054
   73MOL   C23140695   4.366   5.954   7.109 -0.1826 -0.1118  0.4441
   73MOL   N23240696   4.313   5.905   7.223 -0.4856  0.4413 -0.0599
   73MOL   C23340697   4.373   5.915   7.352 -0.1748  0.2229  0.3105
   73MOL   C23440698   4.284   5.929   7.458 -0.0220  0.0323 -0.5586
   73MOL   C23540699   4.331   5.935   7.593  0.7492  0.7325 -0.0503
   73MOL   C23640700   4.466   5.914   7.617  0.3841  0.1679  0.0098
   73MOL   N23740701   4.520   5.917   7.749 -0.1058  0.2618 -0.0320
   73MOL   C23840702   4.553   5.887   7.514  0.2347  0.3734 -0.0565
   73MOL   C23940703   4.508   5.885   7.382  0.1971 -0.7073 -0.1654
   73MOL   O24040704   4.475   6.005   7.105  0.3529  0.0202 -0.1130
   73MOL   C24140705   4.146   5.898   6.985  0.8124 -0.3108 -0.5884
   73MOL   C24240706   4.081   5.872   6.863 -0.3246 -0.1569 -0.2002
   73MOL   O24340707   3.981   5.789   6.602 -0.0383 -0.4221  0.6838
   73MOL   H24440708   4.332   5.903   6.643 -0.7129 -1.3132 -0.2249
   73MOL   H24540709   4.459   5.953   6.857  0.2226 -0.5719 -0.8885
   73MOL   H24640710   4.231   5.847   7.215  0.0971 -0.3712 -0.2907
   73MOL   H24740711   4.179   5.953   7.449 -0.1704 -0.0564  0.7863
   73MOL   H24840712   4.258   5.941   7.673  1.0166 -1.1233  0.3650
   73MOL   H24940713   4.604   5.968   7.774  0.0612 -0.4483  0.9212
   73MOL   H25040714   4.655   5.863   7.541 -0.7379 -2.4597  1.3569
   73MOL   H25140715   4.575   5.871   7.299 -1.8970 -1.3200 -1.8023
   73MOL   H25240716   4.091   5.905   7.077 -2.4838  1.8314 -2.6491
   73MOL   H25340717   3.974   5.866   6.848 -0.1373  1.6423 -2.3641
   73MOL   C25440718   4.455   5.874   7.856  0.6443 -0.3699  0.4238
   73MOL   C25540719   4.520   5.907   7.985  0.7556  0.5424  0.5595
   73MOL   C25640720   4.560   6.032   8.020  0.1582 -0.1515  0.5551
   73MOL   C25740721   4.609   6.060   0.000 -0.1069 -0.4094  0.7384
   73MOL   C25840722   4.614   5.962   0.101  0.3628  0.1107 -0.0300
   73MOL   C25940723   4.666   5.991   0.241 -0.7457 -0.5096  0.0597
   73MOL   N26040724   4.669   6.119   0.272  0.1046 -0.1694 -0.2336
   73MOL   C26140725   4.708   6.173   0.403 -0.2666  0.0533  0.3172
   73MOL   C26240726   4.720   6.316   0.400 -0.8272 -0.2691 -0.4060
   73MOL   C26340727   4.756   6.382   0.514 -0.4540  0.2635 -0.4224
   73MOL   C26440728   4.779   6.310   0.634  0.4237  0.0157 -0.6013
   73MOL   N26540729   4.807   6.395   0.745 -0.4070  0.2014 -0.1946
   73MOL   C26640730   4.771   6.165   0.635 -0.7761  1.3709 -0.2849
   73MOL   C26740731   4.736   6.100   0.517 -0.0930 -0.5940 -0.6378
   73MOL   O26840732   4.710   5.900   0.309  0.1164 -0.0448  0.6385
   73MOL   C26940733   4.573   5.836   0.068  0.1499 -0.0298  0.1424
   73MOL   C27040734   4.519   5.807   8.084 -0.1358 -0.0659 -0.1283
   73MOL   O27140735   4.351   5.805   7.853 -0.4449  0.5488  0.1761
   73MOL   H27240736   4.559   6.111   7.946 -0.5422 -0.7595 -0.0946
   73MOL   H27340737   4.644   6.161   0.016  0.3587 -0.6562  1.3233
   73MOL   H27440738   4.648   6.186   0.200  0.9061  1.1812  0.7807
   73MOL   H27540739   4.720   6.372   0.307  0.6967  0.1954 -0.1393
   73MOL   H27640740   4.774   6.489   0.511  1.8715 -0.0843 -0.0836
   73MOL   H27740741   4.794   6.495   0.745  0.8276  0.3761 -2.0871
   73MOL   H27840742   4.795   6.118   0.729  0.7190 -0.9603 -1.7949
   73MOL   H27940743   4.733   5.992   0.524  1.9194 -0.5821  0.9477
   73MOL   H28040744   4.568   5.755   0.140 -0.7788 -0.2528 -0.1598
   73MOL   H28140745   4.484   5.708   8.059 -0.1625 -1.1281  3.8037
   73MOL   C28240746   4.871   6.364   0.857  0.4593 -0.1378  0.3022
   73MOL   C28340747   4.898   6.483   0.943  0.6790 -0.9079  0.3906
   73MOL   C28440748   4.937   6.463   1.076  0.1340  0.2572  0.7293
   73MOL   C28540749   5.001   6.568   1.143 -0.4092 -0.6587  0.4190
   73MOL   C28640750   5.021   6.696   1.080 -0.6727 -0.0821  0.0047
   73MOL   C28740751   5.101   6.799   1.148  0.3530 -0.2448  0.0371
   73MOL   N28840752   5.220   6.822   1.098 -0.4349 -0.2247 -0.1437
   73MOL   C28940753   5.267   6.742   0.987 -0.2435  0.2420 -0.7854
   73MOL   C29040754   5.270   6.795   0.859  0.4714 -0.0916 -0.2346
   73MOL   C29140755   5.305   6.719   0.746 -0.0964  0.6958  0.0876
   73MOL   C29240756   5.349   6.582   0.768  0.3508  0.7026 -0.6048
   73MOL   N29340757   5.394   6.510   0.650  0.4583 -0.2340 -0.2325
   73MOL   C29440758   5.358   6.534   0.905  0.3657 -0.3682 -0.5115
   73MOL   C29540759   5.319   6.616   1.013 -0.5207 -0.3404 -0.4035
   73MOL   O29640760   5.071   6.848   1.255  0.4263  0.5059  0.2007
   73MOL   C29740761   4.975   6.720   0.951 -0.4551  0.7287 -0.3245
   73MOL   C29840762   4.917   6.611   0.879 -0.0612  0.0013 -0.4599
   73MOL   O29940763   4.912   6.252   0.887  0.6806  0.1458 -0.3744
   73MOL   H30040764   4.926   6.366   1.123 -0.0690  0.6133  1.4212
   73MOL   H30140765   5.040   6.555   1.243  0.9289  1.4571  0.2040
   73MOL   H30240766   5.284   6.890   1.135  1.2303 -0.9777 -1.5154
   73MOL   H30340767   5.237   6.897   0.846 -0.3003  0.0757  2.5598
   73MOL   H30440768   5.307   6.767   0.649  0.0950 -1.5207 -1.0256
   73MOL   H30540769   5.426   6.558   0.567  2.3903 -1.9601 -0.5244
   73MOL   H30640770   5.402   6.437   0.920  0.2839  0.0039  2.4157
   73MOL   H30740771   5.323   6.577   1.114  0.5054 -0.0525 -0.3255
   73MOL   H30840772   4.985   6.814   0.900  2.0986  1.8532  2.0789
   73MOL   H30940773   4.888   6.635   0.778 -1.6635 -3.0665 -0.7834
   73MOL   C31040774   5.394   6.375   0.629  0.2591 -0.6944  0.2616
   73MOL   C31140775   5.412   6.348   0.488 -0.2097 -0.0776  0.0854
   73MOL   C31240776   5.531   6.291   0.450 -0.8397  0.6038  1.2071
   73MOL   C31340777   5.548   6.241   0.322 -0.2785  0.4120 -0.0953
   73MOL   C31440778   5.448   6.252   0.225 -0.2906  0.5504 -0.0457
   73MOL   C31540779   5.473   6.220   0.080  0.5689  1.1434 -0.3823
   73MOL   N31640780   5.366   6.211   8.143  0.1301 -0.2114  0.8023
   73MOL   C31740781   5.361   6.188   8.001  0.3098  0.2433 -0.3654
   73MOL   C31840782   5.253   6.237   7.933  1.0577 -0.0047 -0.3749
   73MOL   C31940783   5.228   6.198   7.800  0.0314 -0.2820 -0.4518
   73MOL   C32040784   5.320   6.110   7.738  0.6898 -0.0908 -0.2294
   73MOL   N32140785   5.301   6.061   7.606  0.0044  0.6375  0.2613
   73MOL   C32240786   5.434   6.067   7.810 -0.4189  0.3018  0.1429
   73MOL   C32340787   5.452   6.101   7.941  0.2158 -0.8616  0.5965
   73MOL   O32440788   5.587   6.206   0.042 -0.0009  0.4280 -0.1355
   73MOL   C32540789   5.324   6.313   0.265  0.0996 -0.4617  0.3112
   73MOL   C32640790   5.310   6.363   0.394  0.5756  0.0333 -0.2487
   73MOL   O32740791   5.378   6.285   0.715 -0.6379 -0.0925 -0.0996
   73MOL   H32840792   5.615   6.275   0.515 -0.0622  1.4344  0.4209
   73MOL   H32940793   5.650   6.228   0.291 -0.1025 -2.2700  1.5049
   73MOL   H33040794   5.280   6.201   0.050 -0.5281  1.4582  0.0791
   73MOL   H33140795   5.178   6.294   7.986 -0.7382 -1.4688 -1.2733
   73MOL   H33240796   5.147   6.241   7.743 -1.3437 -0.8055  1.0727
   73MOL   H33340797   5.354   5.978   7.581  1.7395  1.8864 -0.2766
   73MOL   H33440798   5.507   6.002   7.765 -0.9010 -0.2315  0.1306
   73MOL   H33540799   5.533   6.059   7.999  1.5262 -1.2451 -1.4548
   73MOL   H33640800   5.245   6.317   0.191  1.2173 -0.2760 -0.9029
   73MOL   H33740801   5.211   6.398   0.417  0.8927  1.5449 -1.1284
   73MOL   C33840802   5.236   6.122   7.507  0.0722  0.2544 -0.1599
   73MOL   C33940803   5.228   6.041   7.376 -0.2945 -0.3550 -0.0555
   73MOL   C34040804   5.286   5.913   7.363 -0.3929  0.1294 -0.2348
   73MOL   C34140805   5.265   5.832   7.256 -0.5157 -0.3867  0.5190
   73MOL   C34240806   5.186   5.881   7.149  0.5483  0.0528  0.2706
   73MOL   C34340807   5.141   5.790   7.043 -0.1349  0.2730 -0.0467
   73MOL   N34440808   5.123   5.848   6.924 -0.8015  0.0458  0.5784
   73MOL   C34540809   5.097   5.786   6.799 -0.6976  0.1855 -0.1330
   73MOL   C34640810   5.027   5.663   6.791  0.8383  0.4282  0.2191
   73MOL   C34740811   4.995   5.598   6.671  0.1756  0.5127 -0.0256
   73MOL   C34840812   5.018   5.675   6.553 -0.0000 -0.3168 -0.0023
   73MOL   N34940813   4.968   5.633   6.434  0.3836 -0.3308  0.2112
   73MOL   C35040814   5.096   5.800   6.558 -0.6044  0.5613  0.0479
   73MOL   C35140815   5.146   5.845   6.682  0.1361 -0.0545  0.6713
   73MOL   O35240816   5.126   5.673   7.071 -0.4950  0.0848  0.3441
   73MOL   C35340817   5.139   6.020   7.152 -0.6637  0.3675 -0.2227
   73MOL   C35440818   5.164   6.099   7.268 -0.1398 -0.1102  0.0965
   73MOL   O35540819   5.170   6.224   7.512 -0.8706 -0.5911  0.8779
   73MOL   H35640820   5.344   5.870   7.444 -3.5902  0.1010  2.1440
   73MOL   H35740821   5.315   5.738   7.239 -1.0314 -0.6736  0.5766
   73MOL   H35840822   5.142   5.947   6.930 -0.3750 -0.0346  0.5635
   73MOL   H35940823   5.006   5.620   6.888 -2.0243  0.6712 -0.2610
   73MOL   H36040824   4.935   5.509   6.669  0.2747  0.4634 -0.9315
   73MOL   H36140825   4.957   5.536   6.408  0.9236 -0.9413  2.1389
   73MOL   H36240826   5.101   5.853   6.464  0.3000 -1.5222 -1.1017
   73MOL   H36340827   5.193   5.943   6.681 -0.6203  0.3614 -3.1817
   73MOL   H36440828   5.078   6.056   7.071  0.6659 -0.1702 -1.4690
   73MOL   H36540829   5.126   6.200   7.272 -1.7366 -0.6908 -0.1649
   73MOL   C36640830   4.902   5.705   6.343  1.1936 -0.0819 -0.5307
   73MOL   C36740831   4.863   5.628   6.222 -0.0749 -0.2133  0.6839
   73MOL   C36840832   4.849   5.489   6.227 -0.6382  0.1860  0.9951
   73MOL   C36940833   4.796   5.425   6.110  0.8768 -0.1617 -0.2832
   73MOL   C37040834   4.765   5.489   5.993  0.4547  0.3340 -0.0910
   73MOL   C37140835   4.738   5.420   5.862 -0.8273 -0.4394 -0.8509
   73MOL   N37240836   4.630   5.468   5.801 -0.0539  0.1084 -0.0168
   73MOL   C37340837   4.591   5.410   5.677 -0.2328  0.3653  0.2563
   73MOL   C37440838   4.566   5.489   5.566 -0.0184  0.0747  0.0622
   73MOL   C37540839   4.537   5.429   5.444  0.5223 -0.2863 -0.0077
   73MOL   C37640840   4.503   5.290   5.435 -0.4608 -0.1154 -0.4489
   73MOL   N37740841   4.474   5.227   5.313  0.6475  0.5544 -0.1592
   73MOL   C37840842   4.520   5.215   5.554 -0.0699 -0.2068 -0.0412
   73MOL   C37940843   4.551   5.277   5.678 -0.4299 -0.2610  0.4277
   73MOL   O38040844   4.806   5.319   5.835 -0.5829 -0.0581  0.4347
   73MOL   C38140845   4.769   5.628   5.990 -0.2124 -0.4287 -0.0898
   73MOL   C38240846   4.820   5.697   6.102 -0.5146  0.7329 -0.2681
   73MOL   O38340847   4.878   5.828   6.352  0.3820 -0.0099 -0.2463
   73MOL   H38440848   4.870   5.427   6.312 -0.5326  2.1532  2.4297
   73MOL   H38540849   4.792   5.317   6.109 -0.7215 -0.1156 -0.1227
   73MOL   H38640850   4.577   5.543   5.842 -0.2045 -0.2682  0.4930
   73MOL   H38740851   4.587   5.595   5.565 -2.6174  0.6293  0.4920
   73MOL   H38840852   4.523   5.498   5.362 -1.4787  0.0875  0.6157
   73MOL   H38940853   4.532   5.147   5.292  0.8602  1.8107 -5.1693
   73MOL   H39040854   4.503   5.108   5.552  1.1210 -0.3876 -1.2967
   73MOL   H39140855   4.555   5.211   5.764  1.8451  0.3164  0.8073
   73MOL   H39240856   4.737   5.689   5.906 -0.5336 -2.2022 -1.2759
   73MOL   H39340857   4.803   5.804   6.106 -1.7433  0.5376 -0.0663
   73MOL   C39440858   4.389   5.265   5.214 -0.1303 -0.2430 -1.1921
   73MOL   C39540859   4.374   5.180   5.098 -0.1779  0.5154 -0.4217
   73MOL   C39640860   4.290   5.213   4.988  0.6082  0.2480  0.3103
   73MOL   C39740861   4.289   5.140   4.866  0.0568  0.4385 -0.1087
   73MOL   C39840862   4.370   5.023   4.860  0.1824  0.6113  0.0930
   73MOL   C39940863   4.376   4.946   4.728 -0.2733 -0.1441 -1.0826
   73MOL   N40040864   4.256   4.930   4.661  0.1937  0.3500  0.0300
   73MOL   C40140865   4.226   4.871   4.535 -0.4689  0.5838  0.1737
   73MOL   C40240866   4.089   4.837   4.515 -0.2199 -0.4666  0.1240
   73MOL   C40340867   4.044   4.802   4.391 -0.2653  0.2651  0.6911
   73MOL   C40440868   4.134   4.788   4.281 -0.0239  1.3202 -0.4561
   73MOL   N40540869   4.104   4.739   4.150 -0.0031  0.4984  0.6022
   73MOL   C40640870   4.273   4.809   4.304 -0.2263  0.0321 -0.3515
   73MOL   C40740871   4.314   4.852   4.431  0.5539 -0.4315  0.1348
   73MOL   O40840872   4.488   4.903   4.681  0.8982  0.0277  0.4073
   73MOL   C40940873   4.454   4.985   4.968 -0.1634  0.1510  0.2254
   73MOL   C41040874   4.452   5.057   5.090  0.3843 -0.1469 -0.0869
   73MOL   O41140875   4.324   5.374   5.223 -0.3455  0.2337 -0.0619
   73MOL   H41240876   4.230   5.302   4.993  1.5400  0.9438 -0.6772
   73MOL   H41340877   4.226   5.173   4.785 -1.0749  3.3488  1.8495
   73MOL   H41440878   4.171   4.967   4.701  0.8514  1.0395  0.8083
   73MOL   H41540879   4.022   4.846   4.598  0.8717  0.0792  0.9660
   73MOL   H41640880   3.940   4.791   4.365  0.3983 -2.6410 -0.9779
   73MOL   H41740881   4.187   4.723   4.095  1.5204  4.0973  1.6731
   73MOL   H41840882   4.351   4.800   4.230  2.6507  0.4153  2.5212
   73MOL   H41940883   4.416   4.869   4.461 -0.5982  1.0475  3.4135
   73MOL   H42040884   4.529   4.908   4.958 -0.7466 -0.4386  0.3349
   73MOL   H42140885   4.515   5.019   5.169  1.5540  1.0155 -0.4456
   73MOL   C42240886   3.998   4.674   4.099 -0.1296  0.1951 -0.1144
   73MOL   C42340887   4.021   4.585   3.985  0.3072  0.1695  0.0281
   73MOL   C42440888   4.099   4.625   3.874  0.1229  0.3689 -0.4889
   73MOL   C42540889   4.152   4.526   3.786  0.1577  0.2048 -0.0921
   73MOL   C42640890   4.102   4.391   3.795 -0.2810 -0.5433 -0.2765
   73MOL   C42740891   4.174   4.290   3.709 -0.0988  0.2313 -0.4403
   73MOL   N42840892   4.096   4.187   3.671  0.2013  0.1820  0.4346
   73MOL   C42940893   4.155   4.069   3.615  0.2836 -0.2775 -0.4244
   73MOL   C43040894   4.271   4.017   3.668  0.4592  0.7485  0.7562
   73MOL   C43140895   4.329   3.895   3.626  0.0415  0.4484  0.3716
   73MOL   C43240896   4.257   3.811   3.536  0.2223  0.5513  0.3352
   73MOL   N43340897   4.305   3.686   3.496 -0.4747  0.2024 -0.9645
   73MOL   C43440898   4.142   3.861   3.477  0.6567  0.8191 -0.3919
   73MOL   C43540899   4.093   3.994   3.514 -0.2244 -0.5646  0.6900
   73MOL   O43640900   4.291   4.312   3.668  0.1421 -0.0559  0.9117
   73MOL   C43740901   4.009   4.357   3.901  0.6146  0.2806  0.1434
   73MOL   C43840902   3.969   4.452   3.995 -0.5318 -0.5769 -0.7196
   73MOL   O43940903   3.888   4.676   4.150  0.0141 -0.4106  0.0666
   73MOL   H44040904   4.127   4.729   3.863 -1.4827  1.0930  1.8357
   73MOL   H44140905   4.245   4.549   3.737  1.4335 -1.7474  1.3173
   73MOL   H44240906   3.997   4.196   3.686  0.5233  2.1060  1.6450
   73MOL   H44340907   4.317   4.059   3.756  0.9841  0.1980  0.7493
   73MOL   H44440908   4.426   3.855   3.653  0.1995  0.3583 -0.3262
   73MOL   H44540909   4.329   3.666   3.400 -3.6068 -0.0632 -1.7310
   73MOL   H44640910   4.090   3.805   3.400  1.1164  0.8452 -0.7249
   73MOL   H44740911   3.997   4.024   3.473 -1.6192 -2.2164  2.6120
   73MOL   H44840912   3.972   4.255   3.892  0.7170  0.3051 -0.5750
   73MOL   H44940913   3.908   4.423   4.080  1.2681  0.1162  0.8397
   73MOL   C45040914   4.327   3.581   3.579 -0.5043  0.3479  0.1399
   73MOL   C45140915   4.294   3.590   3.723  0.4983 -0.2843  0.2537
   73MOL   C45240916   4.374   3.516   3.814 -0.0928 -0.0243 -0.1127
   73MOL   C45340917   4.325   3.511   3.948  0.0499 -0.3215 -0.5663
   73MOL   C45440918   4.204   3.566   3.985  0.6806 -0.3435  0.4396
   73MOL   C45540919   4.160   3.563   4.130  0.4436 -0.2252 -0.4400
   73MOL   N45640920   4.128   3.442   4.184  0.2547 -0.1018  0.2627
   73MOL   C45740921   4.093   3.404   4.318 -0.1764  0.0178  0.1555
   73MOL   C45840922   4.099   3.499   4.423 -0.1767  0.3363 -0.2373
   73MOL   C45940923   4.079   3.454   4.554 -0.1579 -0.0166 -0.4716
   73MOL   C46040924   4.055   3.321   4.584 -0.2183  0.8685 -0.5239
   73MOL   N46140925   4.051   3.286   4.718  0.0733  0.0725 -0.2462
   73MOL   C46240926   4.055   3.225   4.482  0.0253 -0.3311  0.7664
   73MOL   C46340927   4.071   3.272   4.346  0.4548  0.6741 -0.0608
   73MOL   O46440928   4.142   3.677   4.180  0.7406  0.3532 -0.2943
   73MOL   C46540929   4.124   3.635   3.894 -0.2908  0.3027  0.0448
   73MOL   C46640930   4.165   3.637   3.763  0.6192  0.1791  0.0061
   73MOL   O46740931   4.362   3.479   3.526 -0.0703  0.3489  0.2929
   73MOL   H46840932   4.470   3.474   3.788 -0.4552 -1.4373  0.7825
   73MOL   H46940933   4.382   3.448   4.014 -1.6088  0.3131  1.5011
   73MOL   H47040934   4.150   3.366   4.121  2.2918 -0.0157  0.8481
   73MOL   H47140935   4.135   3.599   4.401 -1.0850  0.4864 -1.1119
   73MOL   H47240936   4.083   3.526   4.635  1.3392  1.5799 -1.9334
   73MOL   H47340937   4.080   3.362   4.777  0.1016 -1.7722  2.2253
   73MOL   H47440938   4.038   3.119   4.496 -3.5821 -0.4148 -3.2807
   73MOL   H47540939   4.068   3.204   4.262  0.8222 -2.0876  2.1209
   73MOL   H47640940   4.036   3.687   3.928 -0.5219 -0.5274  0.7361
   73MOL   H47740941   4.105   3.688   3.689 -0.4997 -0.8284  0.1965
   73MOL   C47840942   4.046   3.165   4.774 -0.2942  0.3368  0.1414
   73MOL   C47940943   4.086   3.152   4.922 -0.1409  0.0573 -0.6722
   73MOL   C48040944   4.040   3.044   4.997 -0.0844  0.8301 -0.1561
   73MOL   C48140945   4.078   3.030   5.134  0.0451  0.3920 -0.1538
   73MOL   C48240946   4.176   3.119   5.186 -0.2723 -0.8700  0.1572
   73MOL   C48340947   4.225   3.106   5.327  0.1688 -0.3247 -0.1940
   73MOL   N48440948   4.148   3.024   5.401  0.3348  0.0949 -0.0302
   73MOL   C48540949   4.183   2.993   5.535  0.1542  0.3321 -0.8495
   73MOL   C48640950   4.199   2.860   5.569  0.1867 -0.5648  0.4401
   73MOL   C48740951   4.224   2.824   5.695  0.1292  0.4310 -1.2811
   73MOL   C48840952   4.228   2.919   5.801  0.3381  0.0219  0.1492
   73MOL   N48940953   4.263   2.861   5.930 -0.0734  0.6141 -0.5683
   73MOL   C49040954   4.211   3.053   5.771 -0.6391  0.1748  0.2593
   73MOL   C49140955   4.181   3.093   5.634  0.6922  0.3569  0.7406
   73MOL   O49240956   4.326   3.161   5.366 -0.2301  0.1176  0.2194
   73MOL   C49340957   4.227   3.224   5.110  0.8688  0.4397  0.2402
   73MOL   C49440958   4.187   3.237   4.977  0.5395  0.4515 -0.6260
   73MOL   O49540959   4.002   3.067   4.721  0.3219 -0.1277  0.1473
   73MOL   H49640960   3.970   2.976   4.951 -1.3103  1.9675 -0.0125
   73MOL   H49740961   4.052   2.943   5.192 -2.4803  2.2731  1.7026
   73MOL   H49840962   4.082   2.964   5.354  0.4699 -1.6486  1.9131
   73MOL   H49940963   4.221   2.778   5.501 -0.6982 -1.3179  1.0501
   73MOL   H50040964   4.246   2.722   5.723 -0.1773  0.2428 -1.7270
   73MOL   H50140965   4.286   2.763   5.917 -2.5518  0.2104 -2.2567
   73MOL   H50240966   4.210   3.136   5.839  1.1448 -0.6478  1.3212
   73MOL   H50340967   4.165   3.197   5.611  0.0440  0.5840  2.1719
   73MOL   H50440968   4.290   3.299   5.156  3.2091 -0.5633 -1.2573
   73MOL   H50540969   4.217   3.325   4.921  0.7543 -0.7904 -2.4987
   73MOL   C50640970   4.249   2.897   6.057  0.2729 -0.4436  0.1700
   73MOL   C50740971   4.226   3.043   6.083 -0.0216 -0.7117  0.0200
   73MOL   C50840972   4.329   3.124   6.133  0.0512 -0.0860 -0.0508
   73MOL   C50940973   4.305   3.263   6.169 -0.0377  0.3359 -0.0692
   73MOL   C51040974   4.174   3.315   6.165  1.2631 -0.7551 -1.0603
   73MOL   C51140975   4.146   3.453   6.214 -0.0742  0.5290  0.8490
   73MOL   N51240976   4.087   3.542   6.132  0.5835  0.2421  0.5648
   73MOL   C51340977   4.061   3.548   5.990  0.3835 -0.1913 -0.7744
   73MOL   C51440978   3.965   3.639   5.942  0.0067  0.0674  0.5850
   73MOL   C51540979   3.943   3.656   5.803 -0.6178  0.2237 -0.3493
   73MOL   C51640980   4.010   3.581   5.707 -0.0963  0.1008  0.5325
   73MOL   N51740981   4.000   3.611   5.570 -0.7122  0.1642 -0.1316
   73MOL   C51840982   4.110   3.490   5.757  0.2822 -0.7439  0.3149
   73MOL   C51940983   4.136   3.475   5.895  0.2921  0.2352  0.4249
   73MOL   O52040984   4.171   3.477   6.328  0.3686 -0.3350 -0.0465
   73MOL   C52140985   4.069   3.232   6.122 -0.0153  0.6199 -0.5589
   73MOL   C52240986   4.097   3.098   6.081  0.5713  0.5230 -0.0838
   73MOL   O52340987   4.274   2.819   6.150  0.2858  0.2281 -0.4818
   73MOL   H52440988   4.427   3.084   6.154 -0.0572  0.6189  2.0237
   73MOL   H52540989   4.388   3.324   6.200  0.4520  0.2162 -1.1324
   73MOL   H52640990   4.063   3.631   6.174  0.8724  2.0902 -2.9323
   73MOL   H52740991   3.914   3.704   6.012  0.0028  0.6452  0.0408
   73MOL   H52840992   3.870   3.729   5.770  0.7923  2.2223  0.8415
   73MOL   H52940993   3.969   3.703   5.543 -0.8531  0.4438  0.9586
   73MOL   H53040994   4.173   3.439   5.687 -0.0291 -0.9371  0.1728
   73MOL   H53140995   4.212   3.401   5.918  1.5924  0.5488 -2.6249
   73MOL   H53240996   3.967   3.267   6.122 -0.1506  0.2716  1.2230
   73MOL   H53340997   4.015   3.032   6.053  1.9189  0.1657 -3.4705
   73MOL   C53440998   4.025   3.531   5.464 -0.4751 -0.4139  0.5491
   73MOL   C53540999   3.987   3.593   5.330  0.4016  0.9643  0.0078
   73MOL   C53641000   4.052   3.553   5.216  0.2489  0.2175  0.3990
   73MOL   C53741001   4.018   3.603   5.087  0.1066 -0.1634 -0.0487
   73MOL   C53841002   3.901   3.669   5.074  0.2986 -0.6143  0.3358
   73MOL   C53941003   3.863   3.713   4.934  0.3986  0.8750 -0.2096
   73MOL   N54041004   3.740   3.758   4.916  0.1494  0.4337 -0.0953
   73MOL   C54141005   3.685   3.813   4.796 -0.6189  0.4247 -0.4247
   73MOL   C54241006   3.764   3.891   4.705  0.3299  0.0726  0.0870
   73MOL   C54341007   3.705   3.930   4.584 -0.0627  0.2152  0.0783
   73MOL   C54441008   3.578   3.887   4.543 -0.3909  0.3143  0.3044
   73MOL   N54541009   3.537   3.917   4.413 -0.1592 -0.3139  0.2869
   73MOL   C54641010   3.506   3.804   4.633  0.6030 -0.0700  1.1649
   73MOL   C54741011   3.558   3.779   4.761 -0.1458  0.1686  0.0365
   73MOL   O54841012   3.944   3.700   4.844 -0.1695  0.5544 -0.3485
   73MOL   C54941013   3.820   3.700   5.189  0.0051 -0.1544  0.4976
   73MOL   C55041014   3.872   3.673   5.319 -0.2671  1.1934  0.0531
   73MOL   O55141015   4.080   3.419   5.469 -0.3590 -0.2014 -0.0748
   73MOL   H55241016   4.131   3.480   5.213  0.0343  0.0250 -0.4028
   73MOL   H55341017   4.070   3.576   4.997 -0.5878  1.1280 -0.8453
   73MOL   H55441018   3.670   3.761   4.989 -0.3126 -1.0412 -0.4625
   73MOL   H55541019   3.862   3.921   4.738  0.6682  0.3212 -1.1480
   73MOL   H55641020   3.765   3.985   4.512  1.7119 -1.1425  0.4759
   73MOL   H55741021   3.467   3.853   4.379 -0.1013 -0.1664 -0.1132
   73MOL   H55841022   3.410   3.760   4.610  0.9677  0.1335 -0.8841
   73MOL   H55941023   3.501   3.709   4.820  0.4899 -1.4037 -1.1748
   73MOL   H56041024   3.731   3.757   5.168  1.0157  0.8954 -1.0907
   73MOL   H56141025   3.817   3.692   5.410  0.6265  1.2899  0.5730
   73MOL   H56241026   3.614   3.935   4.351 -0.5979 -0.9611 -0.4452
   74MOL     C141027   2.833   5.253   1.056  0.1925 -0.1979 -0.6905
   74MOL     C241028   2.802   5.182   0.932 -0.5479  0.5808  0.2232
   74MOL     C341029   2.686   5.237   0.862 -0.2391  0.3561 -0.2209
   74MOL     C441030   2.667   5.183   0.735 -0.1071 -0.2222 -0.1967
   74MOL     C541031   2.725   5.057   0.700  0.3922  0.6832 -0.6214
   74MOL     C641032   2.683   4.986   0.573 -0.6548 -0.5453 -0.3385
   74MOL     N741033   2.693   4.855   0.562  0.5638  0.3464 -0.2331
   74MOL     C841034   2.661   4.774   0.450 -0.6657 -0.5259 -0.0916
   74MOL     C941035   2.748   4.679   0.400  0.8898 -0.0083 -1.1045
   74MOL    C1041036   2.716   4.610   0.280 -0.0994  0.1141  0.2166
   74MOL    C1141037   2.596   4.647   0.206 -0.2412 -0.7740 -0.2910
   74MOL    N1241038   2.551   4.579   0.089 -0.1753 -0.1341 -0.4659
   74MOL    C1341039   2.504   4.745   0.256 -0.4339 -0.4177  0.0181
   74MOL    C1441040   2.539   4.803   0.382 -0.2366 -0.5653 -0.6814
   74MOL    O1541041   2.655   5.056   0.478 -0.0726  0.0288  0.9037
   74MOL    C1641042   2.837   5.009   0.769 -0.5460 -0.2294 -1.1200
   74MOL    C1741043   2.874   5.068   0.888  0.2245  0.0751 -0.5566
   74MOL    O1841044   2.922   5.245   1.135 -0.2604 -0.0787  0.0777
   74MOL    H1941045   2.635   5.327   0.892 -0.3920 -0.1899  1.1984
   74MOL    H2041046   2.589   5.214   0.667 -2.4789 -0.3681  2.3514
   74MOL    H2141047   2.728   4.814   0.647 -2.2137 -0.2800  0.6451
   74MOL    H2241048   2.843   4.667   0.449  0.2876  1.2991  0.4397
   74MOL    H2341049   2.782   4.536   0.235  0.1459  0.2258  0.3910
   74MOL    H2441050   2.462   4.616   0.058 -0.1347  0.8271  0.5036
   74MOL    H2541051   2.415   4.778   0.203 -0.0053  0.4384 -0.1860
   74MOL    H2641052   2.481   4.883   0.426 -0.5639 -1.6227  0.8436
   74MOL    H2741053   2.892   4.922   0.738 -0.0730  0.6484 -2.8504
   74MOL    H2841054   2.944   5.021   0.955 -1.8536 -1.0075  0.8945
   74MOL    H2941055   2.748   5.316   1.083  0.8934  0.1800  0.6519
   74MOL    C3041056   2.605   4.477   0.015 -0.1004 -0.4217  0.2691
   74MOL    C3141057   2.542   4.454   8.029 -0.2903  0.1258 -0.7622
   74MOL    C3241058   2.400   4.466   8.022  0.4200  0.7610 -0.3875
   74MOL    C3341059   2.331   4.450   7.900  0.1708 -0.6351 -0.1919
   74MOL    C3441060   2.407   4.430   7.784  0.1169 -0.1920 -0.5496
   74MOL    C3541061   2.340   4.419   7.648  0.0797  0.4141  0.1311
   74MOL    N3641062   2.205   4.410   7.653  0.4856  0.5874 -0.4307
   74MOL    C3741063   2.116   4.424   7.545  0.2602  0.4276 -0.0979
   74MOL    C3841064   1.995   4.345   7.535  0.0277 -0.5685 -0.3857
   74MOL    C3941065   1.905   4.366   7.433 -0.2893 -0.0139  0.0932
   74MOL    C4041066   1.926   4.469   7.341  0.8503 -0.7602  0.6747
   74MOL    N4141067   1.840   4.469   7.226  0.3631  0.4725 -0.1497
   74MOL    C4241068   2.043   4.553   7.351 -0.0029 -0.1076 -0.1125
   74MOL    C4341069   2.134   4.529   7.457 -0.0744 -0.0203  0.1155
   74MOL    O4441070   2.404   4.422   7.537  0.1556 -0.2920 -0.1204
   74MOL    C4541071   2.547   4.419   7.791 -0.3022  0.4633  0.0797
   74MOL    C4641072   2.612   4.430   7.915 -0.6873 -1.0786 -0.0615
   74MOL    O4741073   2.694   4.403   0.054  0.2277  0.0629 -0.2762
   74MOL    H4841074   2.345   4.488   8.112 -0.6882  1.3319 -1.1847
   74MOL    H4941075   2.224   4.464   7.897  0.2929  0.4525  0.3495
   74MOL    H5041076   2.161   4.396   7.742 -0.0123 -0.2577 -0.8141
   74MOL    H5141077   1.974   4.260   7.599 -0.8146  0.2085  0.3782
   74MOL    H5241078   1.817   4.305   7.429 -0.2717 -0.2711  2.6498
   74MOL    H5341079   1.818   4.377   7.190  0.2692  0.5593 -0.3134
   74MOL    H5441080   2.052   4.634   7.281  1.0506 -1.0036 -1.0225
   74MOL    H5541081   2.226   4.586   7.460  0.4532 -0.8469  0.0236
   74MOL    H5641082   2.614   4.403   7.707 -1.8390  0.1861 -1.1039
   74MOL    H5741083   2.719   4.415   7.914 -0.2521  1.7841 -2.2086
   74MOL    C5841084   1.787   4.567   7.154 -0.2239 -0.2532 -0.1687
   74MOL    C5941085   1.807   4.702   7.210  0.0422  0.4840  0.1055
   74MOL    C6041086   1.770   4.745   7.340 -0.6303  0.4517 -0.4573
   74MOL    C6141087   1.804   4.871   7.387  0.1461 -0.9475  0.0085
   74MOL    C6241088   1.882   4.965   7.311 -0.2971  0.8152 -0.7606
   74MOL    C6341089   1.930   5.090   7.372 -0.1625  0.0098 -0.1560
   74MOL    N6441090   2.039   5.086   7.461  0.1663  0.5417  0.4324
   74MOL    C6541091   2.095   5.187   7.543  0.2075 -0.2668 -0.7001
   74MOL    C6641092   2.078   5.327   7.525  0.2704 -0.0334 -0.2940
   74MOL    C6741093   2.136   5.420   7.621  0.1996  0.0869  0.8549
   74MOL    C6841094   2.199   5.365   7.741 -0.3372 -0.5483  0.1795
   74MOL    N6941095   2.241   5.452   7.841  0.1380 -0.0570  0.7520
   74MOL    C7041096   2.216   5.230   7.756  0.3566 -0.4156 -0.1385
   74MOL    C7141097   2.165   5.145   7.659  0.3894  0.4101 -0.1310
   74MOL    O7241098   1.870   5.194   7.342 -0.6349  0.0384 -0.6161
   74MOL    C7341099   1.907   4.926   7.186  0.0029 -0.5184  1.0497
   74MOL    C7441100   1.867   4.801   7.130  0.6779  0.2561 -0.2360
   74MOL    O7541101   1.750   4.548   7.036  0.2464 -1.1457 -0.2561
   74MOL    H7641102   1.711   4.672   7.394 -1.2832  0.2237 -1.4795
   74MOL    H7741103   1.777   4.904   7.487  0.3199  1.2264 -0.6299
   74MOL    H7841104   2.064   4.990   7.481  1.9910  1.3366  2.0315
   74MOL    H7941105   2.022   5.369   7.442 -0.0822 -1.6462 -0.8901
   74MOL    H8041106   2.129   5.526   7.605 -0.7536 -0.1261 -0.1332
   74MOL    H8141107   2.324   5.428   7.894  0.9582  3.5477  1.1982
   74MOL    H8241108   2.260   5.195   7.848  4.0332 -0.2775 -1.7540
   74MOL    H8341109   2.182   5.039   7.672  0.3402 -0.0238 -3.3341
   74MOL    H8441110   1.963   5.002   7.134 -3.0258  2.5897  2.1301
   74MOL    H8541111   1.878   4.779   7.025 -1.2056  0.0833 -0.4223
   74MOL    C8641112   2.184   5.560   7.894 -0.7146  0.1699  0.7926
   74MOL    C8741113   2.255   5.639   8.001  0.1032 -0.2423 -0.2789
   74MOL    C8841114   2.202   5.768   8.039  0.3911  0.3188  0.5735
   74MOL    C8941115   2.269   5.845   8.134 -0.5246  0.9198 -0.7351
   74MOL    C9041116   2.390   5.804   0.044 -0.3122  0.4294 -0.1035
   74MOL    C9141117   2.456   5.882   0.155  0.3552 -0.0840  0.6323
   74MOL    N9241118   2.427   6.013   0.168  0.1908  0.2260  0.0642
   74MOL    C9341119   2.462   6.103   0.275 -0.4473 -0.5904 -0.0625
   74MOL    C9441120   2.557   6.065   0.379  0.2795 -0.0142 -0.8406
   74MOL    C9541121   2.607   6.168   0.464  0.1880  0.0569  0.6271
   74MOL    C9641122   2.549   6.300   0.465 -0.5821  0.1530  0.6392
   74MOL    N9741123   2.600   6.385   0.564 -0.0579  0.3956  0.0745
   74MOL    C9841124   2.453   6.337   0.371  0.8626  0.0410  0.9331
   74MOL    C9941125   2.408   6.234   0.276 -0.0228 -0.5888 -0.7303
   74MOL   O10041126   2.522   5.818   0.231 -0.1643 -0.5979 -0.4921
   74MOL   C10141127   2.440   5.675   0.008  0.3743 -0.0912 -0.1980
   74MOL   C10241128   2.368   5.593   8.067  0.0319  0.3236 -0.0359
   74MOL   O10341129   2.071   5.598   7.857 -0.0716  0.9364 -0.4823
   74MOL   H10441130   2.112   5.812   7.998 -0.6525 -1.1539  1.2397
   74MOL   H10541131   2.233   5.945   0.008  1.2405  1.5767 -0.8086
   74MOL   H10641132   2.362   6.050   0.100 -0.0237  0.1389  0.2210
   74MOL   H10741133   2.617   5.976   0.387  1.1100  0.4546 -1.7924
   74MOL   H10841134   2.683   6.132   0.532  0.5180 -2.2289 -0.9078
   74MOL   H10941135   2.652   6.339   0.637  0.4266 -0.8141 -1.0151
   74MOL   H11041136   2.396   6.429   0.371 -2.1745 -1.7747  0.5525
   74MOL   H11141137   2.337   6.260   0.199 -1.3808  0.4922  0.8649
   74MOL   H11241138   2.532   5.633   0.046  1.6634  3.0929  0.4257
   74MOL   H11341139   2.418   5.499   8.047  0.2861 -0.0884  2.3432
   74MOL   C11441140   2.614   6.517   0.561 -0.0870 -0.0179  0.0464
   74MOL   C11541141   2.691   6.576   0.674  0.6639  0.1983  1.5326
   74MOL   C11641142   2.629   6.643   0.780 -0.4078 -0.0903 -0.5156
   74MOL   C11741143   2.704   6.693   0.887 -0.5244  0.3402  0.0403
   74MOL   C11841144   2.845   6.684   0.887  0.2584 -0.3717  0.3650
   74MOL   C11941145   2.921   6.731   1.005 -0.3997 -0.9282  0.1637
   74MOL   N12041146   2.895   6.859   1.034  0.3174 -0.6197 -0.2414
   74MOL   C12141147   2.964   6.942   1.129  0.1422  0.2130  0.8034
   74MOL   C12241148   3.024   6.888   1.245  0.8727 -0.2573  0.4549
   74MOL   C12341149   3.063   6.982   1.349  0.0656  0.1471 -0.0377
   74MOL   C12441150   3.054   7.119   1.327  0.3061  0.7719  1.1415
   74MOL   N12541151   3.085   7.211   1.431  0.5177 -0.0330  0.0122
   74MOL   C12641152   3.001   7.175   1.203  0.3545 -0.3093  0.0939
   74MOL   C12741153   2.954   7.082   1.105  0.3274 -0.4571 -0.4657
   74MOL   O12841154   3.004   6.655   1.055 -0.1823  0.6640 -0.0856
   74MOL   C12941155   2.909   6.619   0.782 -0.8221  0.2771 -0.0300
   74MOL   C13041156   2.836   6.566   0.674 -0.3119  0.3105 -0.3344
   74MOL   O13141157   2.559   6.588   0.481 -0.3794  0.0756 -0.0974
   74MOL   H13241158   2.521   6.645   0.787 -0.4260  0.3816 -0.8890
   74MOL   H13341159   2.654   6.753   0.962  0.6553 -0.8405  1.8144
   74MOL   H13441160   2.839   6.909   0.966  1.0383 -0.6343 -0.8586
   74MOL   H13541161   3.031   6.781   1.260 -4.8760 -0.5461  2.0674
   74MOL   H13641162   3.109   6.932   1.433 -1.3906  0.4129  0.9309
   74MOL   H13741163   3.054   7.306   1.420 -0.7925 -0.4800 -0.2960
   74MOL   H13841164   2.993   7.282   1.192  1.4750 -0.2836 -0.6039
   74MOL   H13941165   2.908   7.125   1.018  0.2287  0.9758  0.2672
   74MOL   H14041166   3.016   6.605   0.785 -0.7923  0.5068 -0.0327
   74MOL   H14141167   2.893   6.505   0.605 -0.4232  1.5619 -1.5656
   74MOL   C14241168   3.152   7.191   1.542  0.0746  0.2528  0.5541
   74MOL   C14341169   3.173   7.310   1.626  0.1862 -0.5061 -0.1120
   74MOL   C14441170   3.076   7.411   1.631  0.4083 -0.3357  0.1855
   74MOL   C14541171   3.079   7.515   1.726 -0.1118 -0.4043  0.0096
   74MOL   C14641172   3.190   7.525   1.814 -0.6868  0.2891 -0.2149
   74MOL   C14741173   3.205   7.636   1.915 -0.0616  0.0446  0.3595
   74MOL   N14841174   3.298   7.613   2.014 -0.1594 -0.0028  0.1324
   74MOL   C14941175   3.326   7.690   2.126  0.7405 -0.3712 -0.5101
   74MOL   C15041176   3.408   7.630   2.218 -0.1866 -0.2016 -0.3028
   74MOL   C15141177   3.436   7.693   2.334  0.2359 -0.4844  0.4230
   74MOL   C15241178   3.386   7.819   2.357  0.0838  0.1833 -0.2887
   74MOL   N15341179   3.415   7.878   2.485 -0.1173 -0.1795 -0.6618
   74MOL   C15441180   3.304   7.886   2.267  0.1226  0.3871  0.1167
   74MOL   C15541181   3.267   7.819   2.152 -0.4203  0.6860  0.5826
   74MOL   O15641182   3.131   7.735   1.900  0.0352  0.0689  0.1211
   74MOL   C15741183   3.290   7.428   1.807  0.3749  0.3489  0.0423
   74MOL   C15841184   3.279   7.320   1.714  0.0199 -0.2870  0.3244
   74MOL   O15941185   3.202   7.086   1.567  0.8377 -0.7635  0.1382
   74MOL   H16041186   2.990   7.401   1.566  0.1411  3.5210 -0.2113
   74MOL   H16141187   2.998   7.587   1.726  1.0054  0.8845 -0.1175
   74MOL   H16241188   3.322   7.515   2.021 -3.6262 -0.9162 -0.3362
   74MOL   H16341189   3.455   7.535   2.198  2.5929  0.6752  1.7461
   74MOL   H16441190   3.488   7.652   2.419  1.7734 -0.3117 -0.4211
   74MOL   H16541191   3.428   7.818   2.566  0.3386  2.4593  1.2802
   74MOL   H16641192   3.256   7.976   2.303 -0.1121 -0.4067  1.8349
   74MOL   H16741193   3.184   7.848   2.090 -2.0124 -2.0067  1.3474
   74MOL   H16841194   3.379   7.423   1.869  0.4620 -0.3835 -0.1278
   74MOL   H16941195   3.356   7.244   1.722  0.1148 -0.2284 -0.0021
   74MOL   C17041196   3.441   8.004   2.507  0.1935 -0.9163 -0.4092
   74MOL   C17141197   3.487   8.047   2.645  0.0495 -0.0402 -0.2381
   74MOL   C17241198   3.559   7.959   2.733  0.3559 -0.2842 -0.4628
   74MOL   C17341199   3.615   8.018   2.850 -0.7574 -0.1628 -0.6866
   74MOL   C17441200   3.584   0.005   2.892  0.1161 -0.1046 -0.7250
   74MOL   C17541201   3.639   0.056   3.023 -0.6087  0.5069  0.1279
   74MOL   N17641202   3.618   0.190   3.040 -0.2483 -0.0062  0.1432
   74MOL   C17741203   3.657   0.269   3.149  0.1619 -0.6848 -0.9151
   74MOL   C17841204   3.760   0.238   3.234  0.3708 -0.7248 -0.4922
   74MOL   C17941205   3.790   0.323   3.343  1.1166  0.2125  0.1917
   74MOL   C18041206   3.718   0.443   3.363  0.0927 -0.3047 -0.2788
   74MOL   N18141207   3.766   0.521   3.474  0.0847  0.0989  0.9276
   74MOL   C18241208   3.612   0.478   3.273  0.2719  0.3322 -0.3237
   74MOL   C18341209   3.588   0.393   3.164 -0.2817 -0.3367  0.4430
   74MOL   O18441210   3.693   8.124   3.106 -0.5363  0.3825  0.2082
   74MOL   C18541211   3.505   0.083   2.812  0.1879 -0.6631  0.2422
   74MOL   C18641212   3.462   0.037   2.682 -0.3234 -0.3270  0.5800
   74MOL   O18741213   3.425   8.095   2.420 -0.9778  0.1517 -0.2156
   74MOL   H18841214   3.579   7.857   2.708 -0.8025 -0.8222  0.7150
   74MOL   H18941215   3.675   7.954   2.914  0.5601 -0.7848 -2.5221
   74MOL   H19041216   3.572   0.233   2.961  0.4483  1.4250  0.5077
   74MOL   H19141217   3.823   0.151   3.223 -0.9996 -1.8973  0.7825
   74MOL   H19241218   3.873   0.294   3.406 -0.0816 -1.7082  0.9315
   74MOL   H19341219   3.834   0.482   3.537 -1.3242 -2.1181  1.1359
   74MOL   H19441220   3.561   0.573   3.278  0.2579  0.3069  0.0151
   74MOL   H19541221   3.508   0.427   3.099 -2.3162  0.9041  3.4872
   74MOL   H19641222   3.483   0.182   2.848 -0.3908 -0.4125 -0.7818
   74MOL   H19741223   3.417   0.098   2.605 -0.5356 -1.3958 -0.1632
   74MOL   C19841224   3.735   0.651   3.497  0.0978 -0.1503 -0.1930
   74MOL   C19941225   3.827   0.724   3.594  0.1587  1.0531  0.4486
   74MOL   C20041226   3.959   0.677   3.617  0.4161  0.8383  0.6810
   74MOL   C20141227   4.047   0.749   3.702  1.0927  0.0420 -0.0840
   74MOL   C20241228   4.003   0.867   3.759 -0.6347 -0.6716 -0.1650
   74MOL   C20341229   4.104   0.962   3.823 -0.7929  0.5635 -0.2075
   74MOL   N20441230   4.204   1.004   3.742  0.3853 -0.4498  0.0962
   74MOL   C20541231   4.208   0.991   3.604 -0.6624 -0.1796 -0.1428
   74MOL   C20641232   4.113   1.054   3.523  0.1633  0.4127  0.4783
   74MOL   C20741233   4.085   1.007   3.386  0.1610  0.1994  0.0437
   74MOL   C20841234   4.159   0.896   3.346 -0.5794 -0.5399  0.1656
   74MOL   N20941235   4.118   0.819   3.238  0.0329  0.6883  0.3916
   74MOL   C21041236   4.277   0.857   3.415 -0.4251 -0.3971 -0.0450
   74MOL   C21141237   4.298   0.899   3.547  0.3148 -0.4643 -0.3648
   74MOL   O21241238   4.106   0.975   3.950 -0.1184  0.4028  0.2775
   74MOL   C21341239   3.867   0.913   3.750 -0.4978 -0.3166  0.6826
   74MOL   C21441240   3.781   0.837   3.660  0.1474  0.4714 -0.3757
   74MOL   O21541241   3.633   0.710   3.455 -0.4843 -0.1969 -0.1437
   74MOL   H21641242   3.996   0.596   3.556 -0.1255  1.1053 -0.0068
   74MOL   H21741243   4.153   0.728   3.697  1.0153 -0.5020  0.5364
   74MOL   H21841244   4.284   1.049   3.783 -0.7790 -0.5126  2.5458
   74MOL   H21941245   4.050   1.129   3.567  0.2001  0.4843  0.4121
   74MOL   H22041246   4.011   1.042   3.316 -1.0054 -1.7978  0.2414
   74MOL   H22141247   4.079   0.869   3.159 -0.9370  0.7362  0.8934
   74MOL   H22241248   4.331   0.770   3.380 -0.4799 -0.8305  0.9169
   74MOL   H22341249   4.379   0.861   3.608  0.2315 -1.5797 -0.9291
   74MOL   H22441250   3.834   0.999   3.805 -1.2104 -0.4935  0.5311
   74MOL   H22541251   3.680   0.873   3.644  0.8193  2.1028 -1.0960
   74MOL   C22641252   4.079   0.688   3.232  1.1794  0.1207 -0.5414
   74MOL   C22741253   3.999   0.643   3.112 -0.1386  0.1612  0.1521
   74MOL   C22841254   3.875   0.707   3.073  0.1478  0.2377 -0.0069
   74MOL   C22941255   3.797   0.651   2.965 -0.1462  0.6013 -0.6679
   74MOL   C23041256   3.843   0.542   2.891  0.2157  0.4904  0.5645
   74MOL   C23141257   3.756   0.487   2.782 -0.5417 -0.2451  0.3252
   74MOL   N23241258   3.764   0.353   2.772 -0.7257 -0.8721  0.0661
   74MOL   C23341259   3.751   0.278   2.656 -0.0837  1.1928  0.7130
   74MOL   C23441260   3.667   0.308   2.545 -0.0381  0.0912 -0.1105
   74MOL   C23541261   3.675   0.225   2.430 -0.4037 -0.6404 -0.1781
   74MOL   C23641262   3.746   0.103   2.427 -0.9131  0.6379 -0.4532
   74MOL   N23741263   3.718   0.017   2.319 -0.2856  0.2820 -0.2685
   74MOL   C23841264   3.824   0.072   2.542 -0.3189 -0.0371 -0.4152
   74MOL   C23941265   3.833   0.160   2.645 -0.2423 -0.0120  0.0854
   74MOL   O24041266   3.664   0.557   2.738 -0.0192  0.1011  0.5213
   74MOL   C24141267   3.962   0.477   2.931 -0.1613 -0.3012 -0.4901
   74MOL   C24241268   4.032   0.524   3.047 -0.2715 -0.1239 -0.4759
   74MOL   O24341269   4.117   0.607   3.312 -0.4296  0.1800 -0.1912
   74MOL   H24441270   3.841   0.798   3.121 -1.3814 -1.6566  2.5482
   74MOL   H24541271   3.707   0.706   2.940  0.3568  1.2685 -1.0316
   74MOL   H24641272   3.838   0.316   2.830  1.5715 -0.1661 -2.3563
   74MOL   H24741273   3.614   0.402   2.547  0.1953  0.2106  0.3105
   74MOL   H24841274   3.628   0.253   2.337 -0.5621  0.1434  0.1283
   74MOL   H24941275   3.645   0.041   2.254 -1.3634 -2.0695  0.0266
   74MOL   H25041276   3.878   8.125   2.555 -0.8726 -0.0074  2.4971
   74MOL   H25141277   3.894   0.134   2.731  0.4141 -0.5254 -0.5235
   74MOL   H25241278   4.008   0.400   2.872  1.7139  0.1769  0.3185
   74MOL   H25341279   4.121   0.470   3.076 -0.4471 -1.1197 -1.7442
   74MOL   C25441280   3.765   8.042   2.293  0.6111 -0.4625 -0.0931
   74MOL   C25541281   3.712   7.977   2.170 -0.3646  0.5508  0.8626
   74MOL   C25641282   3.727   7.838   2.153  0.3577  0.4493 -0.3449
   74MOL   C25741283   3.672   7.770   2.043 -0.5810  0.5762  0.3935
   74MOL   C25841284   3.622   7.830   1.933 -0.3296  0.0673  0.0239
   74MOL   C25941285   3.578   7.749   1.813 -0.4015 -0.1181  0.4792
   74MOL   N26041286   3.617   7.620   1.812  0.4674 -0.2668  0.9334
   74MOL   C26141287   3.598   7.529   1.707  0.4529 -0.0100  0.4077
   74MOL   C26241288   3.565   7.575   1.572  0.4333  0.6988 -0.2586
   74MOL   C26341289   3.553   7.480   1.471  0.0525  0.6640 -0.3842
   74MOL   C26441290   3.575   7.343   1.499 -0.0869  0.2917 -0.4727
   74MOL   N26541291   3.574   7.247   1.393  0.8860 -0.9891  0.0690
   74MOL   C26641292   3.596   7.301   1.632  0.3650 -0.8242 -0.4525
   74MOL   C26741293   3.618   7.392   1.731 -0.2677  0.4150 -0.1190
   74MOL   O26841294   3.522   7.813   1.724 -0.0093  0.1714  0.4923
   74MOL   C26941295   3.629   7.971   1.933 -0.0044  0.2311 -0.4877
   74MOL   C27041296   3.679   8.045   2.047  0.2469 -0.1957  0.5733
   74MOL   O27141297   3.836   7.982   2.378 -0.1631 -0.3667  0.3729
   74MOL   H27241298   3.774   7.785   2.235 -1.1591  1.6290  1.3366
   74MOL   H27341299   3.679   7.662   2.047  1.0105  0.5522 -2.0368
   74MOL   H27441300   3.660   7.584   1.896  1.7721  0.0613  0.4141
   74MOL   H27541301   3.537   7.675   1.541  1.5579  1.1138  0.0454
   74MOL   H27641302   3.537   7.528   1.376  1.5628  1.1108 -0.4225
   74MOL   H27741303   3.572   7.288   1.300  0.8339 -2.6697 -0.6823
   74MOL   H27841304   3.611   7.197   1.659  2.1254  0.1166  2.3817
   74MOL   H27941305   3.644   7.349   1.826  0.8804 -3.0267 -1.9197
   74MOL   H28041306   3.600   8.024   1.844 -1.2767  0.3579 -0.0052
   74MOL   H28141307   3.683   0.007   2.042 -1.6391 -0.1488 -0.3132
   74MOL   C28241308   3.543   7.112   1.395 -0.0022  0.1035 -0.0379
   74MOL   C28341309   3.512   7.058   1.257  0.2231 -1.2212  0.1061
   74MOL   C28441310   3.391   7.093   1.193  0.2605 -0.4290 -0.5071
   74MOL   C28541311   3.335   7.019   1.084  0.5532  0.1734 -0.4033
   74MOL   C28641312   3.408   6.919   1.022 -0.0231  0.4490  0.0978
   74MOL   C28741313   3.361   6.859   0.893  1.0060  1.3474  0.0727
   74MOL   N28841314   3.386   6.726   0.876  0.5356 -1.1921 -0.4591
   74MOL   C28941315   3.356   6.653   0.759  0.2093  0.4082 -0.7194
   74MOL   C29041316   3.396   6.700   0.632  0.4675  0.6393 -0.2187
   74MOL   C29141317   3.365   6.633   0.514  0.9858 -0.2214  0.2898
   74MOL   C29241318   3.298   6.508   0.520  0.6034 -0.1098 -0.8813
   74MOL   N29341319   3.273   6.431   0.407  0.5239  0.6489 -0.5170
   74MOL   C29441320   3.267   6.456   0.649  0.0770  0.2633  0.3704
   74MOL   C29541321   3.288   6.529   0.765 -0.4643 -0.3238  0.0893
   74MOL   O29641322   3.315   6.934   0.808 -0.2133 -0.3234  0.1683
   74MOL   C29741323   3.528   6.874   1.084 -0.0107  0.0721  0.2214
   74MOL   C29841324   3.577   6.942   1.202  0.2969 -0.4315 -0.0718
   74MOL   O29941325   3.572   7.034   1.482 -0.5730 -0.2589 -0.6239
   74MOL   H30041326   3.334   7.169   1.245  1.3794 -0.4400  0.7827
   74MOL   H30141327   3.241   7.047   1.039 -0.9584 -1.0637  1.8789
   74MOL   H30241328   3.392   6.683   0.967  0.0896 -0.2802  0.0141
   74MOL   H30341329   3.470   6.779   0.625  2.0092 -0.4394  3.0962
   74MOL   H30441330   3.397   6.675   0.420 -1.0821  0.8406  0.0187
   74MOL   H30541331   3.200   6.361   0.409  1.5264 -0.3864 -0.1521
   74MOL   H30641332   3.208   6.366   0.652 -1.0517  0.9569 -0.3465
   74MOL   H30741333   3.266   6.486   0.861  0.8113 -2.9574 -0.7562
   74MOL   H30841334   3.590   6.804   1.031  0.4359  1.1084 -0.6587
   74MOL   H30941335   3.660   6.902   1.259 -0.8163 -1.6957  0.7004
   74MOL   C31041336   3.340   6.445   0.283 -0.0067 -0.1738 -0.9148
   74MOL   C31141337   3.277   6.359   0.170 -1.0521 -0.3753 -0.2223
   74MOL   C31241338   3.204   6.244   0.196 -0.2857  0.7076 -0.7389
   74MOL   C31341339   3.147   6.170   0.090  0.0505 -0.1887  0.4516
   74MOL   C31441340   3.185   6.208   8.104 -0.7517 -0.4005  0.2833
   74MOL   C31541341   3.140   6.116   7.989 -0.3076  0.0962 -0.3228
   74MOL   N31641342   3.127   6.173   7.865 -1.0893 -0.2643 -0.5280
   74MOL   C31741343   3.115   6.109   7.739 -0.0752  0.7080 -0.2043
   74MOL   C31841344   3.160   6.188   7.633  0.1415 -0.2102  0.0324
   74MOL   C31941345   3.160   6.135   7.502 -0.2547  0.4876 -0.3772
   74MOL   C32041346   3.103   6.005   7.478  0.4306  0.0836 -0.2286
   74MOL   N32141347   3.097   5.943   7.355 -0.3978  0.4586 -0.0083
   74MOL   C32241348   3.052   5.931   7.583  0.4313 -0.6305  0.1104
   74MOL   C32341349   3.059   5.983   7.713  0.3403  0.0848  0.4050
   74MOL   O32441350   3.113   6.000   8.010 -0.3422 -0.0201  0.5558
   74MOL   C32541351   3.264   6.319   8.079 -0.2537 -0.4340 -0.3972
   74MOL   C32641352   3.310   6.394   0.037  0.8863  0.4031  0.4705
   74MOL   O32741353   3.430   6.527   0.262 -0.3913  0.1991  0.7390
   74MOL   H32841354   3.187   6.212   0.298  0.0230 -0.9639 -1.1999
   74MOL   H32941355   3.094   6.077   0.104 -2.8362  0.9391 -2.2905
   74MOL   H33041356   3.148   6.271   7.861  2.4533 -0.9765 -1.1965
   74MOL   H33141357   3.195   6.290   7.643 -0.7955  0.3640 -2.1265
   74MOL   H33241358   3.197   6.199   7.423  1.9187  1.0262  1.0111
   74MOL   H33341359   3.030   5.867   7.348  2.0764 -1.7196 -0.5590
   74MOL   H33441360   3.012   5.831   7.578  1.0811 -0.8251 -1.7592
   74MOL   H33541361   3.016   5.927   7.795  0.1437 -0.4098 -0.0367
   74MOL   H33641362   3.291   6.358   7.981  0.3974  0.1564  0.0107
   74MOL   H33741363   3.376   6.477   0.014  1.3723 -0.3795 -1.0267
   74MOL   C33841364   3.149   5.981   7.241 -0.0494  0.1113  0.6709
   74MOL   C33941365   3.139   5.880   7.131  0.1456  0.9295 -0.4431
   74MOL   C34041366   3.133   5.741   7.154  0.0635 -0.3451  0.2101
   74MOL   C34141367   3.116   5.649   7.047  0.1663  0.1306 -0.0952
   74MOL   C34241368   3.116   5.706   6.915 -0.0465  0.4548  0.0708
   74MOL   C34341369   3.105   5.603   6.800 -0.0722 -0.9276  0.3754
   74MOL   N34441370   3.078   5.657   6.681 -0.4884 -0.7879  0.3689
   74MOL   C34541371   3.104   5.601   6.556 -0.0138  0.7873 -0.1592
   74MOL   C34641372   3.003   5.595   6.455 -0.5660 -0.2782  0.7339
   74MOL   C34741373   3.035   5.564   6.317 -0.0901 -0.6007  0.3136
   74MOL   C34841374   3.162   5.529   6.274 -0.2956 -0.3116  0.2762
   74MOL   N34941375   3.188   5.503   6.134 -0.1311 -0.6419 -0.1688
   74MOL   C35041376   3.261   5.534   6.377 -0.0215 -0.2549  0.2273
   74MOL   C35141377   3.231   5.561   6.513  0.6986  1.4612  0.6616
   74MOL   O35241378   3.124   5.484   6.809  0.4595  0.1866  0.5073
   74MOL   C35341379   3.139   5.844   6.895 -0.8051  0.5102 -0.1096
   74MOL   C35441380   3.149   5.933   7.001  0.5074  0.0775  0.0167
   74MOL   O35541381   3.181   6.096   7.214  0.2543  0.7114  0.1768
   74MOL   H35641382   3.130   5.706   7.256  1.2058 -2.6727 -0.5145
   74MOL   H35741383   3.091   5.546   7.066 -3.1253  1.0503  0.9077
   74MOL   H35841384   3.036   5.749   6.674 -0.4724 -0.8584 -0.6502
   74MOL   H35941385   2.899   5.618   6.471 -0.0814  2.1916  0.5272
   74MOL   H36041386   2.948   5.575   6.255  0.4511  1.3081 -0.1492
   74MOL   H36141387   3.114   5.533   6.073  0.9579 -0.4422 -1.4265
   74MOL   H36241388   3.365   5.513   6.354 -0.4155 -1.4854 -0.4770
   74MOL   H36341389   3.301   5.569   6.595  1.3063  1.9785  0.1101
   74MOL   H36441390   3.167   5.876   6.796  0.6040  0.1981  0.1779
   74MOL   H36541391   3.164   6.037   6.977  0.4653  0.3711  1.2120
   74MOL   C36641392   3.302   5.465   6.066  0.4424 -0.2713 -1.7426
   74MOL   C36741393   3.298   5.492   5.920 -0.0096  0.1546 -0.0663
   74MOL   C36841394   3.172   5.508   5.861 -0.0159  0.2990 -0.2966
   74MOL   C36941395   3.157   5.527   5.727 -0.2206 -0.2294 -0.1821
   74MOL   C37041396   3.274   5.545   5.646  0.2538  0.7420 -0.0957
   74MOL   C37141397   3.267   5.582   5.502  0.2233 -0.5514 -0.3504
   74MOL   N37241398   3.186   5.496   5.438  0.0810 -0.2614 -0.1452
   74MOL   C37341399   3.131   5.501   5.309  0.0429  0.8756  0.1558
   74MOL   C37441400   3.145   5.609   5.224  0.1243  0.3653  0.6677
   74MOL   C37541401   3.100   5.614   5.096  0.1299 -0.0821 -0.1537
   74MOL   C37641402   3.027   5.513   5.042  0.0742 -0.6181  0.0215
   74MOL   N37741403   2.974   5.515   4.912  0.1769 -0.5891  0.6252
   74MOL   C37841404   2.998   5.399   5.126 -0.5375 -0.2619 -0.7037
   74MOL   C37941405   3.050   5.390   5.261  0.2698  0.0969 -0.1675
   74MOL   O38041406   3.329   5.685   5.465  0.4020  0.0915  0.3289
   74MOL   C38141407   3.403   5.540   5.709  0.4187 -0.1916  0.1811
   74MOL   C38241408   3.411   5.511   5.847 -0.3151 -0.3984  0.4339
   74MOL   O38341409   3.398   5.409   6.121 -0.0576 -0.7482  0.1933
   74MOL   H38441410   3.080   5.495   5.915 -0.4658  1.3028 -0.8045
   74MOL   H38541411   3.059   5.537   5.682  0.5217  3.7619 -1.0877
   74MOL   H38641412   3.160   5.420   5.500  0.8090 -1.6757 -1.5374
   74MOL   H38741413   3.199   5.695   5.260  2.0868 -1.0341  1.2239
   74MOL   H38841414   3.104   5.711   5.048 -1.3819  0.2850  0.4619
   74MOL   H38941415   2.875   5.498   4.901  0.0021 -0.1842  1.5375
   74MOL   H39041416   2.948   5.314   5.082  0.4258  0.5567 -3.4897
   74MOL   H39141417   3.044   5.299   5.319  0.0477 -0.1961 -0.6502
   74MOL   H39241418   3.498   5.549   5.659 -0.8912  0.2209 -2.2961
   74MOL   H39341419   3.507   5.501   5.895 -1.1090  1.4922  2.5268
   74MOL   C39441420   3.030   5.574   4.807 -0.2537 -0.3394  0.8779
   74MOL   C39541421   2.930   5.591   4.693 -0.0183 -0.1954 -0.2570
   74MOL   C39641422   2.976   5.657   4.570  0.0319 -0.3066  0.0590
   74MOL   C39741423   2.884   5.691   4.468 -0.6990 -0.3368  0.4351
   74MOL   C39841424   2.750   5.649   4.478  0.0237 -0.8641 -0.2585
   74MOL   C39941425   2.649   5.684   4.376 -0.2459 -0.5045  0.6744
   74MOL   N40041426   2.704   5.735   4.265 -0.3142 -0.1677  0.3482
   74MOL   C40141427   2.637   5.809   4.162  0.2342  1.0713  0.3717
   74MOL   C40241428   2.721   5.895   4.081  0.6240 -0.9500  0.7995
   74MOL   C40341429   2.663   5.976   3.979  0.0784 -0.1780  0.8074
   74MOL   C40441430   2.522   5.973   3.962 -0.2370  0.1972 -1.2153
   74MOL   N40541431   2.454   6.053   3.867  0.1420  0.6495 -0.4530
   74MOL   C40641432   2.442   5.874   4.032 -0.1772  0.1073  0.2500
   74MOL   C40741433   2.502   5.790   4.129 -0.3620  0.8264 -0.1213
   74MOL   O40841434   2.532   5.654   4.399  0.1169 -0.5136 -0.1623
   74MOL   C40941435   2.706   5.579   4.597  0.4990 -0.7009 -0.0530
   74MOL   C41041436   2.798   5.553   4.702  0.6211  0.4913  0.2838
   74MOL   O41141437   3.148   5.604   4.791 -0.4004  0.1888 -0.6595
   74MOL   H41241438   3.075   5.699   4.571 -0.2955  0.4730 -0.1460
   74MOL   H41341439   2.923   5.752   4.388 -0.8493 -1.7699 -0.7355
   74MOL   H41441440   2.803   5.721   4.254 -0.0865  1.9980 -0.7346
   74MOL   H41541441   2.827   5.889   4.103  0.6066 -1.3064  0.7906
   74MOL   H41641442   2.726   6.042   3.921 -1.7848  1.2357  0.3535
   74MOL   H41741443   2.372   6.103   3.899 -0.6757  0.6738 -2.4541
   74MOL   H41841444   2.338   5.863   4.007 -0.4712 -0.7077  1.7314
   74MOL   H41941445   2.438   5.715   4.175  1.9238 -0.2905  1.3057
   74MOL   H42041446   2.605   5.540   4.597  0.5325 -0.7845  0.7611
   74MOL   H42141447   2.765   5.489   4.783  0.2714 -0.3577 -0.5317
   74MOL   C42241448   2.478   6.064   3.739 -0.5745 -0.1114 -0.3704
   74MOL   C42341449   2.381   6.146   3.665 -1.3702  0.7014 -0.8949
   74MOL   C42441450   2.293   6.241   3.719  0.4628  0.0842 -0.3773
   74MOL   C42541451   2.209   6.316   3.644  0.1089  0.7082 -0.0695
   74MOL   C42641452   2.203   6.294   3.503  0.6881  0.0501 -0.4780
   74MOL   C42741453   2.118   6.387   3.416 -0.7828  0.5910  0.0900
   74MOL   N42841454   2.137   6.519   3.408 -0.2039  0.4971 -0.3292
   74MOL   C42941455   2.229   6.606   3.463 -0.3163 -0.6386 -1.2866
   74MOL   C43041456   2.195   6.744   3.465  0.1408  0.2524  0.7141
   74MOL   C43141457   2.281   6.846   3.519  0.2277 -0.3589 -0.1686
   74MOL   C43241458   2.404   6.810   3.578 -0.2214  0.4014  0.5426
   74MOL   N43341459   2.481   6.894   3.662 -0.5100  0.6837 -0.1589
   74MOL   C43441460   2.442   6.676   3.569  0.0913  0.6822 -0.2212
   74MOL   C43541461   2.360   6.574   3.519 -0.4659  0.1270  0.0608
   74MOL   O43641462   2.029   6.342   3.346  0.4735 -0.0984  0.1469
   74MOL   C43741463   2.280   6.197   3.446 -0.2140  0.5094 -0.2068
   74MOL   C43841464   2.366   6.118   3.530  0.1348  0.5693 -0.4048
   74MOL   O43941465   2.577   6.022   3.683 -0.0344  0.0678 -0.7522
   74MOL   H44041466   2.290   6.245   3.827 -0.6242 -0.3344 -0.3850
   74MOL   H44141467   2.141   6.383   3.694 -2.4563 -1.9171  0.1102
   74MOL   H44241468   2.061   6.562   3.358  0.5217 -0.3952 -2.2321
   74MOL   H44341469   2.100   6.774   3.424  1.2238  1.6116 -0.8618
   74MOL   H44441470   2.251   6.948   3.503 -1.0874 -0.6109  0.6567
   74MOL   H44541471   2.551   6.852   3.722  0.4289  1.7520 -0.4875
   74MOL   H44641472   2.541   6.652   3.603 -0.5971 -2.6487 -0.3460
   74MOL   H44741473   2.407   6.477   3.514  0.0463  0.4807 -3.1259
   74MOL   H44841474   2.282   6.157   3.346  2.3416 -0.0842  0.0439
   74MOL   H44941475   2.435   6.049   3.484 -1.0200 -0.5608 -0.4812
   74MOL   C45041476   2.482   7.029   3.673 -0.1041  0.0795 -0.2241
   74MOL   C45141477   2.570   7.094   3.773  0.5205 -0.1553  0.2307
   74MOL   C45241478   2.665   7.186   3.731 -0.0585 -0.3394 -0.0040
   74MOL   C45341479   2.725   7.270   3.817  0.6053  0.1008 -0.3986
   74MOL   C45441480   2.715   7.254   3.951 -0.0497  0.7593 -0.9354
   74MOL   C45541481   2.785   7.342   4.048 -0.2779  0.0227 -0.5380
   74MOL   N45641482   2.822   7.289   4.163 -0.1590  0.9327  0.7365
   74MOL   C45741483   2.867   7.362   4.278 -0.2978 -0.0139 -0.4639
   74MOL   C45841484   2.835   7.299   4.397  0.0644  0.5433 -0.3869
   74MOL   C45941485   2.897   7.339   4.521 -0.5036 -0.4033  0.4365
   74MOL   C46041486   2.989   7.448   4.515 -0.0743 -0.2565 -0.0097
   74MOL   N46141487   3.050   7.492   4.633  0.6156  0.3509  0.1103
   74MOL   C46241488   3.008   7.519   4.395  0.1601 -0.7304 -0.2529
   74MOL   C46341489   2.951   7.481   4.271 -0.1021  0.0323 -0.1388
   74MOL   O46441490   2.809   7.458   4.012  0.9385  0.4721 -0.7006
   74MOL   C46541491   2.630   7.152   3.995 -0.4535  0.1232 -0.3682
   74MOL   C46641492   2.562   7.070   3.910  0.3646 -0.2233 -0.2136
   74MOL   O46741493   2.411   7.101   3.599  0.4275 -0.7645  0.1869
   74MOL   H46841494   2.670   7.205   3.625 -1.3722  1.7823  0.2792
   74MOL   H46941495   2.794   7.344   3.781 -0.5181  1.9865  1.2355
   74MOL   H47041496   2.799   7.192   4.177  0.5433  0.3285 -2.0459
   74MOL   H47141497   2.765   7.218   4.385 -0.3629  0.8397  0.0739
   74MOL   H47241498   2.878   7.281   4.611 -1.0094  1.4731  1.5624
   74MOL   H47341499   2.995   7.492   4.717  2.2571  1.7894  1.2129
   74MOL   H47441500   3.070   7.607   4.396 -0.6082 -0.1807  1.1253
   74MOL   H47541501   2.974   7.534   4.180 -0.7152  1.7605  0.6755
   74MOL   H47641502   2.609   7.148   4.101 -0.5499 -1.5391 -0.4360
   74MOL   H47741503   2.490   7.002   3.955 -2.0066  1.1221 -1.8205
   74MOL   C47841504   3.175   7.522   4.649 -0.4813  0.6275  0.2053
   74MOL   C47941505   3.210   7.563   4.792  0.0442 -0.2675  0.0185
   74MOL   C48041506   3.325   7.649   4.815 -0.5982  0.1228 -0.5576
   74MOL   C48141507   3.366   7.678   4.945 -0.1860  0.2768 -0.3062
   74MOL   C48241508   3.298   7.627   5.059  0.1440 -0.4980 -0.3165
   74MOL   C48341509   3.343   7.658   5.202  0.4234  0.7946  0.0444
   74MOL   N48441510   3.474   7.689   5.210 -0.2075  0.0521  0.0598
   74MOL   C48541511   3.561   7.720   5.322 -0.1948  0.0742 -0.1432
   74MOL   C48641512   3.693   7.750   5.288  0.0695  0.2181 -0.4268
   74MOL   C48741513   3.795   7.768   5.384  0.1776  0.6521 -0.1790
   74MOL   C48841514   3.757   7.766   5.525  0.1398 -0.2376  0.3157
   74MOL   N48941515   3.844   7.812   5.626  0.2800  0.3108 -0.2232
   74MOL   C49041516   3.625   7.735   5.555 -0.4708 -0.3915 -0.3065
   74MOL   C49141517   3.525   7.713   5.457 -0.9500  0.8341 -0.1581
   74MOL   O49241518   3.258   7.672   5.286 -0.2244 -0.2436 -0.2826
   74MOL   C49341519   3.181   7.550   5.039 -0.3707  0.1396  0.3761
   74MOL   C49441520   3.142   7.514   4.910  0.3282  0.5418  0.0611
   74MOL   O49541521   3.263   7.512   4.558 -0.4827 -0.0062  0.0112
   74MOL   H49641522   3.367   7.698   4.729 -0.7738  2.2802  0.5581
   74MOL   H49741523   3.447   7.748   4.952  0.5229 -0.5394 -0.2657
   74MOL   H49841524   3.511   7.684   5.116  0.4092 -0.4073  0.3219
   74MOL   H49941525   3.721   7.753   5.184  0.6299  2.4954 -0.2322
   74MOL   H50041526   3.893   7.795   5.348  1.3900 -1.2759  1.5280
   74MOL   H50141527   3.798   7.803   5.716 -0.2799 -0.5308 -0.5924
   74MOL   H50241528   3.587   7.731   5.657  1.3016  2.2648  0.5221
   74MOL   H50341529   3.421   7.700   5.484 -0.6238 -0.2856  0.6272
   74MOL   H50441530   3.135   7.505   5.126 -0.5034  1.9829  1.2693
   74MOL   H50541531   3.057   7.451   4.887  2.4197 -2.3936  0.1767
   74MOL   C50641532   3.975   7.848   5.621 -0.8655 -0.5055  0.1117
   74MOL   C50741533   4.040   7.868   5.757 -0.1897 -0.8340  0.2061
   74MOL   C50841534   3.976   7.952   5.851 -0.5570  0.8722 -0.2654
   74MOL   C50941535   4.041   7.983   5.975 -0.4538 -1.2165  0.4817
   74MOL   C51041536   4.167   7.930   6.006 -0.2113  0.2498  0.1725
   74MOL   C51141537   4.242   7.951   6.138 -0.0094 -0.2467  0.5329
   74MOL   N51241538   4.216   8.067   6.206  0.2541 -0.8397 -0.2484
   74MOL   C51341539   4.282   8.109   6.326 -1.0064  0.2981  0.8325
   74MOL   C51441540   4.410   8.064   6.362  0.0822  0.2529  0.1784
   74MOL   C51541541   4.467   8.114   6.481  0.0765 -0.2401 -0.0804
   74MOL   C51641542   4.398   0.066   6.565 -0.8784 -0.0380 -0.5030
   74MOL   N51741543   4.458   0.141   6.675  0.2217 -0.1811 -0.2312
   74MOL   C51841544   4.259   0.093   6.537  0.7643 -0.5804  0.1799
   74MOL   C51941545   4.210   0.040   6.417  0.6354  0.0309  0.4173
   74MOL   O52041546   4.323   7.866   6.178 -0.2915 -0.0598  0.3939
   74MOL   C52141547   4.229   7.847   5.905  0.5354 -0.2920  0.2232
   74MOL   C52241548   4.170   7.822   5.785 -0.5898  0.0607 -0.1180
   74MOL   O52341549   4.042   7.853   5.516 -0.1905  0.0956  0.0876
   74MOL   H52441550   3.878   7.990   5.826  0.6538  3.8741 -0.6170
   74MOL   H52541551   3.993   8.052   6.043 -1.1056 -1.6782  0.4969
   74MOL   H52641552   4.138   8.122   6.173  0.8136 -1.2368 -2.2623
   74MOL   H52741553   4.463   7.991   6.303 -1.5588  0.3948 -1.4983
   74MOL   H52841554   4.567   8.078   6.502  0.7711  2.7328  1.8960
   74MOL   H52941555   4.405   0.222   6.704  0.5271 -1.2257  3.4995
   74MOL   H53041556   4.201   0.156   6.602  1.4558  0.8550 -0.5576
   74MOL   H53141557   4.103   0.051   6.401  0.5108 -2.3316 -0.6813
   74MOL   H53241558   4.324   7.800   5.925  0.0105 -1.9325 -1.0128
   74MOL   H53341559   4.222   7.762   5.712  3.7260 -0.0336  2.8501
   74MOL   C53441560   4.584   0.153   6.712  0.0212  0.0374  0.7077
   74MOL   C53541561   4.619   0.276   6.785 -0.2702  0.3842 -0.9175
   74MOL   C53641562   4.750   0.323   6.803 -0.0854  0.1289  0.7260
   74MOL   C53741563   4.776   0.442   6.876 -0.6430  0.8240  0.2253
   74MOL   C53841564   4.674   0.513   6.935 -0.9382 -0.0745  0.1866
   74MOL   C53941565   4.686   0.638   7.015 -0.6776  0.4131 -0.2376
   74MOL   N54041566   4.799   0.638   7.086 -0.6791 -0.2199 -0.1776
   74MOL   C54141567   4.842   0.730   7.190 -0.0485  0.0141 -0.4658
   74MOL   C54241568   4.957   0.693   7.268  0.2272  0.6840  0.7252
   74MOL   C54341569   4.989   0.766   7.389 -0.2568 -0.1699 -0.5633
   74MOL   C54441570   4.914   0.880   7.423 -0.1699 -0.3128 -0.4560
   74MOL   N54541571   4.957   0.964   7.531  0.6176  0.2963  0.2710
   74MOL   C54641572   4.806   0.913   7.343  0.1752  0.3165  0.9206
   74MOL   C54741573   4.771   0.837   7.230 -0.0119  0.8984 -0.7209
   74MOL   O54841574   4.601   0.729   7.009  0.1786 -0.0026 -0.2486
   74MOL   C54941575   4.543   0.471   6.911  0.1221  0.2238  0.3216
   74MOL   C55041576   4.515   0.357   6.837  0.1820  0.2219  0.6860
   74MOL   O55141577   4.671   0.075   6.680  0.0012 -0.0639  0.1393
   74MOL   H55241578   4.827   0.265   6.755  1.5713  2.3153  0.6028
   74MOL   H55341579   4.878   0.471   6.894 -0.3504 -0.6828  1.0774
   74MOL   H55441580   4.865   0.566   7.057  0.6548  1.5454 -1.6202
   74MOL   H55541581   5.016   0.604   7.251  1.7196  1.9326 -0.7561
   74MOL   H55641582   5.069   0.723   7.448 -0.3251 -0.0083 -0.3502
   74MOL   H55741583   5.048   0.936   7.567  1.7824  1.9210 -1.3007
   74MOL   H55841584   4.747   1.002   7.364 -0.8330 -0.2694  0.6119
   74MOL   H55941585   4.683   0.862   7.171 -0.6976 -0.2134 -0.1869
   74MOL   H56041586   4.467   0.533   6.956  0.9831  0.8166  0.9927
   74MOL   H56141587   4.410   0.331   6.838  0.4977 -1.0701  0.9721
   74MOL   H56241588   4.971   1.062   7.512 -1.1999  0.2989 -1.1045
   75MOL     C141589   2.649   1.574   3.414 -0.1125  0.3416  0.2692
   75MOL     C241590   2.667   1.494   3.292  0.4666 -0.0524 -0.2987
   75MOL     C341591   2.609   1.537   3.172 -0.0187 -1.0152 -0.3400
   75MOL     C441592   2.614   1.453   3.060  0.2115  0.5842 -0.2447
   75MOL     C541593   2.654   1.318   3.073 -0.0646 -0.1088  0.5881
   75MOL     C641594   2.632   1.222   2.959  0.1601 -0.7903 -0.0896
   75MOL     N741595   2.641   1.094   2.992  0.3714 -0.2511 -0.7235
   75MOL     C841596   2.620   0.979   2.909 -0.4017  0.1218  0.4520
   75MOL     C941597   2.539   0.974   2.795 -0.4387  0.3806 -0.0739
   75MOL    C1041598   2.520   0.850   2.734 -0.0487  0.7445  0.1873
   75MOL    C1141599   2.586   0.734   2.775 -0.3735  0.3298 -0.2183
   75MOL    N1241600   2.548   0.617   2.701 -0.3034  0.5294  0.2288
   75MOL    C1341601   2.674   0.742   2.882 -0.0852 -0.2841  0.2201
   75MOL    C1441602   2.693   0.865   2.949 -0.0837  0.2502  0.0620
   75MOL    O1541603   2.609   1.261   2.839 -0.3369 -0.1057  0.2132
   75MOL    C1641604   2.713   1.275   3.194  0.2743 -0.8029 -0.2878
   75MOL    C1741605   2.723   1.368   3.303  0.2764 -0.0111  0.4443
   75MOL    O1841606   2.681   1.542   3.530 -0.4479  0.0569  0.2350
   75MOL    H1941607   2.565   1.635   3.161 -0.4448 -0.9840  1.5223
   75MOL    H2041608   2.575   1.485   2.965  2.9340  1.5106 -1.0864
   75MOL    H2141609   2.657   1.082   3.091 -0.4371  2.5335 -0.2131
   75MOL    H2241610   2.483   1.063   2.766 -0.7209 -0.0952 -1.0000
   75MOL    H2341611   2.455   0.858   2.648  1.5039  2.5294 -0.8573
   75MOL    H2441612   2.493   0.627   2.617  0.3767 -0.8566 -0.3970
   75MOL    H2541613   2.732   0.654   2.907  2.0492  0.9079 -0.4177
   75MOL    H2641614   2.772   0.876   3.021  0.6451 -0.7571 -0.5729
   75MOL    H2741615   2.724   1.168   3.206 -0.4702 -0.9987 -1.2694
   75MOL    H2841616   2.768   1.330   3.393  1.5381  1.6876  0.5516
   75MOL    H2941617   2.607   1.672   3.394  1.3193  1.0170  0.5135
   75MOL    C3041618   2.608   0.498   2.708 -0.4584 -0.0554  0.7204
   75MOL    C3141619   2.582   0.407   2.591  0.5650  0.4780 -0.0644
   75MOL    C3241620   2.560   0.270   2.611 -0.7002 -0.0233 -0.1360
   75MOL    C3341621   2.524   0.178   2.508 -0.2327  1.0060 -0.3389
   75MOL    C3441622   2.527   0.229   2.374  0.4109 -0.0488 -0.6193
   75MOL    C3541623   2.506   0.133   2.263 -0.0561 -0.0288  0.0594
   75MOL    N3641624   2.408   0.165   2.174  0.3210  0.0694  0.1331
   75MOL    C3741625   2.347   0.073   2.078 -0.2754 -0.9049 -0.1568
   75MOL    C3841626   2.417   8.111   2.018  0.0962 -0.6266  0.1011
   75MOL    C3941627   2.358   8.031   1.917 -0.4993 -0.1204  0.7118
   75MOL    C4041628   2.232   8.065   1.862  0.3880 -0.1896  0.1867
   75MOL    N4141629   2.181   7.983   1.764  0.1048  0.1455 -0.1672
   75MOL    C4241630   2.159   0.031   1.918  0.3280 -0.6408 -0.4074
   75MOL    C4341631   2.221   0.106   2.025 -0.0132  0.4376  0.0300
   75MOL    O4441632   2.556   0.024   2.272 -0.0265  0.0047  0.2174
   75MOL    C4541633   2.563   0.364   2.349  0.2058 -0.1272 -0.1155
   75MOL    C4641634   2.582   0.452   2.455  0.1115 -1.0204 -0.4850
   75MOL    O4741635   2.693   0.466   2.792 -0.1882  0.1898 -0.2476
   75MOL    H4841636   2.566   0.233   2.712 -0.1794 -4.2279 -1.6118
   75MOL    H4941637   2.513   0.075   2.538  0.3737  1.4232  1.3742
   75MOL    H5041638   2.354   0.248   2.191 -1.8807 -1.1141 -0.8467
   75MOL    H5141639   2.510   8.079   2.064  1.5836  1.5813 -1.2869
   75MOL    H5241640   2.405   7.946   1.870 -1.4311 -0.8078  1.0132
   75MOL    H5341641   2.209   7.886   1.757 -1.7147 -0.4212  0.0435
   75MOL    H5441642   2.063   0.065   1.881  0.5044  0.6484  0.2996
   75MOL    H5541643   2.165   0.194   2.053 -1.7914 -0.9252  0.8952
   75MOL    H5641644   2.577   0.403   2.249 -0.1816 -0.9301 -0.4912
   75MOL    H5741645   2.612   0.554   2.437 -1.4763 -0.0590  1.9792
   75MOL    C5841646   2.076   8.011   1.688  0.2425 -0.4635  0.6477
   75MOL    C5941647   2.006   7.892   1.635 -0.6728  0.2288  0.7467
   75MOL    C6041648   1.935   7.904   1.515  0.1533  0.2906 -0.5210
   75MOL    C6141649   1.843   7.804   1.479 -0.2699  0.0551 -0.6456
   75MOL    C6241650   1.841   7.682   1.547  0.2312 -0.3320 -0.3366
   75MOL    C6341651   1.753   7.569   1.501 -0.2088 -0.7895 -0.1658
   75MOL    N6441652   1.814   7.454   1.486  0.4070  0.2731  0.1867
   75MOL    C6541653   1.761   7.333   1.431  0.3808  0.0177  0.6258
   75MOL    C6641654   1.838   7.265   1.333  0.4284  0.1209 -0.8908
   75MOL    C6741655   1.786   7.150   1.271 -0.6596  0.6727 -0.7816
   75MOL    C6841656   1.661   7.101   1.307  0.8484 -0.5469 -0.5198
   75MOL    N6941657   1.604   6.992   1.241  0.0022 -0.1158 -0.4079
   75MOL    C7041658   1.588   7.165   1.412  0.3387 -0.7050  0.0953
   75MOL    C7141659   1.636   7.278   1.477 -0.0951  0.7407  0.4265
   75MOL    O7241660   1.637   7.592   1.470  0.4539 -0.0523 -0.2003
   75MOL    C7341661   1.924   7.657   1.660 -0.5790 -1.6462  0.1130
   75MOL    C7441662   2.011   7.766   1.699  0.5533 -0.0921 -0.5331
   75MOL    O7541663   2.060   8.123   1.636  0.2138 -0.6679 -0.5370
   75MOL    H7641664   1.939   7.998   1.462  0.3574  1.3289  1.3056
   75MOL    H7741665   1.777   7.830   1.399 -0.0854  1.5361 -0.3321
   75MOL    H7841666   1.915   7.458   1.497  0.1566  4.4150  1.7641
   75MOL    H7941667   1.932   7.307   1.299  0.7435  2.0208  2.1294
   75MOL    H8041668   1.845   7.100   1.195 -1.4622  2.0560 -2.3638
   75MOL    H8141669   1.646   6.980   1.150  0.6233  0.8551 -0.2518
   75MOL    H8241670   1.487   7.134   1.434 -0.1733  0.6107 -0.3749
   75MOL    H8341671   1.581   7.324   1.558 -0.7659 -0.9321  0.9429
   75MOL    H8441672   1.927   7.563   1.712  1.4857 -3.1872 -2.6622
   75MOL    H8541673   2.066   7.746   1.789  2.7434  1.1444 -1.5464
   75MOL    C8641674   1.521   6.891   1.278 -0.0717 -0.0208 -0.1938
   75MOL    C8741675   1.481   6.791   1.170 -0.0159 -0.0530 -0.4454
   75MOL    C8841676   1.561   6.750   1.062  0.2753  0.3257 -0.4743
   75MOL    C8941677   1.511   6.658   0.973 -0.7276  0.1149  0.5099
   75MOL    C9041678   1.376   6.603   0.982 -0.2708  0.2615 -0.5683
   75MOL    C9141679   1.321   6.523   0.867  0.0547  0.0084  0.6617
   75MOL    N9241680   1.260   6.409   0.893 -0.1397  0.3282  0.5146
   75MOL    C9341681   1.173   6.336   0.807 -0.2535  0.2599 -0.7443
   75MOL    C9441682   1.033   6.351   0.809  0.2290 -0.3922  1.0950
   75MOL    C9541683   0.948   6.272   0.731 -0.0231  0.2112  0.5690
   75MOL    C9641684   1.000   6.169   0.658 -0.8114  0.1004  0.6863
   75MOL    N9741685   0.926   6.090   0.574  0.3040  0.1495  0.0840
   75MOL    C9841686   1.140   6.157   0.645 -0.4681  0.0768  0.1443
   75MOL    C9941687   1.227   6.238   0.718 -0.4054  0.1435 -1.0452
   75MOL   O10041688   1.341   6.556   0.747  0.4947  0.1437 -0.2622
   75MOL   C10141689   1.296   6.647   1.087 -0.3221  0.0378  0.0608
   75MOL   C10241690   1.349   6.731   1.185  0.3819  0.3090  0.4732
   75MOL   O10341691   1.478   6.876   1.398  0.2940  1.1378  0.1291
   75MOL   H10441692   1.659   6.795   1.068 -0.1759  1.3653 -0.7836
   75MOL   H10541693   1.575   6.611   0.900 -0.2211 -1.4995  1.9632
   75MOL   H10641694   1.252   6.395   0.993 -0.2431 -1.0139  0.3345
   75MOL   H10741695   0.986   6.417   0.881  1.2800  0.3293  1.1328
   75MOL   H10841696   0.841   6.287   0.738 -0.0895 -0.5568  1.1766
   75MOL   H10941697   0.955   6.084   0.477 -0.7677 -0.3782 -0.2211
   75MOL   H11041698   1.175   6.072   0.589  0.4341  0.7045 -0.2699
   75MOL   H11141699   1.332   6.215   0.706 -0.4212 -2.7287  3.2309
   75MOL   H11241700   1.193   6.616   1.099 -0.3407  0.5244  1.2290
   75MOL   H11341701   1.285   6.743   1.270  0.5182 -1.7841  0.8845
   75MOL   C11441702   0.830   5.998   0.608 -0.2155 -1.4699 -0.3507
   75MOL   C11541703   0.794   5.994   0.757  0.3538 -0.5463  0.1956
   75MOL   C11641704   0.897   5.975   0.856 -0.2887  0.2709  0.2839
   75MOL   C11741705   0.867   5.960   0.990 -0.4994  0.2211 -0.0423
   75MOL   C11841706   0.738   5.965   1.035  0.5704 -0.9592 -0.3329
   75MOL   C11941707   0.698   5.963   1.185 -0.2305  0.7704  0.1365
   75MOL   N12041708   0.799   5.990   1.267  0.2684  0.1660  0.0991
   75MOL   C12141709   0.796   6.072   1.389 -0.0788  0.1498 -0.4406
   75MOL   C12241710   0.669   6.110   1.458 -0.3465 -0.3797  0.1503
   75MOL   C12341711   0.675   6.200   1.571  0.4874  0.1416  0.8434
   75MOL   C12441712   0.799   6.247   1.611  0.1107 -1.2614 -0.2430
   75MOL   N12541713   0.797   6.362   1.698 -0.2505 -0.4589 -0.4521
   75MOL   C12641714   0.919   6.196   1.561 -0.0645  0.5798 -0.1106
   75MOL   C12741715   0.921   6.104   1.450  0.0911  0.1995 -0.0292
   75MOL   O12841716   0.583   5.932   1.224 -0.5615  0.7237  0.0789
   75MOL   C12941717   0.633   5.979   0.940 -0.6397 -0.1509 -0.5347
   75MOL   C13041718   0.660   5.988   0.802  0.3198  1.2203 -0.1000
   75MOL   O13141719   0.770   5.932   0.523 -0.7248 -0.1920 -0.5288
   75MOL   H13241720   1.000   5.975   0.822 -0.3052 -3.4390  0.0009
   75MOL   H13341721   0.939   5.960   1.070 -0.1304 -0.9984 -0.3673
   75MOL   H13441722   0.885   5.980   1.216  0.2939 -0.3306  0.2368
   75MOL   H13541723   0.577   6.086   1.406  0.3885  0.0313 -1.3990
   75MOL   H13641724   0.579   6.222   1.616 -0.4126 -0.5858 -0.6891
   75MOL   H13741725   0.722   6.425   1.673 -0.5937 -0.4835  0.4864
   75MOL   H13841726   1.015   6.231   1.595  0.3876  0.0802 -0.8608
   75MOL   H13941727   1.016   6.081   1.404  1.0899  0.6494  1.7719
   75MOL   H14041728   0.530   5.981   0.971 -0.5779 -0.0045 -0.3363
   75MOL   H14141729   0.579   5.986   0.731  2.1616 -2.2388 -2.2574
   75MOL   C14241730   0.867   6.379   1.808  0.0761 -0.9230 -0.7376
   75MOL   C14341731   0.851   6.517   1.869 -0.2278  0.9535 -0.1151
   75MOL   C14441732   0.953   6.571   1.944 -0.6798  0.0455  0.1348
   75MOL   C14541733   0.939   6.696   2.009 -0.3218 -0.1206 -0.2897
   75MOL   C14641734   0.825   6.773   1.990 -0.1213  0.1163 -0.2177
   75MOL   C14741735   0.805   6.905   2.060  0.8070  0.3624 -0.1899
   75MOL   N14841736   0.910   6.970   2.124  0.4111 -0.3832 -0.1662
   75MOL   C14941737   0.909   7.108   2.163 -0.1301  0.5375 -0.1245
   75MOL   C15041738   1.024   7.159   2.226  0.8425 -0.2695 -0.2587
   75MOL   C15141739   1.036   7.298   2.245 -0.3073 -0.7281 -1.0780
   75MOL   C15241740   0.940   7.391   2.204 -0.1769  0.1610 -0.0034
   75MOL   N15341741   0.963   7.526   2.227 -0.2861  0.2234  0.2707
   75MOL   C15441742   0.817   7.341   2.159 -0.3039  0.8759  0.0289
   75MOL   C15541743   0.799   7.202   2.141 -0.5981 -0.3109  0.6514
   75MOL   O15641744   0.690   6.940   2.046  0.1627 -0.6787 -0.4481
   75MOL   C15741745   0.720   6.710   1.920  0.5232 -0.2769  0.0464
   75MOL   C15841746   0.727   6.581   1.860  0.6216 -0.7666 -0.0882
   75MOL   O15941747   0.934   6.295   1.866 -0.2235 -0.4637 -0.1894
   75MOL   H16041748   1.044   6.515   1.960 -0.8890 -0.5328 -0.6900
   75MOL   H16141749   1.022   6.736   2.065  0.3233 -0.7691 -0.7780
   75MOL   H16241750   1.004   6.934   2.124  1.6560  2.7334 -0.4128
   75MOL   H16341751   1.093   7.092   2.273  0.7599 -0.0175  0.2289
   75MOL   H16441752   1.121   7.339   2.298 -1.0958 -1.7030  0.9866
   75MOL   H16541753   1.027   7.546   2.302 -0.1564  0.9696 -0.0254
   75MOL   H16641754   0.744   7.413   2.123 -0.0697  2.5951  2.8585
   75MOL   H16741755   0.706   7.171   2.098 -1.5606 -0.7798  2.9974
   75MOL   H16841756   0.624   6.757   1.906 -0.3509 -1.5937  1.4694
   75MOL   H16941757   0.639   6.538   1.815  0.4092  0.7563 -1.1659
   75MOL   C17041758   0.931   7.632   2.151  0.4168  1.2767 -0.0550
   75MOL   C17141759   0.891   7.615   2.004  0.4756 -0.0284  0.7840
   75MOL   C17241760   0.955   7.517   1.924 -0.0117 -0.6613  0.4102
   75MOL   C17341761   0.927   7.509   1.786  0.9969  0.0992  0.1840
   75MOL   C17441762   0.838   7.603   1.723 -0.4261 -0.6493  0.1845
   75MOL   C17541763   0.804   7.579   1.577  0.8760 -0.0547  0.1309
   75MOL   N17641764   0.851   7.463   1.526 -0.0501  0.0319  0.0900
   75MOL   C17741765   0.811   7.395   1.411  1.0093  0.8376 -0.4190
   75MOL   C17841766   0.670   7.386   1.380 -0.8967  0.4727  0.7138
   75MOL   C17941767   0.637   7.295   1.273  0.0393 -0.3219 -0.6335
   75MOL   C18041768   0.731   7.214   1.208  0.1191 -0.3161 -0.1896
   75MOL   N18141769   0.679   7.132   1.113  0.5800  0.7316 -0.3822
   75MOL   C18241770   0.869   7.224   1.249 -0.3624  0.7107  0.6631
   75MOL   C18341771   0.906   7.310   1.354 -0.4595 -0.6141 -0.0866
   75MOL   O18441772   0.748   7.662   1.505  0.8277  0.5471 -0.7644
   75MOL   C18541773   0.776   7.700   1.804  0.2026  0.2839  0.0117
   75MOL   C18641774   0.798   7.702   1.942 -0.5387 -0.4658 -0.3844
   75MOL   O18741775   0.914   7.738   2.211 -0.3588 -0.4426  0.3950
   75MOL   H18841776   1.023   7.440   1.958 -1.4988 -1.4634  1.6172
   75MOL   H18941777   0.971   7.429   1.729 -1.8353 -2.5814  1.6023
   75MOL   H19041778   0.900   7.409   1.596  0.5473  0.0081 -0.3387
   75MOL   H19141779   0.599   7.433   1.446 -0.4925 -0.6257  1.9354
   75MOL   H19241780   0.535   7.282   1.240  0.4786  2.1453 -3.1787
   75MOL   H19341781   0.598   7.085   1.150  1.7930 -0.9276  0.2402
   75MOL   H19441782   0.944   7.156   1.210 -1.0781  0.7227 -0.7959
   75MOL   H19541783   1.002   7.308   1.402 -0.4691  0.6159  0.0046
   75MOL   H19641784   0.691   7.755   1.767  0.6178  0.8545 -0.0954
   75MOL   H19741785   0.739   7.778   1.991 -0.3241  0.2113 -1.1667
   75MOL   C19841786   0.743   7.092   1.005  0.0049  0.7995 -0.8045
   75MOL   C19941787   0.692   6.972   0.935 -0.2065 -0.3365  0.0213
   75MOL   C20041788   0.744   6.937   0.808  1.1446  0.2858  0.0213
   75MOL   C20141789   0.704   6.825   0.740  0.1490 -0.3599  0.0960
   75MOL   C20241790   0.608   6.741   0.799 -0.2018  0.3165 -0.3646
   75MOL   C20341791   0.568   6.617   0.728  0.1600  0.4475  0.1854
   75MOL   N20441792   0.670   6.552   0.678 -0.3504  0.5175  0.0957
   75MOL   C20541793   0.668   6.451   0.582 -0.1613 -0.6535  0.0086
   75MOL   C20641794   0.771   6.453   0.485 -0.4962  0.5163  0.2902
   75MOL   C20741795   0.789   6.341   0.401  0.0398  0.4355  0.6322
   75MOL   C20841796   0.699   6.239   0.400  0.2973  0.5850 -0.4369
   75MOL   N20941797   0.692   6.143   0.297  1.1596  0.0167  0.1060
   75MOL   C21041798   0.599   6.233   0.497  0.1620  0.1833 -0.4573
   75MOL   C21141799   0.587   6.335   0.591  0.8281  0.0459  0.5619
   75MOL   O21241800   0.452   6.576   0.736 -0.1685 -0.2104  0.4241
   75MOL   C21341801   0.553   6.777   0.927 -0.1168  0.3811  0.1791
   75MOL   C21441802   0.595   6.892   0.991  0.8828  0.0886  0.6828
   75MOL   O21541803   0.850   7.138   0.964 -0.2173 -0.1991  0.3249
   75MOL   H21641804   0.831   6.992   0.775  0.7375  0.1648 -1.2987
   75MOL   H21741805   0.766   6.795   0.657 -0.5008  2.1162 -1.3297
   75MOL   H21841806   0.760   6.593   0.696  0.7443 -1.3272 -0.9279
   75MOL   H21941807   0.847   6.530   0.482  0.7061 -0.6953 -1.0359
   75MOL   H22041808   0.877   6.338   0.337  0.0127 -0.7848  0.6515
   75MOL   H22141809   0.622   6.073   0.318  1.1946  0.4926  1.9274
   75MOL   H22241810   0.521   6.159   0.495 -0.5061  0.8623  0.1156
   75MOL   H22341811   0.522   6.312   0.674  1.2305  1.1880  1.2004
   75MOL   H22441812   0.465   6.720   0.954 -1.5643  0.5064 -3.8898
   75MOL   H22541813   0.545   6.905   1.086 -1.3712 -0.7317 -0.3404
   75MOL   C22641814   0.778   6.123   0.195  0.2844 -0.0942  0.0619
   75MOL   C22741815   0.756   6.003   0.103  0.1116  0.0599  0.2524
   75MOL   C22841816   0.865   5.927   0.055  0.0283  0.7277  0.4741
   75MOL   C22941817   0.835   5.820   8.114  0.2047 -0.0295 -0.0278
   75MOL   C23041818   0.700   5.782   8.089  0.0014  0.3286  0.0581
   75MOL   C23141819   0.660   5.654   8.022 -0.0060 -0.3126 -0.1472
   75MOL   N23241820   0.749   5.601   7.936  0.7165 -0.5360 -0.1289
   75MOL   C23341821   0.746   5.478   7.865  0.4021  0.1806  0.2775
   75MOL   C23441822   0.659   5.372   7.901 -0.7100 -0.3594 -0.1861
   75MOL   C23541823   0.633   5.263   7.820 -0.7643  0.2026  1.3540
   75MOL   C23641824   0.710   5.247   7.703  0.3899 -0.4894  0.3619
   75MOL   N23741825   0.693   5.135   7.627 -0.5843  0.2849 -0.3909
   75MOL   C23841826   0.799   5.349   7.673  0.0846  0.4934 -0.1544
   75MOL   C23941827   0.819   5.467   7.750  0.6814 -0.1245 -0.5107
   75MOL   O24041828   0.551   5.601   8.053  0.3227  0.1009  0.1104
   75MOL   C24141829   0.599   5.864   8.144  0.2877  0.3031  0.2848
   75MOL   C24241830   0.627   5.975   0.070 -0.9013 -0.3926  0.4109
   75MOL   O24341831   0.873   6.195   0.161 -0.5707  0.1231  0.0279
   75MOL   H24441832   0.965   5.947   0.092  1.4519 -1.2160 -2.1612
   75MOL   H24541833   0.917   5.755   8.086 -0.8655 -1.1641 -0.5683
   75MOL   H24641834   0.833   5.655   7.918 -0.1244  0.9998  0.4738
   75MOL   H24741835   0.605   5.381   7.994  0.0809  2.3201  0.0559
   75MOL   H24841836   0.559   5.187   7.839 -0.0110 -0.1419  2.9938
   75MOL   H24941837   0.779   5.083   7.616 -0.8053  0.1039 -1.3554
   75MOL   H25041838   0.864   5.328   7.589 -2.6160  2.8366 -2.9644
   75MOL   H25141839   0.875   5.555   7.722 -1.3083  0.6964 -2.0556
   75MOL   H25241840   0.495   5.856   8.114 -0.0225  2.0178  0.8504
   75MOL   H25341841   0.551   6.042   0.107  1.6027  2.1525  1.1416
   75MOL   C25441842   0.598   5.102   7.548  0.2911  0.0106 -0.1042
   75MOL   C25541843   0.614   4.998   7.443 -1.3223  0.1281  0.4788
   75MOL   C25641844   0.731   4.991   7.365 -0.4986  0.3341 -0.1837
   75MOL   C25741845   0.751   4.887   7.276  0.0994  0.7529 -0.1290
   75MOL   C25841846   0.655   4.788   7.251 -0.2581  1.1808  0.3867
   75MOL   C25941847   0.676   4.670   7.156  0.2172 -0.3006  0.3269
   75MOL   N26041848   0.803   4.634   7.155 -0.1513  0.3788 -0.2070
   75MOL   C26141849   0.858   4.513   7.091  0.5394  0.0037 -0.2699
   75MOL   C26241850   0.986   4.471   7.135  0.0718 -0.2530  0.3666
   75MOL   C26341851   1.042   4.349   7.090 -0.8618  0.5152  0.1113
   75MOL   C26441852   0.972   4.264   7.006 -0.8715  0.0021  0.5858
   75MOL   N26541853   1.020   4.132   6.969 -0.1806  0.1826 -0.2872
   75MOL   C26641854   0.853   4.315   6.952  0.4023  0.1383  0.1256
   75MOL   C26741855   0.796   4.440   6.983 -0.6812 -0.3387  0.1861
   75MOL   O26841856   0.579   4.621   7.085 -0.1032  0.5525  0.2648
   75MOL   C26941857   0.531   4.802   7.316  0.2738  0.5019  0.0899
   75MOL   C27041858   0.512   4.903   7.412 -0.0120  0.8889 -0.0331
   75MOL   O27141859   0.494   5.166   7.556 -0.2564  0.5168 -0.5882
   75MOL   H27241860   0.811   5.064   7.359 -1.9587  1.9656 -0.1175
   75MOL   H27341861   0.845   4.883   7.223  0.2269  1.1176  0.0677
   75MOL   H27441862   0.860   4.670   7.231  1.1974  0.2385 -1.1331
   75MOL   H27541863   1.041   4.535   7.203  0.5781 -0.8382  0.5093
   75MOL   H27641864   1.144   4.326   7.117 -1.6488  0.2020  2.9761
   75MOL   H27741865   0.988   4.053   7.023 -0.9172  0.0797 -0.8675
   75MOL   H27841866   0.791   4.261   6.883  1.0098 -0.0609 -0.2638
   75MOL   H27941867   0.705   4.462   6.930 -1.0167  1.4048  1.4355
   75MOL   H28041868   0.454   4.727   7.304  2.0453 -1.2164 -0.6994
   75MOL   H28141869   0.423   4.896   7.473  0.7631  1.1901  1.1633
   75MOL   C28241870   1.132   4.113   6.897 -0.5539  0.0879 -0.2028
   75MOL   C28341871   1.179   3.969   6.879  0.0400 -0.3684 -0.6161
   75MOL   C28441872   1.143   3.870   6.981 -0.0244  0.1771 -0.3149
   75MOL   C28541873   1.182   3.737   6.952  0.0262 -0.0456 -0.0259
   75MOL   C28641874   1.250   3.692   6.840 -0.2717  0.0134  0.3750
   75MOL   C28741875   1.277   3.545   6.820 -0.2750  0.1152  0.1583
   75MOL   N28841876   1.313   3.514   6.692 -0.3001 -0.2612 -0.2984
   75MOL   C28941877   1.283   3.391   6.638 -0.1079  0.1233  0.4268
   75MOL   C29041878   1.344   3.271   6.687 -0.2351 -0.4140  0.0112
   75MOL   C29141879   1.297   3.150   6.629 -0.0273  0.6135  0.2608
   75MOL   C29241880   1.189   3.150   6.539 -0.0033 -0.7799  0.3485
   75MOL   N29341881   1.131   3.028   6.491 -0.0684  0.2207 -0.5139
   75MOL   C29441882   1.151   3.270   6.483  0.1360 -0.4897  0.3711
   75MOL   C29541883   1.204   3.393   6.530  0.4498  0.7656  0.0707
   75MOL   O29641884   1.270   3.468   6.911  0.0559 -0.0105  0.7112
   75MOL   C29741885   1.302   3.785   6.749  0.4739  0.0521 -0.5335
   75MOL   C29841886   1.260   3.924   6.770 -0.2745  0.6759  0.4911
   75MOL   O29941887   1.181   4.199   6.815 -0.2958 -0.7054  0.3499
   75MOL   H30041888   1.089   3.879   7.074  0.8840  2.7317 -0.0039
   75MOL   H30141889   1.136   3.664   7.017  0.9600 -0.0266  0.6750
   75MOL   H30241890   1.335   3.591   6.631 -1.5020 -0.9042 -1.5738
   75MOL   H30341891   1.406   3.281   6.774 -0.1300 -1.1160  0.0150
   75MOL   H30441892   1.340   3.055   6.658  0.7879  0.4672 -1.3911
   75MOL   H30541893   1.171   2.943   6.526 -1.2707 -0.1816 -0.0983
   75MOL   H30641894   1.072   3.277   6.409  0.5654  2.8356  0.1466
   75MOL   H30741895   1.166   3.488   6.495  0.1131 -0.4965 -3.1290
   75MOL   H30841896   1.364   3.759   6.664 -0.7097 -1.7670 -0.8575
   75MOL   H30941897   1.283   3.999   6.695  1.0902 -0.5467 -0.3388
   75MOL   C31041898   1.006   3.005   6.446 -0.0417 -0.0197 -0.3655
   75MOL   C31141899   0.959   2.865   6.451 -0.3471  0.2691  0.1482
   75MOL   C31241900   0.857   2.823   6.535 -0.0026 -0.0276 -0.0449
   75MOL   C31341901   0.809   2.687   6.539  0.0006  0.0839 -0.3096
   75MOL   C31441902   0.881   2.591   6.462 -0.5452  0.1025 -0.7887
   75MOL   C31541903   0.832   2.445   6.465 -0.2440  0.0457 -1.1304
   75MOL   N31641904   0.705   2.428   6.437 -0.6972  0.0525 -0.0118
   75MOL   C31741905   0.639   2.305   6.434 -0.0678  0.1710 -0.0882
   75MOL   C31841906   0.670   2.199   6.348 -0.3297 -0.2595  0.0814
   75MOL   C31941907   0.596   2.079   6.356  0.0310  0.1977  0.0252
   75MOL   C32041908   0.500   2.052   6.457 -0.7217 -0.0134 -0.5759
   75MOL   N32141909   0.426   1.934   6.472 -0.8437  0.0518  0.0773
   75MOL   C32241910   0.473   2.164   6.544  0.4429 -0.1245  0.5329
   75MOL   C32341911   0.537   2.286   6.532 -0.1505  0.5810  0.6140
   75MOL   O32441912   0.916   2.360   6.471 -0.5327 -0.3607  0.3960
   75MOL   C32541913   0.981   2.632   6.375  0.1066 -0.2019 -0.0897
   75MOL   C32641914   1.020   2.769   6.367 -0.2714  0.3291  0.8290
   75MOL   O32741915   0.922   3.089   6.410 -0.2134  0.8235  0.5709
   75MOL   H32841916   0.799   2.888   6.600  1.9587  2.9584 -1.1764
   75MOL   H32941917   0.734   2.650   6.608 -0.0942  0.0179 -0.4479
   75MOL   H33041918   0.651   2.514   6.433 -1.1678 -0.2708 -0.6022
   75MOL   H33141919   0.739   2.222   6.268 -1.1734 -0.0795 -0.6020
   75MOL   H33241920   0.613   2.003   6.282  1.1266  0.1887  0.2852
   75MOL   H33341921   0.380   1.919   6.561 -1.2545 -0.6344 -0.2506
   75MOL   H33441922   0.398   2.166   6.622  1.1728 -2.0413  1.3245
   75MOL   H33541923   0.513   2.365   6.601  1.1873  1.2479  0.3306
   75MOL   H33641924   1.031   2.549   6.327  0.7554 -0.2656  0.6863
   75MOL   H33741925   1.096   2.803   6.298 -0.4508 -0.2399  0.3427
   75MOL   C33841926   0.405   1.833   6.386  0.1813 -0.2164 -0.4000
   75MOL   C33941927   0.321   1.727   6.444 -0.3255 -0.6463  0.2228
   75MOL   C34041928   0.191   1.758   6.495 -0.3807 -0.4554 -0.5039
   75MOL   C34141929   0.114   1.656   6.564 -0.0846  0.0883  0.6207
   75MOL   C34241930   0.161   1.524   6.569 -0.1914  0.4196  0.1190
   75MOL   C34341931   0.093   1.416   6.643  0.1609  0.5940 -0.0439
   75MOL   N34441932   0.156   1.365   6.747 -0.2321  0.6983 -0.9043
   75MOL   C34541933   0.263   1.430   6.816  0.4134  0.7515  0.0834
   75MOL   C34641934   0.395   1.396   6.793 -0.0863 -0.0767 -0.1425
   75MOL   C34741935   0.505   1.461   6.863 -0.0925  0.0427 -0.3041
   75MOL   C34841936   0.470   1.565   6.952  0.0166  0.2073  0.2829
   75MOL   N34941937   0.559   1.642   7.025 -0.5460  0.6734  0.0305
   75MOL   C35041938   0.333   1.596   6.973 -1.1006 -0.1495  0.3060
   75MOL   C35141939   0.230   1.529   6.908  0.1398 -0.3781 -0.1196
   75MOL   O35241940   8.122   1.386   6.612  0.1273 -0.4400 -0.1570
   75MOL   C35341941   0.289   1.500   6.510  0.2506  0.4651 -0.0408
   75MOL   C35441942   0.367   1.593   6.445 -1.0111 -0.1872 -0.1734
   75MOL   O35541943   0.443   1.833   6.271  0.1311  0.4941  0.1566
   75MOL   H35641944   0.150   1.856   6.472 -2.2207 -0.9169  0.7081
   75MOL   H35741945   0.019   1.682   6.607 -0.5227 -0.9231  0.2902
   75MOL   H35841946   0.113   1.293   6.803  0.2667  0.1800 -1.1904
   75MOL   H35941947   0.412   1.315   6.723 -1.1241 -1.3177  1.0177
   75MOL   H36041948   0.605   1.421   6.859 -0.5769 -1.4741  1.6574
   75MOL   H36141949   0.527   1.686   7.110 -0.8955 -0.1609  0.3354
   75MOL   H36241950   0.317   1.691   7.021  0.4272  1.0112 -1.3630
   75MOL   H36341951   0.125   1.551   6.907  0.2634  0.1953 -0.9251
   75MOL   H36441952   0.323   1.398   6.524  0.5849  0.6746  0.6826
   75MOL   H36541953   0.467   1.578   6.407 -0.7747 -1.4118  0.8967
   75MOL   C36641954   0.681   1.681   6.985  0.3166  0.2600 -0.3727
   75MOL   C36741955   0.728   1.811   7.044  0.9320  1.3237  0.2423
   75MOL   C36841956   0.867   1.849   7.037 -0.2146 -0.8452  0.5692
   75MOL   C36941957   0.901   1.982   7.084 -0.3570  0.1169 -0.9721
   75MOL   C37041958   0.804   2.070   7.126 -0.7979  0.3660  0.2500
   75MOL   C37141959   0.846   2.215   7.147  1.4879  0.2861  0.4406
   75MOL   N37241960   0.898   2.273   7.041 -0.0426  0.2174 -0.1228
   75MOL   C37341961   0.929   2.404   7.007  0.0012 -0.0876 -0.1859
   75MOL   C37441962   0.905   2.509   7.099 -0.2207  0.2088 -0.0558
   75MOL   C37541963   0.941   2.639   7.070  0.6793 -0.1694 -0.7981
   75MOL   C37641964   0.970   2.672   6.942 -0.1443 -0.1695 -0.4384
   75MOL   N37741965   0.968   2.806   6.910 -0.0956 -0.5860  0.4468
   75MOL   C37841966   0.994   2.571   6.846 -0.6883 -0.3561  0.7049
   75MOL   C37941967   0.970   2.434   6.877 -0.2116 -0.1703  0.6117
   75MOL   O38041968   0.808   2.269   7.253 -0.6025 -0.1929 -0.0444
   75MOL   C38141969   0.672   2.025   7.141 -0.6129 -0.3731  0.4020
   75MOL   C38241970   0.631   1.902   7.089 -0.5296  0.6293 -0.0074
   75MOL   O38341971   0.754   1.622   6.909  0.2722 -0.4503 -0.3598
   75MOL   H38441972   0.942   1.785   6.993 -0.1705  1.0895 -2.3446
   75MOL   H38541973   0.999   2.026   7.067 -0.4151 -0.3372 -2.5664
   75MOL   H38641974   0.925   2.210   6.967 -2.5695 -0.4550 -0.5109
   75MOL   H38741975   0.873   2.489   7.200  2.7727  2.5522  1.4266
   75MOL   H38841976   0.923   2.715   7.145 -1.3830 -2.4990  1.1825
   75MOL   H38941977   1.057   2.837   6.872  0.9339 -0.4361  2.8719
   75MOL   H39041978   1.016   2.610   6.748  1.5624 -0.5971  1.0923
   75MOL   H39141979   0.971   2.364   6.795 -2.3236 -2.7981  2.7650
   75MOL   H39241980   0.597   2.093   7.178  0.2207  1.2358 -0.8023
   75MOL   H39341981   0.524   1.886   7.080 -0.3373 -0.4307 -0.4700
   75MOL   C39441982   0.861   2.882   6.911  0.0515 -0.0599 -0.0806
   75MOL   C39541983   0.874   3.027   6.877 -0.3301  0.3435  0.2701
   75MOL   C39641984   0.996   3.094   6.851  0.8695 -0.2113  0.3906
   75MOL   C39741985   1.001   3.239   6.828 -0.1836  0.0918  0.0634
   75MOL   C39841986   0.880   3.316   6.816 -0.4796 -0.4731  0.7540
   75MOL   C39941987   0.884   3.466   6.790 -0.8886  0.1082  0.2131
   75MOL   N40041988   0.769   3.520   6.825  0.0980  0.3978 -0.3469
   75MOL   C40141989   0.735   3.661   6.819 -0.2231  0.1737 -0.3432
   75MOL   C40241990   0.827   3.767   6.828 -0.0256 -0.5936 -0.0947
   75MOL   C40341991   0.785   3.900   6.823 -0.7705  0.3692 -0.4812
   75MOL   C40441992   0.648   3.935   6.810 -0.0887  0.1485  1.0915
   75MOL   N40541993   0.603   4.073   6.802 -0.6470 -0.7196 -0.0373
   75MOL   C40641994   0.553   3.826   6.804 -0.1443  0.1003 -0.0471
   75MOL   C40741995   0.598   3.692   6.808 -0.0729 -0.1801 -0.2166
   75MOL   O40841996   0.985   3.525   6.757  0.5686 -0.3459  0.3863
   75MOL   C40941997   0.756   3.248   6.849 -0.3227 -0.1673 -0.2496
   75MOL   C41041998   0.754   3.108   6.873  0.1024 -0.0324 -0.3726
   75MOL   O41141999   0.749   2.838   6.941 -0.2087  0.2467 -0.2617
   75MOL   H41242000   1.093   3.046   6.847  1.5176  1.1539 -0.9464
   75MOL   H41342001   1.094   3.294   6.820 -0.2499  0.5302  2.2288
   75MOL   H41442002   0.695   3.455   6.847  1.9517 -1.3707  0.8385
   75MOL   H41542003   0.934   3.756   6.835  0.2161  0.8853 -1.1435
   75MOL   H41642004   0.865   3.974   6.821  0.7950 -1.1859  1.9899
   75MOL   H41742005   0.667   4.118   6.738 -1.6383 -0.0718 -0.5892
   75MOL   H41842006   0.449   3.844   6.781 -0.2524  1.4438  1.4543
   75MOL   H41942007   0.528   3.611   6.796 -0.4778  0.2892 -1.0485
   75MOL   H42042008   0.657   3.292   6.856 -1.3544 -2.5023  0.4495
   75MOL   H42142009   0.660   3.063   6.901  0.6572 -0.2058  1.2275
   75MOL   C42242010   0.491   4.123   6.852  0.3090  0.6314 -0.2574
   75MOL   C42342011   0.481   4.269   6.824 -0.2088  0.2927  0.1370
   75MOL   C42442012   0.540   4.321   6.705  0.0847  0.1441  0.0986
   75MOL   C42542013   0.533   4.459   6.677 -0.3174  0.6986  0.1236
   75MOL   C42642014   0.456   4.544   6.760 -0.3418 -0.1860 -0.5094
   75MOL   C42742015   0.456   4.686   6.728 -0.6837  0.1796  0.6298
   75MOL   N42842016   0.464   4.764   6.834 -0.4556  0.1898 -0.1726
   75MOL   C42942017   0.497   4.900   6.843  0.0177 -0.5552 -0.3471
   75MOL   C43042018   0.510   4.950   6.973  0.5290  0.2461  0.2010
   75MOL   C43142019   0.514   5.085   6.993 -0.5538 -0.6741  0.6646
   75MOL   C43242020   0.518   5.177   6.885 -0.0878 -0.0096  0.3892
   75MOL   N43342021   0.531   5.316   6.921  0.2591  0.1006 -0.1509
   75MOL   C43442022   0.523   5.129   6.757 -0.3876 -0.1386 -0.4792
   75MOL   C43542023   0.517   4.989   6.730 -0.2911 -0.3381  0.4413
   75MOL   O43642024   0.440   4.723   6.609  0.3987 -0.5894  0.1908
   75MOL   C43742025   0.391   4.495   6.870 -0.1806  0.4115  0.7081
   75MOL   C43842026   0.411   4.358   6.904  0.7735  0.5192 -0.1840
   75MOL   O43942027   0.410   4.053   6.919 -0.1399 -0.4717 -0.2513
   75MOL   H44042028   0.568   4.259   6.622  1.8494  2.0945 -0.8015
   75MOL   H44142029   0.576   4.502   6.588 -1.7561 -1.3322 -1.6023
   75MOL   H44242030   0.463   4.709   6.919 -3.6320 -2.0344 -1.4941
   75MOL   H44342031   0.505   4.876   7.053  0.8245 -2.0704 -1.8630
   75MOL   H44442032   0.513   5.118   7.096  0.5749 -1.6892  1.0005
   75MOL   H44542033   0.511   5.347   7.015 -0.7030 -1.4825  0.1898
   75MOL   H44642034   0.550   5.186   6.669  0.3822  0.8243  0.3776
   75MOL   H44742035   0.511   4.952   6.629  2.1133 -0.9552  0.4798
   75MOL   H44842036   0.340   4.557   6.941 -1.1510  0.7556 -0.2777
   75MOL   H44942037   0.369   4.324   6.998  0.4905 -2.1202 -1.2373
   75MOL   C45042038   0.638   5.390   6.891 -0.7821 -0.5156  0.9334
   75MOL   C45142039   0.647   5.530   6.951  0.0796 -0.7644 -0.3110
   75MOL   C45242040   0.529   5.612   6.958 -0.0301 -0.0482  0.4814
   75MOL   C45342041   0.518   5.720   7.036  0.2871 -0.1434 -0.2492
   75MOL   C45442042   0.624   5.763   7.119 -0.1076 -0.4533  0.4819
   75MOL   C45542043   0.612   5.871   7.216  0.4270 -0.6594 -0.0102
   75MOL   N45642044   0.514   5.839   7.304  0.4036 -0.4215 -0.3621
   75MOL   C45742045   0.449   5.921   7.395 -0.5734  0.2703 -0.4025
   75MOL   C45842046   0.520   5.994   7.486  0.4200  0.5562  0.4609
   75MOL   C45942047   0.450   6.096   7.553 -0.6294  0.4523 -0.2012
   75MOL   C46042048   0.309   6.120   7.548  0.3229  0.5002 -0.2789
   75MOL   N46142049   0.244   6.215   7.628  0.1288 -0.3666 -0.1132
   75MOL   C46242050   0.243   6.035   7.458  0.0560  0.3560  0.7215
   75MOL   C46342051   0.311   5.933   7.390 -0.0434  0.5999 -0.1283
   75MOL   O46442052   0.685   5.972   7.229 -0.4192  0.1397 -0.3228
   75MOL   C46542053   0.746   5.695   7.097 -0.4454  0.3336 -0.2072
   75MOL   C46642054   0.762   5.581   7.012 -0.7504 -1.1833  0.4435
   75MOL   O46742055   0.724   5.357   6.805 -0.2616  0.5793 -0.3124
   75MOL   H46842056   0.441   5.580   6.904 -0.1016  1.6010 -0.4211
   75MOL   H46942057   0.424   5.774   7.033 -0.4043 -1.3775 -0.9268
   75MOL   H47042058   0.466   5.752   7.285  0.7709 -1.0002  1.2572
   75MOL   H47142059   0.625   5.971   7.488  0.2187 -0.6486 -1.4935
   75MOL   H47242060   0.506   6.151   7.628  0.0619  1.6339 -1.5594
   75MOL   H47342061   0.305   6.243   7.704 -0.6274 -0.8638  0.6945
   75MOL   H47442062   0.142   6.047   7.423  0.4299  3.6766  0.6126
   75MOL   H47542063   0.255   5.869   7.323  0.7911 -1.3849  1.0232
   75MOL   H47642064   0.832   5.724   7.156  0.9065 -1.7616 -1.1130
   75MOL   H47742065   0.856   5.532   6.993  1.2861  2.4508  0.8098
   75MOL   C47842066   0.114   6.255   7.623  0.7530 -0.4746  0.2570
   75MOL   C47942067   0.078   6.353   7.730 -0.0334 -0.2909 -0.7699
   75MOL   C48042068   0.174   6.416   7.815 -0.1824 -0.3222  0.6962
   75MOL   C48142069   0.134   6.506   7.915 -0.0601  0.0470 -0.0526
   75MOL   C48242070   8.145   6.529   7.939  0.2168 -0.9134  0.1374
   75MOL   C48342071   8.095   6.633   8.041  0.1405  0.4829  0.1294
   75MOL   N48442072   7.967   6.669   8.035 -0.2236 -1.0135  0.2724
   75MOL   C48542073   7.897   6.779   8.099  0.3651 -0.3366 -0.3276
   75MOL   C48642074   7.755   6.791   8.079 -0.3456  0.1017  0.0216
   75MOL   C48742075   7.676   6.882   0.004 -0.3489  0.3558 -0.3983
   75MOL   C48842076   7.736   6.969   0.101 -0.4436  0.8889 -0.2316
   75MOL   N48942077   7.659   7.074   0.158 -0.1319 -0.2250 -0.1258
   75MOL   C49042078   7.878   6.958   0.124 -0.1054  0.0580 -0.2988
   75MOL   C49142079   7.954   6.868   0.049 -0.3801  0.0697  0.5079
   75MOL   O49242080   0.034   6.683   8.120  0.3938 -0.0039 -0.3975
   75MOL   C49342081   8.047   6.455   7.862  0.0135 -1.2618  0.5781
   75MOL   C49442082   8.086   6.371   7.755  0.3159 -0.6840 -0.8361
   75MOL   O49542083   0.029   6.226   7.535  0.4629  0.1171  0.3755
   75MOL   H49642084   0.280   6.392   7.812  0.2448  1.5283 -1.0778
   75MOL   H49742085   0.205   6.563   7.974 -0.9414  0.6856  0.4077
   75MOL   H49842086   7.909   6.606   7.982 -3.3290 -0.6631  3.0836
   75MOL   H49942087   7.706   6.737   7.999  2.1972 -2.0917 -0.1647
   75MOL   H50042088   7.572   6.892   8.122 -0.9506  0.1027  1.6456
   75MOL   H50142089   7.721   7.146   0.194  0.4592 -1.5099  1.5241
   75MOL   H50242090   7.920   7.028   0.194 -1.5915  0.0783  0.5970
   75MOL   H50342091   8.060   6.867   0.066 -0.1572 -1.8237 -0.7031
   75MOL   H50442092   7.941   6.457   7.883 -0.0126 -0.6054  0.3848
   75MOL   H50542093   8.013   6.320   7.694 -0.6051  1.3803 -1.4999
   75MOL   C50642094   7.532   7.074   0.196  0.0991  0.3713  0.6598
   75MOL   C50742095   7.492   7.184   0.295 -0.2739 -0.3508  0.3257
   75MOL   C50842096   7.377   7.164   0.373  0.9194 -0.3329 -0.6542
   75MOL   C50942097   7.323   7.274   0.452  0.2258 -0.3489  0.0496
   75MOL   C51042098   7.385   7.403   0.457  0.5299  0.6477  0.3587
   75MOL   C51142099   7.331   7.512   0.544  0.0482  0.6741 -0.4319
   75MOL   N51242100   7.273   7.477   0.657 -0.9092  0.0264 -0.2435
   75MOL   C51342101   7.211   7.552   0.770  0.1463 -0.0234  0.1034
   75MOL   C51442102   7.150   7.489   0.876  0.0170  0.1224  0.3231
   75MOL   C51542103   7.087   7.563   0.980 -0.5762 -0.3066 -0.3636
   75MOL   C51642104   7.075   7.701   0.974 -0.1589 -0.4234 -0.1775
   75MOL   N51742105   7.012   7.782   1.072 -0.5010  0.5186 -0.4977
   75MOL   C51842106   7.139   7.770   0.868 -0.0346  0.6240  0.1415
   75MOL   C51942107   7.197   7.697   0.763 -0.9535 -0.3465  0.6363
   75MOL   O52042108   7.353   7.626   0.501 -0.3559 -0.1052 -0.3493
   75MOL   C52142109   7.505   7.417   0.378 -0.5490 -0.7752 -0.3248
   75MOL   C52242110   7.549   7.316   0.295 -0.0249  0.4385  0.1707
   75MOL   O52342111   7.445   6.996   0.155  0.1832  0.6322  0.1296
   75MOL   H52442112   7.319   7.073   0.377 -1.7197  1.2544 -1.5541
   75MOL   H52542113   7.229   7.248   0.499 -0.7916 -0.4097 -1.9678
   75MOL   H52642114   7.270   7.376   0.663  0.5920  0.0513  1.6137
   75MOL   H52742115   7.145   7.381   0.885 -0.7064 -0.1776 -3.2082
   75MOL   H52842116   7.047   7.511   1.067 -0.7243 -1.6240 -1.2070
   75MOL   H52942117   7.051   7.875   1.069  0.5871  0.1380  1.3178
   75MOL   H53042118   7.132   7.877   0.857 -0.4204  0.6400  0.5499
   75MOL   H53142119   7.238   7.751   0.679 -0.4630  0.7044  1.5443
   75MOL   H53242120   7.553   7.513   0.384  0.5330 -1.3457  0.4433
   75MOL   H53342121   7.634   7.342   0.233 -1.5789  0.2273 -2.1165
   75MOL   C53442122   6.896   7.763   1.128 -0.1160  0.1938  0.0309
   75MOL   C53542123   6.845   7.872   1.213 -0.2698 -0.7673  0.5910
   75MOL   C53642124   6.716   7.916   1.196  0.5933  0.7495  0.4253
   75MOL   C53742125   6.662   8.011   1.291 -0.1724  1.3293  0.8879
   75MOL   C53842126   6.741   8.053   1.401  1.1572 -0.0415  0.0368
   75MOL   C53942127   6.699   0.006   1.508  0.3734  0.4199 -0.3392
   75MOL   N54042128   6.569   0.001   1.542 -0.4169  0.0901 -0.0355
   75MOL   C54142129   6.492   0.071   1.636 -0.5956 -0.4941 -0.8816
   75MOL   C54242130   6.361   0.124   1.609  0.6409  0.2917 -0.2695
   75MOL   C54342131   6.296   0.203   1.709 -0.1006  0.4052  0.0068
   75MOL   C54442132   6.359   0.222   1.831 -0.7563 -0.2510 -0.4259
   75MOL   N54542133   6.298   0.301   1.928 -0.1101 -0.2196 -0.1774
   75MOL   C54642134   6.487   0.174   1.854 -0.4168  0.2433  0.0494
   75MOL   C54742135   6.552   0.099   1.760  0.0162 -0.7947  0.3738
   75MOL   O54842136   6.784   0.075   1.565  0.2299  0.0702 -0.5969
   75MOL   C54942137   6.881   8.010   1.405 -0.2764  0.5804 -0.8090
   75MOL   C55042138   6.927   7.919   1.311 -0.1630 -0.7323 -0.6307
   75MOL   O55142139   6.826   7.667   1.112 -0.0290 -0.6347 -0.2349
   75MOL   H55242140   6.642   7.888   1.123  1.1042  2.2869 -0.7134
   75MOL   H55342141   6.560   8.040   1.269  0.4823  1.8486 -1.5803
   75MOL   H55442142   6.523   8.067   1.500 -0.9004  0.8599 -0.9968
   75MOL   H55542143   6.315   0.095   1.515  0.2569  0.8326 -0.2478
   75MOL   H55642144   6.196   0.238   1.686 -0.2248  0.4028  0.5418
   75MOL   H55742145   6.205   0.339   1.917 -0.3802 -0.4299  1.2555
   75MOL   H55842146   6.534   0.182   1.952 -2.2423 -1.1847  1.0802
   75MOL   H55942147   6.651   0.060   1.780  0.3086 -0.2315  0.0278
   75MOL   H56042148   6.942   8.048   1.485 -0.2224 -0.2870 -0.4394
   75MOL   H56142149   7.030   7.889   1.316  0.4266  1.4239  0.7795
   75MOL   H56242150   6.358   0.372   1.968 -1.7023  2.3620 -2.2096
   76MOL     C142151   2.497   3.417   0.147 -0.1426  0.2391 -0.2731
   76MOL     C242152   2.440   3.548   0.121 -1.0727 -0.4360  0.1138
   76MOL     C342153   2.428   3.635   0.229 -0.9955  0.2764  0.0672
   76MOL     C442154   2.392   3.764   0.208 -0.0509 -0.2701 -0.2052
   76MOL     C542155   2.365   3.812   0.076 -0.0496  0.0952  0.0529
   76MOL     C642156   2.333   3.959   0.051 -0.7364 -0.1052 -0.6588
   76MOL     N742157   2.278   4.017   0.162  0.2984 -0.2295  0.3752
   76MOL     C842158   2.221   4.150   0.182 -0.0946 -0.3000  0.3418
   76MOL     C942159   2.210   4.248   0.080 -0.5445  0.1065  0.3180
   76MOL    C1042160   2.156   4.374   0.107  1.2473 -0.4768  0.4669
   76MOL    C1142161   2.106   4.399   0.241  0.2645 -0.1750 -0.2943
   76MOL    N1242162   2.083   4.534   0.283 -0.0821  0.4357  0.4307
   76MOL    C1342163   2.108   4.301   0.339  0.6440  0.0082 -0.0613
   76MOL    C1442164   2.169   4.179   0.311  0.2721  0.4697  0.2189
   76MOL    O1542165   2.363   4.015   8.102  0.0030  0.9113 -0.2602
   76MOL    C1642166   2.365   3.727   8.111 -0.0735 -0.9280  0.2120
   76MOL    C1742167   2.410   3.595   8.138  0.4480  0.4233  0.2315
   76MOL    O1842168   2.501   3.326   0.068 -0.0086  0.2212  0.0122
   76MOL    H1942169   2.453   3.614   0.332 -0.0885  2.5404  0.3327
   76MOL    H2042170   2.391   3.831   0.293  1.2398  0.8088 -1.0154
   76MOL    H2142171   2.258   3.960   0.243 -1.1885  0.8556  0.8165
   76MOL    H2242172   2.238   4.234   8.123 -2.2683  0.7295 -0.2648
   76MOL    H2342173   2.151   4.447   0.027 -0.4568 -0.0696  0.9249
   76MOL    H2442174   2.031   4.556   0.366 -0.8575  1.1193 -0.2193
   76MOL    H2542175   2.076   4.317   0.441  0.0231  0.4879 -0.3315
   76MOL    H2642176   2.187   4.103   0.385 -0.0583  0.5693  0.4011
   76MOL    H2742177   2.342   3.757   8.010  1.3983  2.0139  0.7156
   76MOL    H2842178   2.416   3.522   8.058 -3.6916  1.3342 -1.0576
   76MOL    H2942179   2.545   3.411   0.245  0.6912 -0.9643 -0.7431
   76MOL    C3042180   2.129   4.645   0.236  0.0211 -0.8431 -0.5224
   76MOL    C3142181   2.073   4.761   0.303  0.1791  0.5548 -0.4726
   76MOL    C3242182   2.009   4.861   0.230  0.0373 -0.8717  0.4419
   76MOL    C3342183   1.957   4.972   0.303  0.3400 -0.0961  0.7064
   76MOL    C3442184   1.960   4.985   0.442 -0.6131 -1.1843 -0.1419
   76MOL    C3542185   1.874   5.089   0.510 -0.4216 -0.3024 -0.4249
   76MOL    N3642186   1.893   5.091   0.648  0.0593 -0.9292  0.9947
   76MOL    C3742187   1.817   5.151   0.752  0.6126 -0.9748 -0.0119
   76MOL    C3842188   1.720   5.251   0.739 -0.3948  0.5803  0.6909
   76MOL    C3942189   1.636   5.280   0.847 -0.3972  0.2619 -0.7612
   76MOL    C4042190   1.653   5.224   0.974 -0.2117  1.1387 -0.2576
   76MOL    N4142191   1.563   5.236   1.085 -0.4207  0.0739  0.7784
   76MOL    C4242192   1.769   5.141   0.990  0.3046 -0.2756 -0.5024
   76MOL    C4342193   1.843   5.104   0.880 -0.3648 -0.2465  0.4062
   76MOL    O4442194   1.789   5.158   0.451 -0.6673  0.3337  0.0277
   76MOL    C4542195   2.032   4.878   0.516  1.0454 -0.0449  0.7892
   76MOL    C4642196   2.084   4.766   0.444 -0.7935  0.4643  0.5287
   76MOL    O4742197   2.209   4.664   0.142  0.4946 -0.3660 -0.1370
   76MOL    H4842198   2.006   4.853   0.122  1.1558 -1.4882  0.4411
   76MOL    H4942199   1.906   5.044   0.240 -2.7463 -1.9023  0.9984
   76MOL    H5042200   1.983   5.053   0.676  0.5060 -2.4595 -2.2196
   76MOL    H5142201   1.709   5.301   0.644  1.2633 -0.8151 -0.2774
   76MOL    H5242202   1.549   5.341   0.827 -1.0046 -1.1965 -2.6505
   76MOL    H5342203   1.594   5.192   1.171  1.5447  0.9836  0.5600
   76MOL    H5442204   1.790   5.101   1.089  0.4223  2.0782  0.4653
   76MOL    H5542205   1.924   5.034   0.889 -2.2433 -2.1791  2.9946
   76MOL    H5642206   2.035   4.875   0.624 -0.4551 -0.0245  0.8439
   76MOL    H5742207   2.127   4.685   0.501 -0.9600 -0.3126 -0.4322
   76MOL    C5842208   1.459   5.316   1.101  0.0122 -0.6565 -0.1262
   76MOL    C5942209   1.391   5.308   1.236  0.8237  0.1887 -0.4568
   76MOL    C6042210   1.470   5.269   1.352  0.5009  0.1840  0.6562
   76MOL    C6142211   1.410   5.274   1.480 -0.4079 -0.1940  1.1436
   76MOL    C6242212   1.282   5.331   1.498  0.1772  0.0067  0.5101
   76MOL    C6342213   1.215   5.325   1.634 -0.2908 -0.4364  0.3794
   76MOL    N6442214   1.270   5.237   1.712 -0.8210  0.0533 -0.0609
   76MOL    C6542215   1.232   5.192   1.839  0.0993  0.0970 -0.2141
   76MOL    C6642216   1.110   5.226   1.907  0.5106  0.3481  1.2071
   76MOL    C6742217   1.093   5.189   2.037 -0.3372  0.5932  0.2560
   76MOL    C6842218   1.192   5.117   2.107 -0.4094 -0.1700  0.3214
   76MOL    N6942219   1.161   5.067   2.238  0.0021  0.2206  0.0759
   76MOL    C7042220   1.318   5.092   2.045 -0.0517  0.0407  0.0478
   76MOL    C7142221   1.335   5.126   1.909 -0.1394 -0.1678 -0.3192
   76MOL    O7242222   1.125   5.399   1.669 -0.0680  0.0297 -0.2925
   76MOL    C7342223   1.206   5.365   1.378  0.4920  0.4747  0.1164
   76MOL    C7442224   1.261   5.360   1.252  0.4265 -0.9079 -0.5011
   76MOL    O7542225   1.421   5.397   1.015 -0.1476 -0.0256  0.0923
   76MOL    H7642226   1.566   5.220   1.343 -0.5732 -1.7526 -0.6725
   76MOL    H7742227   1.465   5.224   1.558  1.4086 -4.2135 -2.4750
   76MOL    H7842228   1.350   5.193   1.669 -0.1618  1.3066 -0.1327
   76MOL    H7942229   1.036   5.285   1.856  0.9606  0.3257  0.5316
   76MOL    H8042230   1.001   5.216   2.088 -0.7876 -0.5490  0.0550
   76MOL    H8142231   1.097   5.128   2.287  0.4618 -1.4467  2.8789
   76MOL    H8242232   1.401   5.048   2.097  0.5773 -0.1053 -1.0624
   76MOL    H8342233   1.428   5.117   1.856 -0.2272 -1.3301 -0.2805
   76MOL    H8442234   1.105   5.401   1.387 -0.1554 -0.7561 -1.8908
   76MOL    H8542235   1.209   5.390   1.163 -1.2188  0.2876  0.8332
   76MOL    C8642236   1.221   4.979   2.316  0.1226  0.4345 -0.3632
   76MOL    C8742237   1.185   4.997   2.463  0.8532  0.4996 -0.3790
   76MOL    C8842238   1.253   4.928   2.563  0.1638  0.4310  0.2811
   76MOL    C8942239   1.218   4.935   2.701  0.5517 -0.1442  0.3938
   76MOL    C9042240   1.121   5.025   2.749 -0.4136  0.2155  0.3096
   76MOL    C9142241   1.083   5.031   2.895  0.1814 -0.0267 -0.3615
   76MOL    N9242242   1.167   4.988   2.989 -0.0498 -0.1147  0.0778
   76MOL    C9342243   1.132   4.951   3.124 -0.1375 -0.2045  0.3850
   76MOL    C9442244   1.224   4.870   3.192  0.1647 -0.1432  0.3786
   76MOL    C9542245   1.193   4.818   3.319 -0.3097 -0.1724 -0.5982
   76MOL    C9642246   1.070   4.849   3.383 -0.2433  0.3058 -0.3147
   76MOL    N9742247   1.032   4.806   3.509  0.1220 -0.7152  0.2015
   76MOL    C9842248   0.982   4.936   3.315  0.0726 -0.1149  0.2117
   76MOL    C9942249   1.005   4.978   3.186  0.5615 -0.6368  0.0490
   76MOL   O10042250   0.982   5.096   2.922 -0.0690 -0.3548 -0.5230
   76MOL   C10142251   1.058   5.102   2.648 -0.5609 -0.0191 -0.7274
   76MOL   C10242252   1.083   5.086   2.508 -0.6565  0.7806  0.1294
   76MOL   O10342253   1.302   4.894   2.275  0.1045 -0.4718  0.2850
   76MOL   H10442254   1.337   4.866   2.537 -0.9481 -0.8770 -0.2803
   76MOL   H10542255   1.269   4.877   2.777  0.6846  0.2884  0.6391
   76MOL   H10642256   1.260   4.963   2.958  0.1956 -0.0786  0.7726
   76MOL   H10742257   1.311   4.832   3.141  1.0568 -0.4951  2.0933
   76MOL   H10842258   1.263   4.751   3.367 -1.0297  0.2644  1.1049
   76MOL   H10942259   0.967   4.858   3.565  0.6283  1.3454 -1.0929
   76MOL   H11042260   0.889   4.945   3.369 -0.2031 -0.9979 -0.1152
   76MOL   H11142261   0.931   5.037   3.133  1.6342 -0.3854 -1.1953
   76MOL   H11242262   0.985   5.177   2.674 -0.7162 -0.4420  0.0964
   76MOL   H11342263   1.021   5.150   2.447 -1.7452 -0.0292  0.3583
   76MOL   C11442264   1.041   4.675   3.550 -1.4489  0.0956  0.2103
   76MOL   C11542265   1.111   4.581   3.453  0.8893 -0.2575  0.3690
   76MOL   C11642266   1.049   4.547   3.331  0.7423 -0.0192 -0.4315
   76MOL   C11742267   1.115   4.454   3.248  0.2040  0.7404 -0.1061
   76MOL   C11842268   1.247   4.410   3.270 -0.0414  0.2599  0.1452
   76MOL   C11942269   1.324   4.320   3.174 -1.0092  0.4240  0.2135
   76MOL   N12042270   1.258   4.292   3.064 -0.3771 -0.1775  0.0430
   76MOL   C12142271   1.300   4.220   2.948  0.1244 -0.3750  0.3217
   76MOL   C12242272   1.198   4.208   2.853 -0.4078 -0.6477 -0.2555
   76MOL   C12342273   1.226   4.140   2.731 -0.3549  0.2014  0.7480
   76MOL   C12442274   1.356   4.090   2.698  0.2513 -0.5661  0.7356
   76MOL   N12542275   1.377   4.030   2.568  0.5191  0.2028  0.5162
   76MOL   C12642276   1.456   4.112   2.794 -0.0153  0.5777  0.1738
   76MOL   C12742277   1.433   4.181   2.915 -0.0159 -0.4357  0.3064
   76MOL   O12842278   1.439   4.277   3.195  0.0610  0.1470 -0.2648
   76MOL   C12942279   1.290   4.429   3.400  0.2589  0.5298  0.3185
   76MOL   C13042280   1.227   4.510   3.495  0.0672  0.2637 -0.0496
   76MOL   O13142281   1.005   4.631   3.659  0.1973 -0.0089  0.0215
   76MOL   H13242282   0.952   4.589   3.311 -0.7798 -1.4067  3.5754
   76MOL   H13342283   1.065   4.442   3.153  0.2895  0.9758 -0.1826
   76MOL   H13442284   1.164   4.329   3.068 -0.5843 -0.8128  1.5260
   76MOL   H13542285   1.091   4.218   2.865 -0.7999 -2.1769 -2.2844
   76MOL   H13642286   1.143   4.128   2.663  0.9695  1.7296 -1.1953
   76MOL   H13742287   1.309   4.052   2.497  1.0304 -0.2255 -0.1055
   76MOL   H13842288   1.554   4.073   2.770 -0.7187 -1.4125  0.4333
   76MOL   H13942289   1.515   4.187   2.984 -0.6823  0.0165  1.0669
   76MOL   H14042290   1.375   4.365   3.419  0.1421  0.2165 -0.2077
   76MOL   H14142291   1.271   4.527   3.592  1.3419  0.3788 -0.6222
   76MOL   C14242292   1.479   3.987   2.504 -0.4147 -0.2864  0.6931
   76MOL   C14342293   1.467   3.994   2.354  0.9953 -0.0758  0.1445
   76MOL   C14442294   1.503   3.881   2.285 -0.5580 -0.6460 -0.1586
   76MOL   C14542295   1.533   3.891   2.149 -0.7400 -1.0923  0.9842
   76MOL   C14642296   1.502   4.015   2.078 -0.2530  0.1422  0.1376
   76MOL   C14742297   1.538   4.026   1.937  0.6832 -0.3679 -0.2939
   76MOL   N14842298   1.532   4.142   1.872  0.0572  0.0643  0.1077
   76MOL   C14942299   1.576   4.178   1.742 -0.7808  0.2768  0.1679
   76MOL   C15042300   1.670   4.104   1.666  0.3331  1.0320  0.0841
   76MOL   C15142301   1.718   4.153   1.540  0.2594 -0.0285  0.7802
   76MOL   C15242302   1.669   4.276   1.487 -0.0363 -0.0550  0.2795
   76MOL   N15342303   1.707   4.310   1.355  0.1468 -0.1255  0.0338
   76MOL   C15442304   1.579   4.352   1.569 -0.1898  0.6803 -0.1153
   76MOL   C15542305   1.531   4.297   1.690  0.1523 -0.0104  0.0119
   76MOL   O15642306   1.593   3.928   1.888  0.5133  0.3987  0.7066
   76MOL   C15742307   1.439   4.122   2.148 -0.4488 -0.4902  0.0674
   76MOL   C15842308   1.421   4.112   2.286 -0.4332 -0.1091  0.6694
   76MOL   O15942309   1.562   3.935   2.574  0.1423  0.1255 -0.1645
   76MOL   H16042310   1.536   3.792   2.336  1.2716  0.5677  0.8180
   76MOL   H16142311   1.570   3.811   2.087 -1.1949 -0.7919  0.3237
   76MOL   H16242312   1.495   4.220   1.924 -1.9594 -1.0856  0.4449
   76MOL   H16342313   1.701   4.006   1.698  1.7227  0.8989 -1.6264
   76MOL   H16442314   1.769   4.087   1.472 -0.1966 -1.2345  1.5870
   76MOL   H16542315   1.712   4.234   1.289  1.3148 -0.8458  0.9340
   76MOL   H16642316   1.543   4.449   1.538  0.8785  0.2321 -2.9483
   76MOL   H16742317   1.462   4.354   1.750  2.4063  2.0276  0.7326
   76MOL   H16842318   1.430   4.217   2.098 -0.0923 -0.8358 -0.6674
   76MOL   H16942319   1.388   4.196   2.346 -1.5482 -1.6031  2.1830
   76MOL   C17042320   1.755   4.423   1.305  0.2110 -0.0936  0.2407
   76MOL   C17142321   1.790   4.403   1.162  0.3879 -0.1377 -1.1255
   76MOL   C17242322   1.904   4.469   1.118 -0.3415  0.0440  0.5867
   76MOL   C17342323   1.960   4.440   0.994  0.5219  0.6766  0.1272
   76MOL   C17442324   1.903   4.342   0.913 -0.5738  0.1131  0.0468
   76MOL   C17542325   1.981   4.287   0.794  0.6015 -0.0989  0.7073
   76MOL   N17642326   1.962   4.160   0.777  0.0482 -0.0674 -0.3485
   76MOL   C17742327   2.047   4.057   0.731  0.2647 -0.2246 -1.1836
   76MOL   C17842328   2.172   4.082   0.667  0.1751  0.1150 -0.0442
   76MOL   C17942329   2.251   3.976   0.631  0.2201  1.0372 -0.0374
   76MOL   C18042330   2.210   3.842   0.655  0.0565 -0.3359 -0.1643
   76MOL   N18142331   2.291   3.725   0.638 -0.0093  0.5029  0.1643
   76MOL   C18242332   2.084   3.813   0.714 -0.0417 -0.2068 -0.6191
   76MOL   C18342333   2.005   3.927   0.755  0.0573  0.4613  0.9306
   76MOL   O18442334   2.058   4.360   0.735 -0.8508  0.1845 -0.1047
   76MOL   C18542335   1.778   4.288   0.951 -0.1940 -0.5103 -0.1313
   76MOL   C18642336   1.718   4.312   1.080 -0.4479  0.0438  0.4725
   76MOL   O18742337   1.775   4.527   1.369  0.6117 -0.1307 -0.1347
   76MOL   H18842338   1.978   4.519   1.179  1.6777 -0.3370 -1.4656
   76MOL   H18942339   2.057   4.476   0.967  0.2616  0.4775 -1.0698
   76MOL   H19042340   1.889   4.119   0.834  1.7895 -1.0749  1.2313
   76MOL   H19142341   2.202   4.186   0.656  2.6666 -0.4185  1.4619
   76MOL   H19242342   2.347   3.997   0.585  1.3797  0.8364  2.2368
   76MOL   H19342343   2.246   3.641   0.669 -2.6208  2.4647  1.8986
   76MOL   H19442344   2.049   3.713   0.736 -0.5330  0.0429 -0.2585
   76MOL   H19542345   1.911   3.903   0.802  0.9360 -0.9165  2.0602
   76MOL   H19642346   1.733   4.219   0.881 -0.5960 -0.6153  0.2179
   76MOL   H19742347   1.630   4.256   1.110 -0.7159  0.1966 -0.0324
   76MOL   C19842348   2.414   3.705   0.603 -0.4512 -0.4961 -0.3325
   76MOL   C19942349   2.467   3.559   0.601  0.3284  0.3090 -0.0779
   76MOL   C20042350   2.595   3.526   0.555 -0.9509 -0.0308  1.1273
   76MOL   C20142351   2.634   3.390   0.557 -0.4308  0.2337 -0.1007
   76MOL   C20242352   2.551   3.286   0.617  0.0526 -0.4180 -0.6202
   76MOL   C20342353   2.597   3.142   0.634 -0.2143 -0.7580  0.2825
   76MOL   N20442354   2.543   3.079   0.739  0.5904  0.1863 -0.1955
   76MOL   C20542355   2.556   2.945   0.771 -0.4318 -0.3122  0.2134
   76MOL   C20642356   2.628   2.848   0.695 -0.0015 -0.0021  0.3086
   76MOL   C20742357   2.629   2.713   0.740  0.1234 -0.1344 -0.2290
   76MOL   C20842358   2.555   2.675   0.853 -0.1179  0.1564  0.9826
   76MOL   N20942359   2.531   2.536   0.875  0.0854 -0.0812  0.4846
   76MOL   C21042360   2.491   2.773   0.935  0.4993 -0.0984  0.5346
   76MOL   C21142361   2.494   2.907   0.894  0.0402 -0.3181 -0.1870
   76MOL   O21242362   2.682   3.095   0.559  0.1873  0.4940  0.0916
   76MOL   C21342363   2.421   3.319   0.654  0.6949 -0.8185  0.1105
   76MOL   C21442364   2.381   3.453   0.644  0.4596 -0.0454  0.0773
   76MOL   O21542365   2.487   3.787   0.562  0.9118  0.0557 -0.0370
   76MOL   H21642366   2.664   3.598   0.515  0.3916 -1.0622  1.5573
   76MOL   H21742367   2.730   3.372   0.510 -0.2228  0.1084  0.3732
   76MOL   H21842368   2.482   3.142   0.789  3.2444  1.8456  1.0721
   76MOL   H21942369   2.688   2.867   0.608  2.9490 -1.8128  1.8642
   76MOL   H22042370   2.684   2.642   0.681  1.6431  2.3140 -1.8393
   76MOL   H22142371   2.569   2.476   0.804  2.1231  0.8799  0.7265
   76MOL   H22242372   2.441   2.744   1.026  1.0082  0.9508  1.1553
   76MOL   H22342373   2.450   2.990   0.947  1.2660  1.1549 -1.4110
   76MOL   H22442374   2.350   3.253   0.702  0.1636 -0.8340 -0.7040
   76MOL   H22542375   2.284   3.473   0.688  0.1376 -0.8580 -0.2601
   76MOL   C22642376   2.454   2.473   0.968 -0.0571 -0.2031  0.7715
   76MOL   C22742377   2.409   2.334   0.932  0.6724  0.5702 -0.2319
   76MOL   C22842378   2.371   2.306   0.797 -0.3233  0.0519 -0.2296
   76MOL   C22942379   2.343   2.172   0.759  0.5457 -0.6722  0.4411
   76MOL   C23042380   2.326   2.072   0.854  0.3931  0.7352  0.1444
   76MOL   C23142381   2.282   1.937   0.812  1.0978 -0.2986 -0.4244
   76MOL   N23242382   2.279   1.908   0.679  0.6600  0.4383 -0.1097
   76MOL   C23342383   2.257   1.784   0.610  0.2279 -0.3487 -0.6627
   76MOL   C23442384   2.327   1.756   0.497  0.6972  1.2678 -0.2957
   76MOL   C23542385   2.280   1.645   0.418  0.3408 -0.4131  0.5916
   76MOL   C23642386   2.173   1.557   0.456  0.2595 -0.0611 -0.3031
   76MOL   N23742387   2.123   1.469   0.361  0.0194 -0.3260  0.3378
   76MOL   C23842388   2.119   1.577   0.585 -0.5339  0.6705 -0.5594
   76MOL   C23942389   2.163   1.687   0.662 -0.4793 -0.3810  0.2352
   76MOL   O24042390   2.263   1.851   0.897  0.1293  0.2123 -0.0100
   76MOL   C24142391   2.352   2.103   0.991  0.3595  0.8542  0.0970
   76MOL   C24242392   2.393   2.233   1.030  0.7863 -0.4891  0.2553
   76MOL   O24342393   2.416   2.525   1.072 -0.1991 -0.3953  0.3935
   76MOL   H24442394   2.362   2.381   0.721 -0.7914 -0.5490 -0.7675
   76MOL   H24542395   2.310   2.156   0.657  0.7332 -0.8412  0.4064
   76MOL   H24642396   2.306   1.978   0.612 -0.0311  1.1324  0.3346
   76MOL   H24742397   2.419   1.810   0.484  1.2613 -0.0605 -2.1226
   76MOL   H24842398   2.335   1.638   0.325  2.3093  2.2126  1.4945
   76MOL   H24942399   2.196   1.421   0.310  1.1577  1.4267  0.2680
   76MOL   H25042400   2.039   1.510   0.612  0.8221 -1.1638 -0.9485
   76MOL   H25142401   2.112   1.720   0.752  0.0817  1.0187  0.0547
   76MOL   H25242402   2.338   2.031   1.070  2.0165  2.1893  1.6473
   76MOL   H25342403   2.426   2.251   1.131  0.4369  2.2413 -0.0711
   76MOL   C25442404   1.994   1.454   0.329 -0.1114  0.2176  0.4381
   76MOL   C25542405   1.955   1.364   0.215 -0.1063  0.4258  0.1387
   76MOL   C25642406   2.051   1.312   0.125 -0.0827 -0.3898  0.5719
   76MOL   C25742407   2.012   1.250   0.005 -0.9337 -0.8787 -0.0099
   76MOL   C25842408   1.874   1.214   8.142 -0.3057 -0.6139  0.4222
   76MOL   C25942409   1.825   1.147   8.016  0.1447  0.0447  0.1837
   76MOL   N26042410   1.700   1.172   7.995 -0.4953  0.1405  0.5485
   76MOL   C26142411   1.600   1.105   7.923 -0.0518  0.2082  1.1902
   76MOL   C26242412   1.483   1.081   8.001 -0.7873 -0.2396  0.2368
   76MOL   C26342413   1.379   1.022   7.928  0.0044 -0.3536 -0.1892
   76MOL   C26442414   1.387   0.981   7.797 -0.1323 -0.3902  0.1032
   76MOL   N26542415   1.264   0.919   7.744 -0.6933  0.6304  0.2506
   76MOL   C26642416   1.512   0.998   7.727  0.5788  0.4245 -0.6134
   76MOL   C26742417   1.617   1.066   7.787  0.2059 -0.4562 -0.1292
   76MOL   O26842418   1.906   1.097   7.940  0.3341 -0.2089 -0.9180
   76MOL   C26942419   1.782   1.245   0.098  0.0151  0.6674 -0.3777
   76MOL   C27042420   1.823   1.324   0.206  0.0285 -0.0374  0.2707
   76MOL   O27142421   1.905   1.513   0.382 -0.4742  0.1241 -0.2106
   76MOL   H27242422   2.152   1.348   0.137 -0.6964  1.4058  0.4604
   76MOL   H27342423   2.084   1.225   8.075 -1.5256  1.2965 -1.3157
   76MOL   H27442424   1.664   1.233   8.067 -1.3830 -1.1142  1.2042
   76MOL   H27542425   1.477   1.107   8.106  2.4402 -1.8087  0.8749
   76MOL   H27642426   1.285   1.012   7.980  0.0975 -1.9198 -0.3072
   76MOL   H27742427   1.177   0.921   7.796 -1.3723 -0.2960 -0.8262
   76MOL   H27842428   1.533   0.961   7.628 -0.7983  0.1457 -0.8115
   76MOL   H27942429   1.712   1.083   7.740  0.0021 -0.0890 -0.4033
   76MOL   H28042430   1.680   1.211   0.096 -0.2642  1.5326 -2.0057
   76MOL   H28142431   1.755   1.360   0.281 -0.9373  1.6912 -1.4035
   76MOL   C28242432   1.252   0.874   7.617 -0.0857  0.0199 -0.0513
   76MOL   C28342433   1.119   0.810   7.592 -0.2156  0.2281  0.8559
   76MOL   C28442434   1.073   0.698   7.658 -0.5147 -0.4111  0.5434
   76MOL   C28542435   0.936   0.658   7.625 -0.7383 -0.5718 -0.4785
   76MOL   C28642436   0.853   0.730   7.544 -0.3579  0.2088  0.2457
   76MOL   C28742437   0.706   0.704   7.540 -0.9131 -0.0492 -0.0759
   76MOL   N28842438   0.623   0.814   7.553 -0.1485  0.4613 -0.3854
   76MOL   C28942439   0.657   0.934   7.614  0.1726  0.1177 -0.3339
   76MOL   C29042440   0.726   0.919   7.732  0.3957  0.2823  0.0629
   76MOL   C29142441   0.801   1.023   7.786  0.7816  0.1860  0.2876
   76MOL   C29242442   0.806   1.152   7.730  0.1235  0.3425  0.3983
   76MOL   N29342443   0.890   1.244   7.785  0.2449 -0.1351 -0.9448
   76MOL   C29442444   0.729   1.173   7.613  0.2123  0.2584  0.4708
   76MOL   C29542445   0.654   1.067   7.558  0.0308 -0.8628 -0.2669
   76MOL   O29642446   0.659   0.590   7.531  0.3939 -0.3706  0.5600
   76MOL   C29742447   0.899   0.841   7.470 -1.0158 -0.3404  0.7181
   76MOL   C29842448   1.034   0.881   7.495  0.0563  0.1283  0.1424
   76MOL   O29942449   1.348   0.870   7.532  0.7461  1.1001  0.2048
   76MOL   H30042450   1.112   0.649   7.746  2.6997  1.2691  0.1391
   76MOL   H30142451   0.888   0.584   7.688 -0.9000  1.3007  1.6699
   76MOL   H30242452   0.528   0.781   7.547 -0.6304  1.8488 -0.8115
   76MOL   H30342453   0.731   0.820   7.777 -0.6738  0.8376  1.4323
   76MOL   H30442454   0.853   1.006   7.880  1.0773 -0.1087  0.0721
   76MOL   H30542455   0.904   1.244   7.885 -0.4136  2.0777 -0.8298
   76MOL   H30642456   0.734   1.267   7.561 -0.7421  0.0952  0.0692
   76MOL   H30742457   0.600   1.097   7.470  1.6486  0.0872 -0.9547
   76MOL   H30842458   0.834   0.908   7.416 -0.4496 -1.2043 -1.0898
   76MOL   H30942459   1.072   0.971   7.449  0.1155  0.0476  0.0300
   76MOL   C31042460   0.982   1.313   7.717  0.3104 -0.3272 -0.5034
   76MOL   C31142461   1.107   1.352   7.794 -0.8383  0.1599 -0.5995
   76MOL   C31242462   1.188   1.456   7.740  0.0891 -0.2820  0.1035
   76MOL   C31342463   1.305   1.503   7.812 -0.0621  0.4885 -0.5676
   76MOL   C31442464   1.346   1.439   7.930 -0.3794  0.5136 -1.0846
   76MOL   C31542465   1.474   1.479   8.005 -0.2231  0.6165 -0.2572
   76MOL   N31642466   1.482   1.610   8.032  0.3848 -0.4278  0.4599
   76MOL   C31742467   1.574   1.686   8.106 -0.2425  0.9777  0.4898
   76MOL   C31842468   1.651   1.623   0.067 -1.0253  0.0307 -0.5362
   76MOL   C31942469   1.732   1.697   0.153 -0.1965  0.2649  0.2332
   76MOL   C32042470   1.719   1.839   0.146  0.0371  0.2448 -0.5371
   76MOL   N32142471   1.790   1.914   0.239  0.7324 -0.4313  0.0322
   76MOL   C32242472   1.636   1.900   0.051  0.1805 -0.4815  0.2171
   76MOL   C32342473   1.566   1.824   8.105  0.8487 -0.6363  0.5087
   76MOL   O32442474   1.557   1.396   8.042 -0.2738 -0.1691  0.2647
   76MOL   C32542475   1.262   1.336   7.982  0.2134 -0.0289  0.2239
   76MOL   C32642476   1.147   1.286   7.914 -0.3680  0.6598  0.2381
   76MOL   O32742477   0.969   1.344   7.599 -0.5796  0.3395  0.0190
   76MOL   H32842478   1.158   1.493   7.643  2.1999 -1.2959 -0.9728
   76MOL   H32942479   1.366   1.583   7.773  1.4621 -0.6678 -0.5840
   76MOL   H33042480   1.408   1.653   7.979 -0.3567 -0.7964  1.1894
   76MOL   H33142481   1.647   1.516   0.083 -0.3614  0.1711  0.5532
   76MOL   H33242482   1.791   1.645   0.227  0.8683  0.2826 -0.6003
   76MOL   H33342483   1.832   1.853   0.308  0.0155 -0.9218  0.0281
   76MOL   H33442484   1.624   2.006   0.034 -2.7413 -0.5714  1.4444
   76MOL   H33542485   1.515   1.872   8.024  0.8288 -0.4806  0.6138
   76MOL   H33642486   1.276   1.291   8.079 -1.0878 -0.2791  0.2985
   76MOL   H33742487   1.087   1.207   7.956  1.6186 -0.4569  1.0282
   76MOL   C33842488   1.825   2.039   0.236 -0.4523  0.7861  0.6149
   76MOL   C33942489   1.889   2.093   0.359  0.1495  0.0497 -0.0826
   76MOL   C34042490   1.940   2.008   0.460 -0.7011 -0.0333 -0.7284
   76MOL   C34142491   1.992   2.070   0.582  0.0348  0.2136 -0.5292
   76MOL   C34242492   1.976   2.211   0.597  1.3864  0.4193 -0.0259
   76MOL   C34342493   1.998   2.273   0.732  0.0573 -0.5908 -0.3345
   76MOL   N34442494   2.052   2.391   0.736 -0.0085  0.1678 -0.1752
   76MOL   C34542495   2.042   2.489   0.842  0.3021  0.6982  0.4989
   76MOL   C34642496   1.936   2.489   0.940 -0.0245 -0.0434 -0.0063
   76MOL   C34742497   1.939   2.585   1.040 -0.6704 -0.1710 -0.1696
   76MOL   C34842498   2.045   2.679   1.055  0.5088  0.3415  0.2645
   76MOL   N34942499   2.046   2.766   1.169  0.4489  0.5833 -0.2796
   76MOL   C35042500   2.141   2.679   0.954 -0.7311  0.1838 -0.4536
   76MOL   C35142501   2.144   2.579   0.854 -0.8113 -0.4131 -0.7723
   76MOL   O35242502   1.970   2.215   0.838  0.1150  0.7923 -0.0602
   76MOL   C35342503   1.928   2.291   0.492  0.5617  0.2290 -0.3522
   76MOL   C35442504   1.899   2.232   0.369  0.1031 -0.5677  0.4878
   76MOL   O35542505   1.801   2.113   0.146  0.1793 -0.0086 -0.1765
   76MOL   H35642506   1.939   1.900   0.450  2.2274  0.0339 -2.1765
   76MOL   H35742507   2.020   2.005   0.663 -0.5294  2.2357  1.3596
   76MOL   H35842508   2.081   2.424   0.645 -2.0302 -0.3665 -1.0331
   76MOL   H35942509   1.863   2.410   0.933 -1.1530  1.0842 -1.2035
   76MOL   H36042510   1.863   2.589   1.117 -0.3646  1.9070  0.0511
   76MOL   H36142511   2.036   2.713   1.255  0.2535  1.6896  0.3837
   76MOL   H36242512   2.223   2.749   0.950 -1.4958  1.0670 -0.9119
   76MOL   H36342513   2.225   2.595   0.784  0.2617  0.2570  0.6033
   76MOL   H36442514   1.909   2.396   0.504  0.4490  0.0880  0.7263
   76MOL   H36542515   1.847   2.295   0.298 -0.2520 -2.0556 -0.5963
   76MOL   C36642516   2.116   2.878   1.176 -0.8203 -0.5249  0.0341
   76MOL   C36742517   2.202   2.892   1.303  0.2121  0.4076  1.2499
   76MOL   C36842518   2.152   2.869   1.430 -0.4167 -0.2801  0.0089
   76MOL   C36942519   2.231   2.868   1.547  0.6755 -1.3873 -0.2500
   76MOL   C37042520   2.368   2.893   1.534 -1.2765  0.3463  0.0700
   76MOL   C37142521   2.463   2.867   1.650 -0.4983 -0.5337 -0.6603
   76MOL   N37242522   2.585   2.918   1.634 -0.2468 -0.1036 -0.0225
   76MOL   C37342523   2.703   2.887   1.713  0.0710  0.0395 -0.1197
   76MOL   C37442524   2.716   2.783   1.804 -0.2937  0.1800 -0.3654
   76MOL   C37542525   2.840   2.739   1.856  0.1012 -0.6693  0.2896
   76MOL   C37642526   2.956   2.795   1.798 -0.0321 -0.1451  0.4583
   76MOL   N37742527   3.078   2.738   1.831 -0.1668  0.1433 -0.0226
   76MOL   C37842528   2.949   2.907   1.717 -0.2424  0.1631  0.1056
   76MOL   C37942529   2.824   2.948   1.673  0.5596  0.3277 -0.0360
   76MOL   O38042530   2.429   2.802   1.746 -0.0639  0.4970 -0.3811
   76MOL   C38142531   2.428   2.922   1.402  0.2639 -0.1504 -0.0198
   76MOL   C38242532   2.336   2.918   1.294  0.1204 -0.1141  0.4537
   76MOL   O38342533   2.122   2.964   1.084  0.0313 -0.1199  0.1791
   76MOL   H38442534   2.051   2.838   1.452  0.0765 -0.7993  1.6445
   76MOL   H38542535   2.197   2.834   1.644 -1.8249  0.5929 -0.3840
   76MOL   H38642536   2.611   2.964   1.548 -1.0331  1.6706  0.6665
   76MOL   H38742537   2.631   2.734   1.848 -2.6371  3.0948 -1.4336
   76MOL   H38842538   2.844   2.658   1.927 -0.7459  1.7945  3.2619
   76MOL   H38942539   3.099   2.709   1.925  0.1242 -0.9526 -0.4123
   76MOL   H39042540   3.038   2.944   1.668 -0.6873 -1.3553 -1.9095
   76MOL   H39142541   2.817   3.018   1.590  0.6124  0.8012  0.3530
   76MOL   H39242542   2.530   2.953   1.387 -0.0397 -0.0161 -2.0487
   76MOL   H39342543   2.369   2.927   1.191 -1.9555 -2.2037 -0.4478
   76MOL   C39442544   3.182   2.711   1.750  0.0739  0.5019  0.1015
   76MOL   C39542545   3.301   2.643   1.819 -0.0872 -0.1299  0.4540
   76MOL   C39642546   3.318   2.640   1.959  0.3193  0.7233  0.1676
   76MOL   C39742547   3.424   2.573   2.019  1.0877 -0.5499 -0.0425
   76MOL   C39842548   3.530   2.518   1.943  0.6123  0.1158  0.2206
   76MOL   C39942549   3.640   2.442   2.006  0.7847 -0.5251 -0.1183
   76MOL   N40042550   3.682   2.344   1.928 -0.0150 -0.0601  0.9042
   76MOL   C40142551   3.757   2.223   1.957 -0.2507 -0.0050 -0.1697
   76MOL   C40242552   3.760   2.123   1.864 -0.0952 -0.3505 -0.1268
   76MOL   C40342553   3.819   2.001   1.899 -0.0720  0.5920  0.2698
   76MOL   C40442554   3.878   1.977   2.026 -0.3051  0.2741  0.0602
   76MOL   N40542555   3.924   1.842   2.039  0.4872 -0.3462  0.2081
   76MOL   C40642556   3.891   2.085   2.112  0.2684  0.5063  0.0513
   76MOL   C40742557   3.831   2.203   2.079  0.3283 -0.0417 -0.4301
   76MOL   O40842558   3.682   2.461   2.122 -0.6562  0.6188  0.4900
   76MOL   C40942559   3.518   2.536   1.806 -0.4177  0.0846 -0.0508
   76MOL   C41042560   3.408   2.591   1.742 -0.5688  0.9349 -0.0836
   76MOL   O41142561   3.185   2.724   1.624  0.0755  0.0151 -0.7363
   76MOL   H41242562   3.247   2.672   2.034 -0.2805 -3.4299  1.5173
   76MOL   H41342563   3.427   2.553   2.125  0.7964 -2.0628 -0.3097
   76MOL   H41442564   3.641   2.351   1.836  2.0743 -0.8700 -0.1079
   76MOL   H41542565   3.717   2.129   1.765 -1.3469 -1.4130  0.3457
   76MOL   H41642566   3.813   1.933   1.816  0.4334  1.9435 -0.9059
   76MOL   H41742567   3.915   1.779   1.961  2.1640 -0.2329 -0.0892
   76MOL   H41842568   3.944   2.081   2.205  0.9076  0.8581 -0.3002
   76MOL   H41942569   3.866   2.283   2.143  0.5981 -0.8004  0.3777
   76MOL   H42042570   3.600   2.498   1.747  1.1882  0.5183  1.8704
   76MOL   H42142571   3.408   2.598   1.634  1.2948 -0.5023 -0.1948
   76MOL   C42242572   3.944   1.776   2.153  0.0061 -0.3656  0.1293
   76MOL   C42342573   3.953   1.637   2.135 -0.3856 -0.1192 -0.5888
   76MOL   C42442574   3.878   1.573   2.031 -0.0892  1.3112  0.1286
   76MOL   C42542575   3.881   1.438   2.004 -0.2165  0.3372 -0.5477
   76MOL   C42642576   3.975   1.359   2.072  0.4611 -1.1414 -0.2911
   76MOL   C42742577   4.000   1.221   2.028 -0.5766 -0.1474 -0.5310
   76MOL   N42842578   3.891   1.147   1.988 -0.1681  0.2232 -0.0153
   76MOL   C42942579   3.900   1.024   1.912  0.2668 -0.4330 -0.0264
   76MOL   C43042580   3.989   0.915   1.932 -0.4852 -0.2374 -0.0051
   76MOL   C43142581   4.001   0.810   1.848 -0.1037 -0.0596  0.0036
   76MOL   C43242582   3.909   0.793   1.741  0.6510 -0.1891  0.1281
   76MOL   N43342583   3.909   0.690   1.646 -0.8524 -0.3227  0.1271
   76MOL   C43442584   3.817   0.897   1.715 -0.6451 -0.4731 -0.1678
   76MOL   C43542585   3.811   1.006   1.803 -0.2580  0.3928  0.2568
   76MOL   O43642586   4.113   1.175   2.032 -0.0986  0.2373  0.1773
   76MOL   C43742587   4.048   1.421   2.179 -0.2252  0.3627  0.2625
   76MOL   C43842588   4.040   1.560   2.214 -0.0567  0.0651  0.7489
   76MOL   O43942589   3.966   1.833   2.266 -0.2877 -0.1139 -0.0776
   76MOL   H44042590   3.815   1.632   1.965  2.6781  1.8213 -2.1768
   76MOL   H44142591   3.824   1.403   1.919  0.2830 -3.6276  0.6501
   76MOL   H44242592   3.801   1.193   1.986  0.4252  1.3669 -0.8061
   76MOL   H44342593   4.059   0.917   2.015 -0.8553 -1.6777  0.3416
   76MOL   H44442594   4.079   0.739   1.870 -0.4332 -0.9061 -1.4817
   76MOL   H44542595   3.847   0.698   1.567  1.0989 -0.8577 -1.5096
   76MOL   H44642596   3.757   0.900   1.626 -0.5957 -0.5250 -0.2028
   76MOL   H44742597   3.733   1.077   1.781 -1.1458 -0.1837  1.5405
   76MOL   H44842598   4.124   1.358   2.222  0.6696  0.3689 -1.2616
   76MOL   H44942599   4.102   1.602   2.292  1.7666  0.5101 -0.9125
   76MOL   C45042600   3.987   0.582   1.639 -0.0959  0.6817 -0.0016
   76MOL   C45142601   3.954   0.506   1.514 -0.7456 -0.3876 -0.8914
   76MOL   C45242602   3.926   0.573   1.390 -0.1468  0.1269 -0.4545
   76MOL   C45342603   3.883   0.494   1.281 -0.1397 -0.3353 -0.1975
   76MOL   C45442604   3.875   0.353   1.289 -0.4251 -0.2678 -0.0280
   76MOL   C45542605   3.830   0.267   1.176  0.0688  0.0921 -0.3060
   76MOL   N45642606   3.895   0.156   1.148  0.6666 -0.0625 -0.1394
   76MOL   C45742607   3.872   0.068   1.042 -0.1956  0.2676  0.9820
   76MOL   C45842608   3.853   8.075   1.077  0.5341  0.0775  0.3216
   76MOL   C45942609   3.838   7.980   0.978 -0.1210 -0.2282  0.0637
   76MOL   C46042610   3.839   8.021   0.845 -0.6905 -0.3661  0.1457
   76MOL   N46142611   3.830   7.928   0.742 -0.2609 -0.0390  0.8867
   76MOL   C46242612   3.855   0.009   0.804 -0.4644 -0.1753 -0.2134
   76MOL   C46342613   3.872   0.104   0.907 -0.1654  0.3076  0.2097
   76MOL   O46442614   3.743   0.310   1.098  0.0113  0.2249  0.4230
   76MOL   C46542615   3.910   0.294   1.413  0.3148 -0.1520 -0.1987
   76MOL   C46642616   3.950   0.370   1.526  0.4371 -0.1810  0.8707
   76MOL   O46742617   4.067   0.536   1.726 -0.3975  0.5644  0.6623
   76MOL   H46842618   3.934   0.680   1.386 -1.0280  0.1760 -1.0607
   76MOL   H46942619   3.871   0.538   1.183 -0.3116 -2.1429 -1.0133
   76MOL   H47042620   3.967   0.129   1.213  0.8017  1.6666  0.4462
   76MOL   H47142621   3.849   8.047   1.181  1.9859  1.6093  0.8129
   76MOL   H47242622   3.826   7.875   1.001  1.7197 -0.4077  0.3023
   76MOL   H47342623   3.766   7.958   0.670  0.0641 -1.1074  0.1330
   76MOL   H47442624   3.857   0.033   0.699 -0.5088 -1.4412 -0.5058
   76MOL   H47542625   3.885   0.204   0.870 -1.6361  1.2879  2.2907
   76MOL   H47642626   3.918   0.186   1.421 -1.3471 -0.1744  1.6369
   76MOL   H47742627   3.973   0.327   1.622  2.0080 -0.1898  0.5084
   76MOL   C47842628   3.855   7.795   0.729 -0.2891  0.4652  0.6569
   76MOL   C47942629   3.808   7.732   0.602 -0.1856  1.2762  0.1966
   76MOL   C48042630   3.675   7.741   0.564 -0.0899  0.2284 -0.0920
   76MOL   C48142631   3.632   7.685   0.448 -0.7256  0.2800  0.2109
   76MOL   C48242632   3.720   7.630   0.358 -0.3053 -0.1207 -0.3706
   76MOL   C48342633   3.676   7.588   0.221  0.0265  0.4322 -0.4459
   76MOL   N48442634   3.660   7.692   0.133  0.2547  0.9976 -0.5406
   76MOL   C48542635   3.643   7.826   0.163  0.2180  0.6578  0.0711
   76MOL   C48642636   3.742   7.904   0.222  0.6814 -0.3621  0.3039
   76MOL   C48742637   3.713   8.021   0.301 -0.1157 -0.5194  0.2128
   76MOL   C48842638   3.580   8.063   0.309 -0.2774  0.7551 -0.7716
   76MOL   N48942639   3.541   0.018   0.406 -0.3244  0.4344 -0.0711
   76MOL   C49042640   3.479   7.997   0.233 -0.1491 -0.5708 -0.6228
   76MOL   C49142641   3.509   7.881   0.159  0.2978  0.1797  0.6321
   76MOL   O49242642   3.648   7.471   0.188 -0.0116  0.1947 -0.4796
   76MOL   C49342643   3.858   7.615   0.393  0.4185  0.0238 -0.2999
   76MOL   C49442644   3.902   7.670   0.517 -0.0799 -0.0990 -0.5398
   76MOL   O49542645   3.939   7.732   0.793 -0.0183  0.1215 -0.0014
   76MOL   H49642646   3.606   7.783   0.635 -1.0539  3.5666 -2.9215
   76MOL   H49742647   3.528   7.696   0.420 -0.5734  2.5703  0.4877
   76MOL   H49842648   3.635   7.662   0.040  0.8829  0.7202 -0.6187
   76MOL   H49942649   3.841   7.861   0.219  1.1399  0.6537  0.5119
   76MOL   H50042650   3.799   8.069   0.345  1.1454 -2.7215  0.2239
   76MOL   H50142651   3.466   0.077   0.374  0.5302  1.3796 -0.3597
   76MOL   H50242652   3.375   8.021   0.250  0.0951 -1.3346  2.1460
   76MOL   H50342653   3.425   7.831   0.112 -1.0013  2.1561  0.8041
   76MOL   H50442654   3.935   7.575   0.329  2.9715  1.6548  1.6779
   76MOL   H50542655   4.007   7.675   0.543 -0.5973  2.4275  1.2266
   76MOL   C50642656   3.592   0.029   0.525  0.6795 -0.0575  0.1205
   76MOL   C50742657   3.543   0.145   0.616  0.4900 -0.1202  0.5543
   76MOL   C50842658   3.551   0.122   0.760 -0.5121  0.5146 -0.0200
   76MOL   C50942659   3.513   0.223   0.855 -0.5136  0.6284 -0.8464
   76MOL   C51042660   3.470   0.350   0.812 -0.5862  0.0695  0.3003
   76MOL   C51142661   3.420   0.448   0.903  0.2583  0.3348  0.3772
   76MOL   N51242662   3.479   0.444   1.028  0.4730 -0.1561 -0.5496
   76MOL   C51342663   3.463   0.544   1.135 -0.6525 -0.1124  0.1619
   76MOL   C51442664   3.564   0.562   1.233 -0.0693 -0.0939  0.2195
   76MOL   C51542665   3.546   0.660   1.331  0.7102 -0.1188 -0.4998
   76MOL   C51642666   3.429   0.743   1.340  0.0543  0.3384 -0.2262
   76MOL   N51742667   3.421   0.834   1.446 -0.1723  0.3004 -0.6658
   76MOL   C51842668   3.321   0.708   1.258  0.5035  1.1089  0.0035
   76MOL   C51942669   3.342   0.614   1.152 -0.0227  0.3167 -0.4219
   76MOL   O52042670   3.332   0.523   0.866 -0.3191 -0.2015 -0.1801
   76MOL   C52142671   3.471   0.371   0.673  0.5473  0.8322  0.2581
   76MOL   C52242672   3.499   0.277   0.575  0.1339  0.8562 -0.9901
   76MOL   O52342673   3.666   8.093   0.569 -0.2214 -0.0170 -0.5611
   76MOL   H52442674   3.582   0.028   0.801  2.0683  1.3688  0.0821
   76MOL   H52542675   3.498   0.196   0.958  0.8899  1.4504 -0.4167
   76MOL   H52642676   3.563   0.391   1.045  0.5500  0.3422  0.6676
   76MOL   H52742677   3.656   0.505   1.225 -0.5117 -0.9178  0.9488
   76MOL   H52842678   3.634   0.669   1.393  0.5122 -0.4030 -0.1707
   76MOL   H52942679   3.490   0.831   1.520 -0.3444  0.1235 -0.5115
   76MOL   H53042680   3.219   0.743   1.272  0.5838  0.5930  2.0346
   76MOL   H53142681   3.260   0.590   1.086  1.6756 -0.2136 -2.3776
   76MOL   H53242682   3.438   0.465   0.633  0.5081  0.8699  0.3787
   76MOL   H53342683   3.504   0.300   0.470  1.8186 -0.5936 -1.2527
   76MOL   C53442684   3.350   0.953   1.455  0.8625  0.6569 -0.2574
   76MOL   C53542685   3.393   1.045   1.565 -0.6398 -0.0156  0.6058
   76MOL   C53642686   3.428   0.991   1.692  0.4267  0.5921  0.0401
   76MOL   C53742687   3.459   1.079   1.796 -0.1683 -0.2493 -0.8715
   76MOL   C53842688   3.479   1.214   1.781  0.5232  0.1260  0.1961
   76MOL   C53942689   3.534   1.296   1.896  0.0819 -1.3569 -0.3228
   76MOL   N54042690   3.495   1.427   1.889 -0.2302 -0.0932 -0.5797
   76MOL   C54142691   3.525   1.532   1.982 -0.5328 -0.0430 -0.3309
   76MOL   C54242692   3.538   1.513   2.122 -0.6794  0.0401 -0.6474
   76MOL   C54342693   3.580   1.616   2.214  0.0512 -0.2748 -0.5468
   76MOL   C54442694   3.592   1.746   2.163 -0.2945 -0.4480  0.1917
   76MOL   N54542695   3.625   1.852   2.249 -0.7391 -0.2216  0.1291
   76MOL   C54642696   3.562   1.772   2.028  0.4028  0.3466 -0.1129
   76MOL   C54742697   3.528   1.664   1.937  0.7168 -0.3020 -1.3544
   76MOL   O54842698   3.605   1.242   1.981  0.1911  0.1704 -0.2812
   76MOL   C54942699   3.443   1.269   1.656  0.2177  0.7743  0.0609
   76MOL   C55042700   3.396   1.185   1.554 -0.0462 -0.3105 -0.7039
   76MOL   O55142701   3.262   0.980   1.371 -0.5617 -0.7750 -0.0241
   76MOL   H55242702   3.409   0.885   1.707  0.2219  0.4630 -1.0956
   76MOL   H55342703   3.485   1.027   1.888 -1.4414  1.8853  0.7394
   76MOL   H55442704   3.459   1.461   1.801  2.0740  0.3299 -1.4071
   76MOL   H55542705   3.525   1.410   2.153 -0.3982  0.6546  1.5900
   76MOL   H55642706   3.589   1.601   2.321  0.2011 -0.3736 -0.5737
   76MOL   H55742707   3.696   1.839   2.320 -0.6383 -0.5990 -0.0379
   76MOL   H55842708   3.561   1.873   1.988  0.6508  0.8081  1.0226
   76MOL   H55942709   3.513   1.677   1.831  1.8537  0.4500 -1.4294
   76MOL   H56042710   3.443   1.374   1.630  0.9770  0.1692 -2.5171
   76MOL   H56142711   3.355   1.227   1.463  0.6539 -0.8466 -1.2810
   76MOL   H56242712   3.658   1.937   2.206 -0.0394 -0.0928  0.8928
   77MOL     C142713   0.663   5.557   4.794 -0.3174  0.1913 -0.2341
   77MOL     C242714   0.718   5.592   4.662 -0.2631  0.9678  0.1098
   77MOL     C342715   0.655   5.698   4.591 -0.4677  0.0597  0.1575
   77MOL     C442716   0.703   5.734   4.461 -0.0145 -0.0191  0.7167
   77MOL     C542717   0.814   5.668   4.407 -0.2709 -0.1808  0.0637
   77MOL     C642718   0.871   5.711   4.278  0.7881  0.0910 -0.2615
   77MOL     N742719   0.788   5.751   4.183  0.0777 -0.1975  0.2751
   77MOL     C842720   0.811   5.804   4.051 -0.6035 -0.1553 -0.4785
   77MOL     C942721   0.936   5.826   4.004 -0.0652  0.9341 -0.5032
   77MOL    C1042722   0.952   5.902   3.883 -0.4954 -0.1158  0.2437
   77MOL    C1142723   0.842   5.952   3.813  0.3962 -0.2524 -0.0652
   77MOL    N1242724   0.854   6.043   3.701 -0.0667 -0.2116  1.2094
   77MOL    C1342725   0.711   5.917   3.850  0.2038  0.4046 -0.6304
   77MOL    C1442726   0.697   5.843   3.973  0.0618 -0.2278 -0.5107
   77MOL    O1542727   0.992   5.695   4.263 -0.8587 -0.0256 -0.3926
   77MOL    C1642728   0.875   5.560   4.475 -0.3251 -0.4447 -0.4327
   77MOL    C1742729   0.835   5.521   4.605 -0.4764 -0.4488 -0.0684
   77MOL    O1842730   0.575   5.616   4.855  0.1734 -0.6628 -0.4448
   77MOL    H1942731   0.573   5.750   4.639  0.6064 -2.6803  5.2512
   77MOL    H2042732   0.652   5.807   4.400  2.5774 -1.2961 -3.1065
   77MOL    H2142733   0.694   5.754   4.220  0.1860 -1.5543  0.6890
   77MOL    H2242734   1.028   5.798   4.051  0.4420 -3.3069 -3.6936
   77MOL    H2342735   1.045   5.932   3.837 -0.2259 -0.0767  0.8050
   77MOL    H2442736   0.923   6.023   3.630 -0.4390 -0.8886  1.0365
   77MOL    H2542737   0.631   5.959   3.791 -0.0091 -0.3672 -0.9015
   77MOL    H2642738   0.598   5.833   4.015 -0.4070 -0.3521 -1.6456
   77MOL    H2742739   0.950   5.506   4.419 -0.0719  1.7525 -2.2961
   77MOL    H2842740   0.876   5.429   4.643 -2.2182 -1.6216 -0.9345
   77MOL    H2942741   0.690   5.458   4.830 -0.3990  0.9000  1.8414
   77MOL    C3042742   0.800   6.163   3.697 -0.0476 -0.3713 -0.6552
   77MOL    C3142743   0.849   6.248   3.582  0.1457  0.5399 -0.2067
   77MOL    C3242744   0.790   6.373   3.558  0.2491  0.3207 -0.1387
   77MOL    C3342745   0.832   6.461   3.460  0.0034  0.0875  0.3211
   77MOL    C3442746   0.932   6.421   3.371 -0.0056  0.5604 -0.1315
   77MOL    C3542747   0.969   6.508   3.255  0.0243  0.0880  0.4344
   77MOL    N3642748   1.001   6.637   3.277 -0.4723  0.2396 -0.2824
   77MOL    C3742749   1.047   6.745   3.199 -0.5762 -0.4648  1.0497
   77MOL    C3842750   1.050   6.874   3.254  0.1687  0.7065  0.4505
   77MOL    C3942751   1.093   6.981   3.173  0.0012  1.1207 -0.0367
   77MOL    C4042752   1.127   6.965   3.038 -0.5363 -0.1414  0.0203
   77MOL    N4142753   1.157   7.071   2.950  0.1801  0.2632  0.0421
   77MOL    C4242754   1.126   6.834   2.987 -0.6098 -0.2697  0.7358
   77MOL    C4342755   1.084   6.720   3.067  0.0381  0.4421  0.3598
   77MOL    O4442756   0.971   6.464   3.141  0.1858  0.5592  0.1951
   77MOL    C4542757   0.996   6.297   3.390  0.2391  0.0125 -0.3524
   77MOL    C4642758   0.954   6.206   3.494  0.1956  0.4923 -0.4915
   77MOL    O4742759   0.716   6.199   3.784 -0.3097 -0.4317 -0.1151
   77MOL    H4842760   0.706   6.401   3.620 -0.2364  1.4785 -1.2911
   77MOL    H4942761   0.789   6.559   3.444  0.3643  0.1343 -0.4066
   77MOL    H5042762   0.995   6.663   3.374 -0.4429 -2.2287  0.4179
   77MOL    H5142763   1.042   6.891   3.360  1.6118 -0.6248  0.7903
   77MOL    H5242764   1.101   7.079   3.219  1.5978  1.6875 -1.4763
   77MOL    H5342765   1.122   7.066   2.855 -0.6312  2.3710  0.1898
   77MOL    H5442766   1.138   6.805   2.884 -0.0321  0.3528  0.6256
   77MOL    H5542767   1.091   6.620   3.027 -5.5405 -0.3734  1.0093
   77MOL    H5642768   1.072   6.266   3.320  2.0964  0.9628  1.1843
   77MOL    H5742769   1.004   6.110   3.492  2.8844  1.8124  0.1747
   77MOL    C5842770   1.237   7.176   2.972 -0.7732 -0.1721  0.5635
   77MOL    C5942771   1.233   7.271   2.850 -0.6293 -0.1012 -0.4955
   77MOL    C6042772   1.181   7.232   2.723 -0.1501 -0.2303 -0.7430
   77MOL    C6142773   1.176   7.327   2.616 -0.2597  0.3762 -0.2491
   77MOL    C6242774   1.239   7.454   2.638 -0.6844  0.1340 -0.3385
   77MOL    C6342775   1.242   7.552   2.526 -0.4956 -0.2529  0.2060
   77MOL    N6442776   1.347   7.639   2.518 -0.5145  0.1848  0.1593
   77MOL    C6542777   1.371   7.731   2.410 -0.0503  0.1079 -0.2754
   77MOL    C6642778   1.269   7.798   2.338  0.3915 -0.7581 -0.7013
   77MOL    C6742779   1.306   7.890   2.239 -0.5602  0.3756  0.3062
   77MOL    C6842780   1.443   7.915   2.208 -0.7533 -0.3125 -0.9892
   77MOL    N6942781   1.477   7.995   2.097 -0.7070 -0.4111  0.3390
   77MOL    C7042782   1.540   7.847   2.287  1.2435 -0.6568  0.6737
   77MOL    C7142783   1.507   7.763   2.389 -0.2948 -0.3350 -0.2610
   77MOL    O7242784   1.155   7.543   2.440  0.5771 -0.4336 -0.8843
   77MOL    C7342785   1.297   7.489   2.763  0.3273  0.4008 -0.4208
   77MOL    C7442786   1.287   7.403   2.874  0.1746 -0.5707 -0.1308
   77MOL    O7542787   1.300   7.205   3.077 -0.4064 -0.2712  0.1852
   77MOL    H7642788   1.142   7.134   2.699 -0.3936 -0.0404 -1.1282
   77MOL    H7742789   1.134   7.298   2.521  2.5752 -0.4770 -1.2929
   77MOL    H7842790   1.424   7.608   2.575 -1.3183  0.1763  1.2394
   77MOL    H7942791   1.169   7.764   2.361  0.5114  0.0834  1.0997
   77MOL    H8042792   1.233   7.923   2.167 -0.1513  1.5992  0.4519
   77MOL    H8142793   1.396   8.038   2.055 -0.5078 -1.5689 -1.2490
   77MOL    H8242794   1.645   7.871   2.282  1.3521 -0.7351  2.1801
   77MOL    H8342795   1.590   7.731   2.451 -1.6833  0.9663  2.3399
   77MOL    H8442796   1.342   7.587   2.765 -0.5358  0.8831 -2.8759
   77MOL    H8542797   1.340   7.432   2.963  2.0066 -0.9314 -1.0873
   77MOL    C8642798   1.584   8.003   2.012  0.6839 -0.0823  0.0363
   77MOL    C8742799   1.705   7.919   2.036 -0.3233 -0.1649  0.2176
   77MOL    C8842800   1.704   7.777   2.042 -0.5176 -0.3579  0.1880
   77MOL    C8942801   1.826   7.712   2.075  0.3345  0.3148  0.8902
   77MOL    C9042802   1.942   7.783   2.094 -0.2094 -0.3634 -0.5172
   77MOL    C9142803   2.077   7.720   2.111 -0.7294 -0.3161  0.3336
   77MOL    N9242804   2.085   7.639   2.220 -0.1743  0.1445 -0.5088
   77MOL    C9342805   2.200   7.625   2.297 -0.3306 -0.1508 -0.1071
   77MOL    C9442806   2.324   7.595   2.243  0.3165 -0.1543  0.3247
   77MOL    C9542807   2.441   7.597   2.327  0.9603  0.5775 -0.2751
   77MOL    C9642808   2.434   7.622   2.463  0.0751  0.1363 -0.0769
   77MOL    N9742809   2.544   7.630   2.553 -0.5578 -0.4841  0.9141
   77MOL    C9842810   2.307   7.642   2.521  0.9864  0.4643 -0.2605
   77MOL    C9942811   2.190   7.648   2.435  0.3148 -0.0794  0.6238
   77MOL   O10042812   2.174   7.741   2.039  0.7749 -0.0070  0.3415
   77MOL   C10142813   1.942   7.925   2.075  0.6926 -0.1817  0.5347
   77MOL   C10242814   1.821   7.998   2.057 -0.0133  0.4866  0.2018
   77MOL   O10342815   1.583   8.069   1.910 -0.5997  0.0943  0.0186
   77MOL   H10442816   1.612   7.721   2.040 -0.0396 -1.2848  2.5038
   77MOL   H10542817   1.825   7.605   2.091  1.5299  0.2428  0.5411
   77MOL   H10642818   1.997   7.631   2.271  0.8642  0.6527  1.4373
   77MOL   H10742819   2.336   7.569   2.139 -0.7283 -1.6758  0.5654
   77MOL   H10842820   2.537   7.590   2.277  0.2157  1.9116 -1.9496
   77MOL   H10942821   2.520   7.666   2.644 -0.4049  0.0118  0.7575
   77MOL   H11042822   2.303   7.682   2.621 -2.1960 -1.0588  0.2825
   77MOL   H11142823   2.094   7.675   2.476 -0.1674 -1.7762  0.6663
   77MOL   H11242824   2.039   7.972   2.067  1.6120 -1.8665  1.3916
   77MOL   H11342825   1.822   8.105   2.067  0.2859  0.3668  1.6216
   77MOL   C11442826   2.676   7.610   2.536  0.1011 -0.8646  0.9404
   77MOL   C11542827   2.753   7.653   2.649  0.1749 -0.1640 -0.2137
   77MOL   C11642828   2.817   7.557   2.730 -0.0392  0.1031  0.5682
   77MOL   C11742829   2.866   7.585   2.862 -0.2049  0.2788 -0.4455
   77MOL   C11842830   2.853   7.717   2.911 -0.1198 -0.4673  0.4981
   77MOL   C11942831   2.880   7.750   3.056  0.0178  0.6005  0.3166
   77MOL   N12042832   2.944   7.861   3.085  0.1495  0.3141  0.1198
   77MOL   C12142833   2.984   7.905   3.212 -0.4027  0.0280  0.1113
   77MOL   C12242834   3.063   7.823   3.301 -0.0471  0.6595 -0.1718
   77MOL   C12342835   3.108   7.880   3.424  0.7003  0.2601  0.1290
   77MOL   C12442836   3.077   8.013   3.463  0.0904  0.3391 -0.1385
   77MOL   N12542837   3.127   8.074   3.580  0.8441 -0.3756 -0.2803
   77MOL   C12642838   2.997   8.089   3.377 -0.0956 -0.2041 -0.4811
   77MOL   C12742839   2.954   8.032   3.254 -0.1876  0.7296 -0.3956
   77MOL   O12842840   2.837   7.676   3.140 -0.5693 -0.4133 -0.3541
   77MOL   C12942841   2.790   7.817   2.828  0.3777  0.5841 -0.3167
   77MOL   C13042842   2.746   7.786   2.698 -0.3930 -0.4686  0.4213
   77MOL   O13142843   2.728   7.556   2.439  0.0100 -0.5032  0.3869
   77MOL   H13242844   2.829   7.461   2.682 -1.5177 -0.2567  0.8942
   77MOL   H13342845   2.910   7.502   2.915  1.6546  0.9437 -0.9255
   77MOL   H13442846   2.958   7.918   3.003 -3.5036 -0.9712 -1.4763
   77MOL   H13542847   3.082   7.719   3.277 -1.1097  0.3629  0.1931
   77MOL   H13642848   3.158   7.817   3.496  0.2084  1.0362  1.1609
   77MOL   H13742849   3.224   8.055   3.602  1.1098  0.5067 -0.6810
   77MOL   H13842850   2.967   0.043   3.403 -0.1474 -0.6751  1.3716
   77MOL   H13942851   2.892   8.088   3.186 -2.6385  1.0641  2.0287
   77MOL   H14042852   2.773   7.915   2.871  0.8240  0.5834 -0.1414
   77MOL   H14142853   2.693   7.852   2.631  0.1794  1.0394  1.4098
   77MOL   C14242854   3.062   0.004   3.668 -0.5074  0.0716 -0.0696
   77MOL   C14342855   3.148   0.063   3.780 -0.8162  0.0813  0.4227
   77MOL   C14442856   3.079   0.124   3.886  0.4825 -0.5095 -0.2341
   77MOL   C14542857   3.148   0.187   3.993  0.6356 -0.7454  0.2056
   77MOL   C14642858   3.291   0.170   3.995 -0.3705  0.3090 -0.1065
   77MOL   C14742859   3.371   0.217   4.109 -0.0908 -0.2491 -0.5353
   77MOL   N14842860   3.311   0.204   4.227  0.3057 -0.4615  0.4572
   77MOL   C14942861   3.364   0.218   4.355 -0.4286  0.0592 -0.0213
   77MOL   C15042862   3.464   0.312   4.395  0.1936  0.3107  0.3594
   77MOL   C15142863   3.506   0.313   4.528  0.1873  0.2086 -0.4774
   77MOL   C15242864   3.461   0.220   4.620 -0.4836  0.0722 -1.2892
   77MOL   N15342865   3.514   0.219   4.748 -0.3748 -0.3578 -0.1023
   77MOL   C15442866   3.358   0.133   4.582  0.4365  0.4367  0.5751
   77MOL   C15542867   3.314   0.129   4.447  0.2853  0.5555  0.0796
   77MOL   O15642868   3.486   0.267   4.094 -0.9837 -0.7103 -0.3449
   77MOL   C15742869   3.357   0.123   3.877  0.4426 -0.2617 -0.1052
   77MOL   C15842870   3.283   0.064   3.773  0.0084  0.7066 -0.2283
   77MOL   O15942871   2.940   0.026   3.664 -0.0089 -0.4911  0.1934
   77MOL   H16042872   2.972   0.127   3.875  0.5949  2.5978 -1.0096
   77MOL   H16142873   3.105   0.244   4.074 -1.4615  0.9652 -2.0704
   77MOL   H16242874   3.217   0.168   4.224  0.0841  0.1687 -0.3151
   77MOL   H16342875   3.504   0.380   4.322 -0.8977  0.7474  0.1693
   77MOL   H16442876   3.585   0.383   4.554  1.0167 -0.6544 -0.6361
   77MOL   H16542877   3.614   0.204   4.747 -0.2710  0.3048 -0.8866
   77MOL   H16642878   3.310   0.061   4.647 -1.3697  0.7048 -0.4301
   77MOL   H16742879   3.233   0.059   4.431  1.0367  0.3475 -3.2319
   77MOL   H16842880   3.465   0.124   3.872  0.4071 -1.3244 -1.3757
   77MOL   H16942881   3.335   0.025   3.687  0.3511  0.8581 -0.0898
   77MOL   C17042882   3.449   0.248   4.861 -0.4222  0.9459  0.0991
   77MOL   C17142883   3.530   0.266   4.990  0.5283  0.4203  0.0913
   77MOL   C17242884   3.651   0.343   4.992  0.8247  0.0695  0.6586
   77MOL   C17342885   3.711   0.368   5.112 -0.1665 -0.5957  0.6195
   77MOL   C17442886   3.661   0.319   5.238 -0.2077 -0.6510  0.5515
   77MOL   C17542887   3.720   0.363   5.370  0.2664 -0.0589  0.3217
   77MOL   N17642888   3.773   0.485   5.373 -0.0910  0.0875 -0.2895
   77MOL   C17742889   3.808   0.566   5.497 -0.1795  0.3233 -0.1323
   77MOL   C17842890   3.941   0.575   5.545  0.6477  0.6842  0.3992
   77MOL   C17942891   3.975   0.658   5.652 -0.3254  0.0096  0.0685
   77MOL   C18042892   3.881   0.740   5.715 -0.1384  0.3629  0.2991
   77MOL   N18142893   3.922   0.834   5.811 -0.4959 -0.6952 -0.0062
   77MOL   C18242894   3.744   0.725   5.673 -0.7116  0.2032 -0.7007
   77MOL   C18342895   3.712   0.638   5.565  0.1893  0.3314  0.1838
   77MOL   O18442896   3.731   0.279   5.466 -0.4544 -0.1190 -0.4931
   77MOL   C18542897   3.554   0.230   5.239 -0.6083  0.1113 -0.1368
   77MOL   C18642898   3.479   0.212   5.119 -0.1878 -0.3904 -0.1962
   77MOL   O18742899   3.327   0.266   4.871 -0.5354 -0.2895  0.0858
   77MOL   H18842900   3.682   0.390   4.900 -1.4623  0.6650  0.1490
   77MOL   H18942901   3.794   0.437   5.122 -0.5621  0.0325 -0.3610
   77MOL   H19042902   3.775   0.533   5.284 -0.5649  1.2130  0.2997
   77MOL   H19142903   4.015   0.510   5.502  0.3573 -0.3167  1.3991
   77MOL   H19242904   4.077   0.662   5.688  0.6695  2.2609 -2.7667
   77MOL   H19342905   3.985   0.907   5.782 -0.9420  0.1666  1.1304
   77MOL   H19442906   3.669   0.784   5.723 -2.0633 -0.3228 -2.0722
   77MOL   H19542907   3.608   0.630   5.535 -0.0669 -2.0961  1.5601
   77MOL   H19642908   3.518   0.185   5.330 -1.5794 -0.5621 -0.8492
   77MOL   H19742909   3.389   0.153   5.121 -0.2213 -0.3804 -1.2142
   77MOL   C19842910   3.841   0.865   5.919  0.7737 -0.2072 -0.0235
   77MOL   C19942911   3.831   1.011   5.946  0.0748 -0.2698  0.3123
   77MOL   C20042912   3.781   1.048   6.074 -0.2129 -0.0814 -0.4013
   77MOL   C20142913   3.774   1.186   6.108 -0.7503  0.1135  0.0996
   77MOL   C20242914   3.817   1.285   6.015  0.5480 -0.3511  0.4496
   77MOL   C20342915   3.824   1.428   6.056 -0.6185 -0.6196  0.0037
   77MOL   N20442916   3.797   1.509   5.954 -0.3643  0.4177 -0.0616
   77MOL   C20542917   3.856   1.634   5.928  0.2788  0.0551  0.3590
   77MOL   C20642918   3.856   1.664   5.795 -0.0009  0.2843  0.5134
   77MOL   C20742919   3.921   1.781   5.750 -0.3583 -0.5052  0.1103
   77MOL   C20842920   3.982   1.875   5.837 -0.6355  0.1122  0.6027
   77MOL   N20942921   4.044   1.988   5.778  0.3140  0.2914  0.1822
   77MOL   C21042922   3.967   1.852   5.977  0.5889 -0.4290 -0.0707
   77MOL   C21142923   3.917   1.724   6.024  0.4323  0.1748 -0.3596
   77MOL   O21242924   3.856   1.464   6.172 -0.0202  0.1507  0.1074
   77MOL   C21342925   3.866   1.246   5.887 -0.3030  0.1125  0.4325
   77MOL   C21442926   3.865   1.110   5.852 -0.5510  0.0619 -0.1994
   77MOL   O21542927   3.790   0.775   5.995  0.1035  0.2119 -0.1314
   77MOL   H21642928   3.757   0.974   6.148 -0.9416  1.9066  1.3947
   77MOL   H21742929   3.755   1.209   6.212  0.0870 -2.0972  0.7661
   77MOL   H21842930   3.751   1.453   5.884  2.4558 -1.7042 -0.3003
   77MOL   H21942931   3.800   1.600   5.727 -0.7929  0.5256  0.9377
   77MOL   H22042932   3.920   1.803   5.644 -2.9989  1.4439  0.4752
   77MOL   H22142933   4.021   2.010   5.682  1.1906  1.8432  0.3190
   77MOL   H22242934   4.015   1.917   6.049 -1.0736  1.1008 -0.2885
   77MOL   H22342935   3.907   1.699   6.129 -1.1170 -0.1655 -0.5824
   77MOL   H22442936   3.916   1.310   5.816  2.0326 -0.5664  1.4041
   77MOL   H22542937   3.893   1.083   5.752 -0.9136 -1.0084 -0.0135
   77MOL   C22642938   4.154   2.057   5.807 -0.5324  0.4906  0.2206
   77MOL   C22742939   4.181   2.150   5.697  0.0058 -1.1000  1.0513
   77MOL   C22842940   4.168   2.113   5.564 -0.4016  0.3245  0.0402
   77MOL   C22942941   4.165   2.208   5.455 -0.4779 -0.5136 -0.4771
   77MOL   C23042942   4.175   2.347   5.481  0.2404 -0.2769  0.3193
   77MOL   C23142943   4.162   2.450   5.372  0.0279  0.2082  0.3399
   77MOL   N23242944   4.145   2.398   5.248 -0.4345 -0.3072 -0.6290
   77MOL   C23342945   4.136   2.457   5.124 -0.0643 -0.3017 -0.2267
   77MOL   C23442946   4.115   2.372   5.016 -0.5582  0.2696 -0.6127
   77MOL   C23542947   4.101   2.427   4.886  0.3218 -0.1269 -0.1487
   77MOL   C23642948   4.118   2.566   4.867 -0.6879 -0.1288 -0.6909
   77MOL   N23742949   4.100   2.622   4.732  0.0416 -0.4823  0.0181
   77MOL   C23842950   4.142   2.653   4.980 -0.1451  0.2665  0.8821
   77MOL   C23942951   4.141   2.597   5.105 -0.0483  0.6665  0.4694
   77MOL   O24042952   4.179   2.569   5.394 -0.2211 -0.2859 -0.2568
   77MOL   C24142953   4.196   2.384   5.610 -0.7132  0.0445  0.7460
   77MOL   C24242954   4.196   2.288   5.716 -0.5139  0.4564 -0.3312
   77MOL   O24342955   4.220   2.053   5.905  0.7002  0.1563  0.0521
   77MOL   H24442956   4.146   2.010   5.538 -0.9890  0.9880 -2.2086
   77MOL   H24542957   4.159   2.172   5.353  3.0099 -1.3969 -0.4360
   77MOL   H24642958   4.138   2.297   5.250  0.8557 -0.4033 -0.0539
   77MOL   H24742959   4.108   2.265   5.030  0.1741  0.3548  0.5168
   77MOL   H24842960   4.086   2.352   4.810  3.1251 -1.4950  0.5920
   77MOL   H24942961   4.090   2.723   4.736  1.4556 -0.3403  0.2399
   77MOL   H25042962   4.142   2.760   4.966 -2.2112 -0.2179 -3.6423
   77MOL   H25142963   4.147   2.670   5.184  1.6277  1.7358 -0.6311
   77MOL   H25242964   4.207   2.491   5.624 -2.9162  0.4780 -0.7262
   77MOL   H25342965   4.211   2.318   5.818  2.0385 -2.4251  0.2021
   77MOL   C25442966   4.098   2.563   4.612  0.3783 -0.3280  0.0639
   77MOL   C25542967   4.066   2.659   4.499 -0.4070 -0.0189  0.0173
   77MOL   C25642968   3.991   2.782   4.517  0.6219  0.7067 -0.5221
   77MOL   C25742969   3.948   2.860   4.405  0.6994  0.2557  0.4539
   77MOL   C25842970   3.985   2.814   4.271  0.1416 -0.7362 -0.5733
   77MOL   C25942971   3.942   2.893   4.151 -0.1294  0.0700  0.4582
   77MOL   N26042972   3.975   2.837   4.031  0.0830  0.0242 -0.1710
   77MOL   C26142973   3.947   2.888   3.902 -0.1247 -0.0513  0.0208
   77MOL   C26242974   3.976   2.800   3.789 -0.3675  0.0992  0.9859
   77MOL   C26342975   3.936   2.840   3.659 -0.1694  0.2215  1.0168
   77MOL   C26442976   3.889   2.971   3.630  0.0316 -0.0492  0.2806
   77MOL   N26542977   3.847   3.008   3.497  0.0259 -0.6583 -0.7930
   77MOL   C26642978   3.861   3.055   3.741  0.5426 -0.5435 -0.1135
   77MOL   C26742979   3.893   3.012   3.873 -0.4545 -0.1777 -0.7981
   77MOL   O26842980   3.887   3.002   4.165  0.3867 -0.1878  0.1255
   77MOL   C26942981   4.056   2.697   4.257  0.4068 -0.6510 -0.0910
   77MOL   C27042982   4.095   2.625   4.369  0.5572  0.0653  0.8883
   77MOL   O27142983   4.107   2.446   4.588 -0.1500  0.0115 -0.3932
   77MOL   H27242984   3.971   2.821   4.616  1.6670  0.6372 -0.2805
   77MOL   H27342985   3.876   2.938   4.419  3.1743  3.0346 -1.5329
   77MOL   H27442986   4.026   2.751   4.036  1.0143  0.5156 -1.1154
   77MOL   H27542987   4.028   2.707   3.800  0.6941  0.5094 -0.4654
   77MOL   H27642988   3.968   2.767   3.586  1.1355  1.2420  0.5375
   77MOL   H27742989   3.835   2.934   3.429  1.7013 -0.3456 -1.4587
   77MOL   H27842990   3.834   3.159   3.731  3.9945  0.3274 -1.1455
   77MOL   H27942991   3.887   3.088   3.950 -0.0515  0.3229 -1.2562
   77MOL   H28042992   4.088   2.654   4.163  1.5714  0.1196 -0.0641
   77MOL   H28142993   4.144   2.529   4.357  0.1400 -0.2444  1.5887
   77MOL   C28242994   3.821   3.122   3.441 -0.1732  0.3683 -0.2732
   77MOL   C28342995   3.790   3.107   3.296 -0.6085  0.2485 -0.1131
   77MOL   C28442996   3.861   3.187   3.195  0.0547  0.0832  0.0709
   77MOL   C28542997   3.843   3.159   3.057  0.1900 -0.1010  0.4590
   77MOL   C28642998   3.765   3.046   3.015 -0.0670  0.1861 -0.0670
   77MOL   C28742999   3.758   2.995   2.874  0.3144 -0.1541  0.0097
   77MOL   N28843000   3.800   2.869   2.856 -0.1519 -0.2439  0.4132
   77MOL   C28943001   3.855   2.787   2.953 -0.2979 -0.2810  0.0163
   77MOL   C29043002   3.791   2.666   2.976  0.4732  0.1734  0.0629
   77MOL   C29143003   3.833   2.582   3.084  0.0980 -0.1941  0.2353
   77MOL   C29243004   3.954   2.616   3.153  0.1208  0.1730  0.2487
   77MOL   N29343005   3.989   2.553   3.277 -0.4799 -0.1849  0.0916
   77MOL   C29443006   4.016   2.738   3.126  0.2032  0.3733  0.2858
   77MOL   C29543007   3.974   2.818   3.023 -0.0652  0.7313 -0.6076
   77MOL   O29643008   3.717   3.070   2.787 -0.1876 -0.0429 -0.4025
   77MOL   C29743009   3.688   2.982   3.111 -0.1418 -1.1990 -0.5876
   77MOL   C29843010   3.708   3.003   3.249 -0.4523  0.3468  0.8998
   77MOL   O29943011   3.833   3.234   3.492  0.1635 -0.5011 -0.3029
   77MOL   H30043012   3.931   3.263   3.228 -1.3950  1.7276 -0.5753
   77MOL   H30143013   3.904   3.211   2.985  0.1276 -1.2098 -0.4022
   77MOL   H30243014   3.777   2.833   2.764 -1.3197  1.0755  0.1663
   77MOL   H30343015   3.701   2.644   2.922  0.8988  3.4168 -2.0796
   77MOL   H30443016   3.776   2.492   3.101 -0.7188  0.0301 -1.2063
   77MOL   H30543017   4.041   2.612   3.340 -1.2516  0.2437  0.3429
   77MOL   H30643018   4.102   2.777   3.179 -0.2299  3.1972 -0.9790
   77MOL   H30743019   4.028   2.911   3.007 -1.5183  1.4623 -1.4346
   77MOL   H30843020   3.611   2.914   3.081  0.1766 -1.3037 -1.1826
   77MOL   H30943021   3.649   2.950   3.323 -0.6815  0.3752  0.7357
   77MOL   C31043022   3.958   2.433   3.324  0.3488  0.3394  0.5561
   77MOL   C31143023   3.981   2.425   3.466 -0.2117  0.1853  0.2812
   77MOL   C31243024   4.109   2.392   3.515 -0.5184  0.4936  0.5375
   77MOL   C31343025   4.141   2.400   3.652 -0.0486 -0.5784 -0.1736
   77MOL   C31443026   4.039   2.420   3.745  0.2253 -0.1463 -0.6040
   77MOL   C31543027   4.055   2.426   3.896  0.0426 -0.2996 -1.0052
   77MOL   N31643028   4.167   2.364   3.945  0.0379 -0.2045 -0.4305
   77MOL   C31743029   4.204   2.328   4.077  0.4150 -0.1681  0.1908
   77MOL   C31843030   4.115   2.333   4.186 -0.1442  0.2272  0.0376
   77MOL   C31943031   4.155   2.284   4.309 -0.1376 -0.1550 -0.2115
   77MOL   C32043032   4.280   2.228   4.335  0.5367  0.7544  0.5657
   77MOL   N32143033   4.304   2.203   4.471 -0.0628  0.0940 -0.4569
   77MOL   C32243034   4.368   2.202   4.228  0.2799 -0.1901  0.1471
   77MOL   C32343035   4.331   2.263   4.101 -0.4784  0.2659 -0.2453
   77MOL   O32443036   3.975   2.488   3.965 -0.2879 -0.5891  0.7171
   77MOL   C32543037   3.911   2.449   3.698  0.6609  0.1933 -0.3984
   77MOL   C32643038   3.881   2.450   3.561 -0.4691  0.2712  0.3352
   77MOL   O32743039   3.906   2.342   3.264 -0.4347  0.0423  0.4800
   77MOL   H32843040   4.191   2.368   3.448 -0.8174 -1.5528  0.8503
   77MOL   H32943041   4.239   2.394   3.695  0.0207 -0.3037 -0.2932
   77MOL   H33043042   4.226   2.323   3.874 -2.1430 -0.2551 -2.2263
   77MOL   H33143043   4.013   2.370   4.181  0.3618  1.4200 -2.2474
   77MOL   H33243044   4.085   2.305   4.388 -0.2264 -0.7841 -0.1150
   77MOL   H33343045   4.232   2.232   4.535 -1.1275  1.3432 -2.1931
   77MOL   H33443046   4.465   2.158   4.249  0.3360  0.3322  1.0266
   77MOL   H33543047   4.410   2.267   4.027  0.8753 -0.1443  1.1749
   77MOL   H33643048   3.835   2.462   3.773  0.5121  2.0867 -0.8534
   77MOL   H33743049   3.781   2.486   3.541  0.1556  0.1823 -3.3927
   77MOL   C33843050   4.386   2.112   4.524  0.3850 -0.1288 -0.8522
   77MOL   C33943051   4.348   2.060   4.664  0.3863 -0.2261  0.0824
   77MOL   C34043052   4.451   2.007   4.744  0.1533 -0.3385  0.1156
   77MOL   C34143053   4.423   1.968   4.879  0.9727  0.7553 -0.5599
   77MOL   C34243054   4.296   1.979   4.936  0.5695 -0.2272  0.8623
   77MOL   C34343055   4.276   1.958   5.083 -0.8741  0.5793  0.0993
   77MOL   N34443056   4.307   1.833   5.120 -0.3617 -0.0941 -0.4880
   77MOL   C34543057   4.267   1.765   5.237  0.4182 -0.4615 -0.0639
   77MOL   C34643058   4.236   1.632   5.228 -1.0543  0.5336 -1.0227
   77MOL   C34743059   4.197   1.554   5.336 -1.2838 -0.2740 -0.3207
   77MOL   C34843060   4.199   1.613   5.465  0.2654  0.5641  0.0385
   77MOL   N34943061   4.171   1.543   5.582  0.4342  0.2721  0.4842
   77MOL   C35043062   4.221   1.752   5.476  0.5001  0.1073 -0.0247
   77MOL   C35143063   4.254   1.832   5.360  0.9978 -0.9829 -0.6694
   77MOL   O35243064   4.225   2.042   5.157  0.0551  0.0565 -0.0329
   77MOL   C35343065   4.200   2.034   4.852 -0.0409  0.2996 -0.0148
   77MOL   C35443066   4.221   2.068   4.718 -0.3660  0.0561 -0.0592
   77MOL   O35543067   4.493   2.077   4.477  0.5659  0.3672 -0.0419
   77MOL   H35643068   4.551   1.989   4.710  0.4866  1.1034  0.3050
   77MOL   H35743069   4.511   1.935   4.931 -0.6921  0.4511  2.1582
   77MOL   H35843070   4.342   1.773   5.047 -2.7465 -1.5632 -0.4972
   77MOL   H35943071   4.253   1.588   5.130  2.9853  2.2778 -1.2257
   77MOL   H36043072   4.171   1.452   5.312 -2.5266  0.3332 -1.5746
   77MOL   H36143073   4.152   1.592   5.669  1.1093 -2.9022  2.4961
   77MOL   H36243074   4.213   1.799   5.572  0.7180  1.1390 -0.5045
   77MOL   H36343075   4.273   1.938   5.367 -1.6383 -0.5855  1.1879
   77MOL   H36443076   4.104   2.062   4.892  0.8441  0.3480  2.1638
   77MOL   H36543077   4.138   2.102   4.658 -0.0355 -0.1242 -0.6259
   77MOL   C36643078   4.204   1.418   5.603 -0.2084  0.5491 -0.1246
   77MOL   C36743079   4.187   1.374   5.745 -1.0045 -0.0235 -0.0740
   77MOL   C36843080   4.160   1.469   5.850 -0.3973 -0.5238  0.6213
   77MOL   C36943081   4.168   1.413   5.985 -0.0452  0.1428  0.2026
   77MOL   C37043082   4.197   1.277   6.013  0.6121  0.9164 -0.0025
   77MOL   C37143083   4.201   1.222   6.153 -0.1901 -0.9004 -0.4535
   77MOL   N37243084   4.106   1.275   6.231  1.0571  0.5057 -0.1072
   77MOL   C37343085   4.043   1.203   6.338 -0.1372 -0.7735 -0.1177
   77MOL   C37443086   4.001   1.074   6.320  0.2482 -0.2640  0.0665
   77MOL   C37543087   3.940   1.005   6.424  0.2334 -0.3236  0.3859
   77MOL   C37643088   3.922   1.064   6.549 -0.0503 -0.1831 -0.3484
   77MOL   N37743089   3.863   0.988   6.654  0.2152  0.2422 -0.6231
   77MOL   C37843090   3.961   1.196   6.571 -0.7807  0.8387 -0.2208
   77MOL   C37943091   4.029   1.259   6.464  0.3319 -0.1048 -1.2387
   77MOL   O38043092   4.280   1.134   6.189 -0.6332 -0.4184 -0.0162
   77MOL   C38143093   4.214   1.191   5.905  0.5624 -0.2185  0.0365
   77MOL   C38243094   4.213   1.240   5.774 -0.2602  0.6949  0.0201
   77MOL   O38343095   4.249   1.342   5.519  0.7323  0.1530 -0.3341
   77MOL   H38443096   4.146   1.572   5.822 -0.3815 -0.9357 -0.9466
   77MOL   H38543097   4.156   1.482   6.068 -0.9290  0.3491 -0.0834
   77MOL   H38643098   4.064   1.361   6.200 -0.4258  0.2878  1.1836
   77MOL   H38743099   4.011   1.012   6.232 -0.6222 -0.1963 -0.0858
   77MOL   H38843100   3.902   0.909   6.394  0.3744 -0.2594  0.0004
   77MOL   H38943101   3.922   0.973   6.734 -1.4089 -0.1251  0.5502
   77MOL   H39043102   3.943   1.244   6.666 -0.6806 -0.7522  0.6099
   77MOL   H39143103   4.068   1.359   6.475 -1.0951  0.2018  1.5839
   77MOL   H39243104   4.244   1.089   5.923  3.6029  0.2385 -2.0548
   77MOL   H39343105   4.252   1.176   5.696  0.8442 -0.6427  1.6473
   77MOL   C39443106   3.761   0.897   6.654 -0.0268  0.2828 -0.1747
   77MOL   C39543107   3.664   0.905   6.538 -0.3981  0.5083  0.4095
   77MOL   C39643108   3.624   1.028   6.480 -0.3210  0.3178 -0.4727
   77MOL   C39743109   3.541   1.025   6.371  0.5627  0.4107  0.1581
   77MOL   C39843110   3.520   0.902   6.303 -0.5966 -0.0293  0.0258
   77MOL   C39943111   3.450   0.906   6.165  0.4721  0.2117  0.4958
   77MOL   N40043112   3.492   0.806   6.077 -0.5188  0.4490 -0.3077
   77MOL   C40143113   3.429   0.769   5.959  0.4291  0.3114 -0.3552
   77MOL   C40243114   3.465   0.646   5.903  0.1256 -0.1537  0.1205
   77MOL   C40343115   3.411   0.600   5.781  0.6103  0.7548  0.2776
   77MOL   C40443116   3.319   0.691   5.717 -0.3769  0.5507  0.4645
   77MOL   N40543117   3.253   0.643   5.597 -0.1737  0.5875 -0.0553
   77MOL   C40643118   3.286   0.815   5.772 -0.0681 -0.2488  0.4077
   77MOL   C40743119   3.345   0.860   5.889 -0.2458 -0.1367  0.1465
   77MOL   O40843120   3.374   1.005   6.137 -0.2065 -0.0258 -0.2215
   77MOL   C40943121   3.538   0.782   6.373  0.4832  0.2081  0.0642
   77MOL   C41043122   3.605   0.792   6.491 -0.3516  0.8321  0.5657
   77MOL   O41143123   3.759   0.803   6.734  0.0559  0.6448 -0.6523
   77MOL   H41243124   3.667   1.123   6.510 -2.4321  0.8799  0.8817
   77MOL   H41343125   3.522   1.124   6.332  0.6411  1.0111  1.6062
   77MOL   H41443126   3.562   0.741   6.109  0.5982  1.5185 -0.5289
   77MOL   H41543127   3.543   0.593   5.954 -0.1792 -3.1752 -2.4087
   77MOL   H41643128   3.419   0.503   5.734 -2.8419 -0.0754  1.3320
   77MOL   H41743129   3.163   0.680   5.568 -0.7328 -0.4726  0.2885
   77MOL   H41843130   3.227   0.881   5.710 -2.9657 -2.1042  1.0866
   77MOL   H41943131   3.330   0.962   5.919  1.8989  0.6484 -1.2952
   77MOL   H42043132   3.495   0.690   6.337  0.6658 -0.5023  1.5995
   77MOL   H42143133   3.623   0.700   6.545 -1.0528  0.7272  0.6371
   77MOL   C42243134   3.293   0.556   5.508  0.3956 -0.5099 -0.3977
   77MOL   C42343135   3.204   0.536   5.387 -0.4833 -0.1077 -0.0563
   77MOL   C42443136   3.229   0.423   5.307 -0.3383 -0.2528  0.3372
   77MOL   C42543137   3.152   0.399   5.195 -0.1976 -0.0054 -0.6411
   77MOL   C42643138   3.030   0.475   5.169  0.0926  0.0819  0.2775
   77MOL   C42743139   2.940   0.450   5.046 -0.0629  0.6237 -0.0972
   77MOL   N42843140   2.900   0.319   5.039 -0.0161 -0.0563 -0.7754
   77MOL   C42943141   2.799   0.260   4.961 -0.2773  0.1212 -0.5441
   77MOL   C43043142   2.804   0.125   4.942 -0.2458  0.0375  0.2436
   77MOL   C43143143   2.714   0.065   4.852 -0.0469  0.2335  0.0894
   77MOL   C43243144   2.614   0.140   4.788  0.0959 -0.0200 -0.2462
   77MOL   N43343145   2.516   0.073   4.712  0.7975 -0.3443  0.1715
   77MOL   C43443146   2.610   0.276   4.813  0.1760 -0.6027 -0.7330
   77MOL   C43543147   2.700   0.342   4.906  0.2178 -0.3699  0.5253
   77MOL   O43643148   2.927   0.534   4.962  0.3524 -0.2617 -0.3027
   77MOL   C43743149   3.000   0.588   5.245 -0.5271 -0.2779 -0.4733
   77MOL   C43843150   3.084   0.611   5.362  0.1198  0.1562 -0.1949
   77MOL   O43943151   3.399   0.496   5.517 -0.0936  0.0043  0.6731
   77MOL   H44043152   3.310   0.357   5.336  0.2843  0.2300 -0.2765
   77MOL   H44143153   3.191   0.325   5.127  0.1945  0.7146 -1.2039
   77MOL   H44243154   2.945   0.257   5.105  0.8246  2.8378  1.4620
   77MOL   H44343155   2.869   0.063   5.003  1.0471  0.5757 -0.5547
   77MOL   H44443156   2.711   8.105   4.828  0.2135  0.8060 -2.6063
   77MOL   H44543157   2.425   0.077   4.756  1.9720 -1.5546  2.8489
   77MOL   H44643158   2.537   0.341   4.766 -2.8504 -2.9348  0.5325
   77MOL   H44743159   2.695   0.450   4.916  0.3597 -0.3690  0.5750
   77MOL   H44843160   2.922   0.661   5.226 -0.1904  0.0842 -0.4597
   77MOL   H44943161   3.042   0.694   5.416 -0.0813  0.7754 -1.3020
   77MOL   C45043162   2.537   8.123   4.620  0.1102  0.1539 -0.2229
   77MOL   C45143163   2.420   8.052   4.560  0.1001 -0.2677 -0.2585
   77MOL   C45243164   2.296   8.113   4.561 -0.5537  0.4651  0.7045
   77MOL   C45343165   2.183   8.037   4.511  0.6471 -0.1823 -0.6993
   77MOL   C45443166   2.202   7.907   4.451 -0.2556  0.1512 -0.4242
   77MOL   C45543167   2.083   7.828   4.409  0.9685  0.1996 -0.1784
   77MOL   N45643168   1.970   7.896   4.393 -0.0351  0.0599  0.3420
   77MOL   C45743169   1.849   7.835   4.349 -0.2159  0.3482  0.3450
   77MOL   C45843170   1.728   7.838   4.431  0.2297 -0.4020  0.2040
   77MOL   C45943171   1.610   7.770   4.389 -0.0512  0.6685  0.5117
   77MOL   C46043172   1.611   7.696   4.270 -0.6050  0.8621 -0.0409
   77MOL   N46143173   1.492   7.626   4.238 -0.3208 -0.3375  0.2630
   77MOL   C46243174   1.723   7.702   4.184  0.6813  0.4798 -0.5607
   77MOL   C46343175   1.840   7.760   4.229 -0.2208 -0.2950 -0.7409
   77MOL   O46443176   2.092   7.707   4.412  0.2243  0.1758 -0.1931
   77MOL   C46543177   2.329   7.848   4.447 -0.1379 -0.4393 -0.3542
   77MOL   C46643178   2.445   7.924   4.493  0.0024  0.6010 -0.3062
   77MOL   O46743179   2.650   8.108   4.572  0.6301  1.0031  0.0979
   77MOL   H46843180   2.284   0.067   4.600  0.7341  0.4289  1.2163
   77MOL   H46943181   2.086   8.082   4.519  0.0777 -1.1548 -1.8682
   77MOL   H47043182   1.960   7.990   4.428  1.7532 -0.1169  1.3868
   77MOL   H47143183   1.727   7.893   4.524  2.4972 -1.0233  0.6240
   77MOL   H47243184   1.527   7.765   4.459  0.0552  1.6326  0.7116
   77MOL   H47343185   1.416   7.660   4.295  0.1540 -0.0814  0.7568
   77MOL   H47443186   1.723   7.647   4.091 -0.6960  2.0959 -1.5373
   77MOL   H47543187   1.925   7.760   4.162  0.7992  2.8765  0.4678
   77MOL   H47643188   2.351   7.751   4.407  1.8165  0.1524 -0.8001
   77MOL   H47743189   2.545   7.883   4.487 -0.1209 -0.3357  2.9236
   77MOL   C47843190   1.460   7.539   4.146 -0.5420 -0.0791  0.5069
   77MOL   C47943191   1.325   7.480   4.158 -0.0796  0.1638  0.2938
   77MOL   C48043192   1.258   7.463   4.287  0.1887 -0.4519  0.0693
   77MOL   C48143193   1.128   7.419   4.286  0.6267 -0.3465  0.0852
   77MOL   C48243194   1.062   7.391   4.168  0.1780 -1.3979  0.6338
   77MOL   C48343195   0.920   7.342   4.178 -0.0387 -0.4294  0.4843
   77MOL   N48443196   0.880   7.259   4.077  0.7710  0.0823 -0.0193
   77MOL   C48543197   0.760   7.180   4.068 -0.1010  0.3774  0.1696
   77MOL   C48643198   0.683   7.147   4.175  0.6601 -0.3357 -0.0961
   77MOL   C48743199   0.563   7.076   4.152  0.2083  0.0053 -0.0036
   77MOL   C48843200   0.522   7.037   4.021  0.6600  0.2887  0.0747
   77MOL   N48943201   0.409   6.954   3.997 -0.0137 -0.6737  0.2758
   77MOL   C49043202   0.598   7.077   3.914  0.0869 -0.0762 -0.6298
   77MOL   C49143203   0.717   7.148   3.938  0.4338 -0.1465  0.0142
   77MOL   O49243204   0.861   7.367   4.279  0.4469  0.4071  0.0971
   77MOL   C49343205   1.127   7.399   4.045 -0.0547  0.0961 -0.3593
   77MOL   C49443206   1.256   7.445   4.040  0.2397 -0.5297  0.9743
   77MOL   O49543207   1.533   7.495   4.062  0.0881 -0.0192  0.6399
   77MOL   H49643208   1.306   7.490   4.380  0.2147 -0.4596  0.0580
   77MOL   H49743209   1.081   7.417   4.383 -0.2259 -2.3416 -0.3475
   77MOL   H49843210   0.940   7.247   3.997  0.1015  0.8270 -0.6475
   77MOL   H49943211   0.721   7.155   4.276 -0.1977 -1.0432  0.2996
   77MOL   H50043212   0.499   7.051   4.236  1.7571  1.2835  1.5970
   77MOL   H50143213   0.338   6.984   3.932  0.8453 -1.7367 -1.1861
   77MOL   H50243214   0.573   7.049   3.813 -1.7602 -0.5798 -0.0576
   77MOL   H50343215   0.774   7.182   3.853 -0.1288  0.1888 -0.2310
   77MOL   H50443216   1.061   7.380   3.962 -2.1489  2.8071  0.6128
   77MOL   H50543217   1.297   7.463   3.942 -0.6804  0.3749  0.7437
   77MOL   C50643218   0.375   6.844   4.059 -0.0490  0.4803  0.2844
   77MOL   C50743219   0.475   6.768   4.142  0.1871  0.9590 -0.1253
   77MOL   C50843220   0.431   6.688   4.254  0.1701  0.1391  0.1528
   77MOL   C50943221   0.529   6.617   4.323  0.8886  0.1563  0.2764
   77MOL   C51043222   0.662   6.615   4.292  0.2618  0.0131  0.2998
   77MOL   C51143223   0.766   6.548   4.374 -0.5048 -1.3629 -0.6129
   77MOL   N51243224   0.741   6.517   4.498  0.1980  0.4348  0.3668
   77MOL   C51343225   0.838   6.482   4.594 -0.4807  0.2204  0.2467
   77MOL   C51443226   0.919   6.368   4.578 -0.4500  0.0239  0.1593
   77MOL   C51543227   1.011   6.338   4.678  0.0099 -0.4689  0.0509
   77MOL   C51643228   1.031   6.424   4.786  0.3498 -0.5287  0.0569
   77MOL   N51743229   1.140   6.411   4.876  0.8143 -0.7257  0.0763
   77MOL   C51843230   0.933   6.529   4.813 -0.5048 -0.4040 -0.0266
   77MOL   C51943231   0.838   6.559   4.711 -0.2573  0.1546  0.1089
   77MOL   O52043232   0.874   6.524   4.321 -0.1798 -0.6032  0.3191
   77MOL   C52143233   0.698   6.672   4.166  0.0708 -0.7363 -0.2591
   77MOL   C52243234   0.605   6.746   4.091  0.3294  0.7383  0.0911
   77MOL   O52343235   0.255   6.805   4.045 -0.8001 -0.0966 -0.3333
   77MOL   H52443236   0.328   6.687   4.288 -0.6511  2.1640 -2.1380
   77MOL   H52543237   0.495   6.561   4.409  1.3982 -1.2400 -0.4098
   77MOL   H52643238   0.653   6.536   4.543  0.4716  1.1289  0.6007
   77MOL   H52743239   0.912   6.301   4.494 -1.0024  0.5279 -0.2059
   77MOL   H52843240   1.075   6.253   4.659  1.2341  0.3874  0.2967
   77MOL   H52943241   1.140   6.476   4.954  1.6688  0.0860 -0.5855
   77MOL   H53043242   0.946   6.582   4.906 -1.5833  3.0060 -1.7378
   77MOL   H53143243   0.767   6.641   4.717  2.5872  2.6483  0.9632
   77MOL   H53243244   0.799   6.668   4.127  0.2139  0.6414 -0.0647
   77MOL   H53343245   0.645   6.796   4.003  0.4030 -1.2801 -1.0523
   77MOL   C53443246   1.249   6.333   4.869 -0.4169  0.0465 -0.7151
   77MOL   C53543247   1.347   6.341   4.983  0.2155 -0.2066 -1.4878
   77MOL   C53643248   1.470   6.276   4.975 -0.3630  0.2269 -0.1881
   77MOL   C53743249   1.567   6.276   5.073 -0.0476 -0.1318  0.0945
   77MOL   C53843250   1.553   6.357   5.187  0.0301 -0.0444  0.6014
   77MOL   C53943251   1.655   6.357   5.295  0.6065 -0.3185 -0.6359
   77MOL   N54043252   1.782   6.337   5.261 -0.0857  0.1745  0.1064
   77MOL   C54143253   1.893   6.344   5.349 -0.7409  0.0001  0.3086
   77MOL   C54243254   2.015   6.392   5.300  0.9567  0.2202  0.4675
   77MOL   C54343255   2.130   6.390   5.382  0.4962 -0.4574  0.1504
   77MOL   C54443256   2.128   6.340   5.508 -0.1903  0.5311  0.2345
   77MOL   N54543257   2.244   6.349   5.583 -0.5665  0.5950  0.6291
   77MOL   C54643258   2.009   6.285   5.557 -0.4389  0.1111 -0.5169
   77MOL   C54743259   1.895   6.289   5.475 -0.2505  0.8296 -0.0590
   77MOL   O54843260   1.618   6.368   5.411  0.2886 -0.0421 -0.1932
   77MOL   C54943261   1.435   6.440   5.196 -0.3146  0.2699  0.3991
   77MOL   C55043262   1.335   6.434   5.096  0.4459  0.4587 -0.3304
   77MOL   O55143263   1.276   6.256   4.776  0.3077  0.2097  0.2046
   77MOL   H55243264   1.478   6.211   4.889 -3.5132 -0.0712 -0.3013
   77MOL   H55343265   1.664   6.228   5.067  0.0142  0.2712 -2.8781
   77MOL   H55443266   1.806   6.326   5.163 -0.1705 -0.7578  0.1826
   77MOL   H55543267   2.015   6.416   5.194 -0.3067 -3.4931 -0.4729
   77MOL   H55643268   2.217   6.431   5.334 -1.9778  1.9165 -2.5523
   77MOL   H55743269   2.315   6.417   5.559 -1.6639  1.4738 -0.2166
   77MOL   H55843270   2.009   6.254   5.661  2.3385  0.8492 -0.2670
   77MOL   H55943271   1.807   6.243   5.517 -0.7783  2.1611  0.3359
   77MOL   H56043272   1.404   6.490   5.286 -0.2254  0.3510  0.3838
   77MOL   H56143273   1.249   6.498   5.103  1.2717  1.6000 -0.4449
   77MOL   H56243274   2.231   6.372   5.681  0.4151  1.4093  0.5802
   78MOL     C143275   6.825   4.327   3.555  0.1778  0.3228  0.5209
   78MOL     C243276   6.918   4.428   3.612 -0.7109  0.2697 -0.1158
   78MOL     C343277   6.897   4.569   3.601 -0.1203 -0.4743 -0.1385
   78MOL     C443278   6.982   4.664   3.671 -0.0082  0.2486 -0.4994
   78MOL     C543279   7.092   4.621   3.750  0.4612 -0.5394  0.2125
   78MOL     C643280   7.166   4.711   3.835  0.0535 -0.1616  0.7931
   78MOL     N743281   7.143   4.843   3.817 -0.3266  0.4695 -0.4939
   78MOL     C843282   7.190   4.942   3.911  0.5573  0.1013  0.1394
   78MOL     C943283   7.217   4.916   4.050  0.3461 -0.3933 -0.4042
   78MOL    C1043284   7.252   5.018   4.139 -0.2009 -0.4346 -0.8623
   78MOL    C1143285   7.265   5.150   4.091 -0.5390 -0.2330  0.0762
   78MOL    N1243286   7.304   5.253   4.177  0.8633 -0.0628  0.0798
   78MOL    C1343287   7.229   5.181   3.957  0.3823 -0.6361 -0.0215
   78MOL    C1443288   7.196   5.077   3.869  0.3918 -1.0272 -0.4275
   78MOL    O1543289   7.252   4.666   3.911 -0.2661  0.4524  0.1559
   78MOL    C1643290   7.116   4.478   3.749 -0.0652  0.1097 -0.0966
   78MOL    C1743291   7.031   4.384   3.685  0.4812 -0.3749 -0.1340
   78MOL    O1843292   6.837   4.200   3.572 -0.0239 -0.4331 -0.1411
   78MOL    H1943293   6.819   4.613   3.542 -0.6540  0.6446  1.3659
   78MOL    H2043294   6.957   4.769   3.667 -0.7123  0.0558 -1.5924
   78MOL    H2143295   7.096   4.875   3.733 -4.2540  0.0194  1.3831
   78MOL    H2243296   7.202   4.816   4.088  1.7605 -0.2284  0.6269
   78MOL    H2343297   7.268   4.982   4.240 -0.3941  0.4517 -0.5099
   78MOL    H2443298   7.272   5.245   4.272 -0.3789  1.0811 -0.2159
   78MOL    H2543299   7.234   5.285   3.929 -1.4780 -0.4465  0.2887
   78MOL    H2643300   7.159   5.098   3.769 -0.4227 -1.7825 -0.2845
   78MOL    H2743301   7.201   4.452   3.810  0.0774 -0.1143 -0.3850
   78MOL    H2843302   7.056   4.279   3.689  0.9543 -0.2583 -0.0520
   78MOL    H2943303   6.754   4.365   3.482  0.0717  0.7630  0.8544
   78MOL    C3043304   7.393   5.356   4.161 -0.4303 -0.2772 -0.9038
   78MOL    C3143305   7.420   5.432   4.284  0.4498  0.1599  0.7218
   78MOL    C3243306   7.524   5.528   4.285 -0.5401 -0.1023 -0.5751
   78MOL    C3343307   7.557   5.598   4.404  0.2266  0.3246 -0.3032
   78MOL    C3443308   7.486   5.570   4.519  0.7063 -0.0601 -0.2616
   78MOL    C3543309   7.513   5.642   4.645 -0.7230 -0.4150 -0.4417
   78MOL    N3643310   7.494   5.775   4.638  0.3014 -0.0520 -0.5482
   78MOL    C3743311   7.502   5.877   4.739 -0.8540  0.6262 -0.0179
   78MOL    C3843312   7.457   5.998   4.694  0.4243 -1.0138 -0.3080
   78MOL    C3943313   7.449   6.108   4.785 -0.7216  0.1072 -0.0404
   78MOL    C4043314   7.489   6.097   4.917  0.2683 -0.2793 -0.8096
   78MOL    N4143315   7.484   6.215   5.004  0.5022  0.1768 -0.5152
   78MOL    C4243316   7.528   5.968   4.966 -0.2762 -0.4624 -0.0683
   78MOL    C4343317   7.530   5.859   4.877 -0.0949 -0.5355  0.5153
   78MOL    O4443318   7.566   5.585   4.739  0.0937 -0.3711 -0.5001
   78MOL    C4543319   7.381   5.470   4.520  0.2370  0.1752  0.1044
   78MOL    C4643320   7.341   5.412   4.397 -0.3689 -0.1808 -0.3252
   78MOL    O4743321   7.455   5.379   4.058 -0.5683 -0.4744  0.8763
   78MOL    H4843322   7.583   5.554   4.199 -0.5266  2.5725  0.2147
   78MOL    H4943323   7.633   5.674   4.400 -1.0878  1.7127  0.7539
   78MOL    H5043324   7.453   5.803   4.550  1.4489 -0.3468 -1.1834
   78MOL    H5143325   7.429   6.007   4.590 -0.9921 -0.8094  0.0877
   78MOL    H5243326   7.405   6.200   4.752 -1.6441 -1.2975 -2.9211
   78MOL    H5343327   7.507   6.304   4.962  0.4150  0.8606  0.8677
   78MOL    H5443328   7.564   5.961   5.067  1.0623  0.1084 -0.4983
   78MOL    H5543329   7.566   5.764   4.913  0.4340  0.2037  1.9745
   78MOL    H5643330   7.321   5.459   4.609  1.3403 -1.0516  0.7152
   78MOL    H5743331   7.263   5.338   4.404 -1.4094  1.0291  1.1652
   78MOL    C5843332   7.399   6.214   5.105  0.2155 -0.1954 -0.0414
   78MOL    C5943333   7.356   6.344   5.162  0.3001 -0.1918 -0.0996
   78MOL    C6043334   7.284   6.426   5.075  0.4201  0.5071 -0.3620
   78MOL    C6143335   7.234   6.550   5.123 -0.2481 -0.6023 -0.3479
   78MOL    C6243336   7.244   6.583   5.257  0.0145 -0.0060 -0.3675
   78MOL    C6343337   7.192   6.715   5.310  0.1067  0.3925  0.2364
   78MOL    N6443338   7.083   6.755   5.243 -0.0995 -1.0927 -0.2794
   78MOL    C6543339   7.030   6.886   5.258  0.1736 -0.2999 -0.1583
   78MOL    C6643340   7.002   6.938   5.391  0.7710  0.6580  1.0832
   78MOL    C6743341   6.940   7.063   5.407 -0.6607  0.2655  0.1210
   78MOL    C6843342   6.897   7.129   5.294 -0.1116  0.2117 -0.7036
   78MOL    N6943343   6.826   7.252   5.306 -0.2265  0.0992  0.2622
   78MOL    C7043344   6.930   7.084   5.166 -0.2498 -0.4445 -0.0799
   78MOL    C7143345   6.989   6.960   5.145  0.4416 -0.3782  0.4560
   78MOL    O7243346   7.251   6.773   5.400  0.6008 -0.3954  0.6434
   78MOL    C7343347   7.313   6.493   5.340 -0.5866  0.3820 -0.2720
   78MOL    C7443348   7.370   6.376   5.297 -0.1277  0.7630  0.0553
   78MOL    O7543349   7.356   6.121   5.166  0.1608 -0.3485  0.0199
   78MOL    H7643350   7.283   6.413   4.968 -0.9092  1.4221 -0.4824
   78MOL    H7743351   7.182   6.616   5.057  0.5858 -1.2861 -1.7035
   78MOL    H7843352   7.048   6.686   5.179 -1.5416 -0.1675 -0.5027
   78MOL    H7943353   7.033   6.883   5.479 -1.1333 -1.2360  0.6347
   78MOL    H8043354   6.939   7.106   5.506  0.3994 -0.3239  0.3988
   78MOL    H8143355   6.795   7.288   5.216  0.9113 -0.5815 -0.4196
   78MOL    H8243356   6.907   7.141   5.077  1.1046 -0.0420 -0.1778
   78MOL    H8343357   7.014   6.935   5.044  3.2146 -0.3124  1.0913
   78MOL    H8443358   7.338   6.524   5.441 -0.4162 -1.0202  0.1261
   78MOL    H8543359   7.427   6.312   5.363 -0.5577  1.5742  1.2233
   78MOL    C8643360   6.764   7.297   5.411 -0.2556 -0.4254  1.0192
   78MOL    C8743361   6.705   7.430   5.388  0.4030  0.3637 -0.1177
   78MOL    C8843362   6.658   7.503   5.499 -0.8349  0.5021 -0.2568
   78MOL    C8943363   6.606   7.636   5.479 -0.0285  0.9629  0.1477
   78MOL    C9043364   6.596   7.686   5.345 -0.3988 -0.1104 -0.0547
   78MOL    C9143365   6.530   7.820   5.324  0.0811  1.3523  0.3502
   78MOL    N9243366   6.533   7.899   5.429  0.6882  0.8325  0.3157
   78MOL    C9343367   6.478   8.024   5.450 -0.0836  0.3040 -0.1413
   78MOL    C9443368   6.515   8.087   5.569  0.3956 -0.3581  0.6296
   78MOL    C9543369   6.492   0.078   5.590  0.5107  0.4319 -0.3914
   78MOL    C9643370   6.426   0.150   5.489 -0.4341  0.0624 -0.1095
   78MOL    N9743371   6.397   0.288   5.490 -0.4325  0.0693 -0.4036
   78MOL    C9843372   6.394   0.087   5.368 -0.0784  0.3662  0.5528
   78MOL    C9943373   6.408   8.096   5.348 -0.0359  0.4315 -0.4852
   78MOL   O10043374   6.477   7.838   5.219 -0.8635  0.0084 -0.0535
   78MOL   C10143375   6.627   7.601   5.236 -0.0027  0.5331  0.3475
   78MOL   C10243376   6.698   7.482   5.257 -0.0085 -0.1635  0.0465
   78MOL   O10343377   6.743   7.242   5.520 -0.6261  0.5620 -0.9502
   78MOL   H10443378   6.659   7.469   5.601 -1.0444 -1.6919 -0.9610
   78MOL   H10543379   6.572   7.697   5.561  0.9457  2.0071 -0.2077
   78MOL   H10643380   6.576   7.860   5.512  0.4130 -2.6236 -1.1194
   78MOL   H10743381   6.568   8.033   5.647 -0.3029 -2.0967 -0.0674
   78MOL   H10843382   6.528   0.134   5.675  0.5365 -1.4920  0.8964
   78MOL   H10943383   6.391   0.322   5.395  0.4174  0.3182 -0.3756
   78MOL   H11043384   6.333   0.144   5.298 -1.3241  0.0032  1.3254
   78MOL   H11143385   6.372   8.046   5.259  1.0578  1.4003 -1.4899
   78MOL   H11243386   6.619   7.634   5.134 -1.9564 -2.9695 -0.6969
   78MOL   H11343387   6.725   7.423   5.170  1.2098  0.8728 -0.2968
   78MOL   C11443388   6.381   0.377   5.583 -0.5815  0.1472  0.1192
   78MOL   C11543389   6.363   0.334   5.730  1.2179  0.3504  0.8739
   78MOL   C11643390   6.450   0.393   5.823  0.3267 -0.3813  0.7453
   78MOL   C11743391   6.432   0.360   5.957 -0.0493 -0.1115 -0.7250
   78MOL   C11843392   6.320   0.280   5.998  0.1540  0.4080 -0.0565
   78MOL   C11943393   6.301   0.246   6.143  0.2067 -0.3031  0.3742
   78MOL   N12043394   6.310   0.122   6.192 -0.4301  1.0135  0.2776
   78MOL   C12143395   6.339   8.142   6.128  0.2281 -0.8547  0.8873
   78MOL   C12243396   6.284   8.029   6.188 -0.5214  0.3838  0.5214
   78MOL   C12343397   6.300   7.900   6.131 -0.0846 -0.3371  0.1566
   78MOL   C12443398   6.387   7.881   6.019  0.1857  0.2710  0.3699
   78MOL   N12543399   6.414   7.750   5.978 -0.2314 -0.0701  0.1815
   78MOL   C12643400   6.448   7.998   5.962 -0.6554  0.0674  0.1611
   78MOL   C12743401   6.428   8.125   6.020  0.7289  0.7102  0.0706
   78MOL   O12843402   6.258   0.329   6.226 -0.0627 -0.1156  0.6554
   78MOL   C12943403   6.233   0.228   5.902  0.4815  0.1549 -0.4907
   78MOL   C13043404   6.256   0.249   5.766 -0.0557 -0.2707  0.0081
   78MOL   O13143405   6.390   0.497   5.558  0.3512  0.6695  0.6505
   78MOL   H13243406   6.532   0.457   5.795 -0.9382  1.4796  1.1794
   78MOL   H13343407   6.501   0.396   6.032 -1.7821  1.0830  0.3368
   78MOL   H13443408   6.284   0.124   6.290 -0.8097  3.3185  0.1478
   78MOL   H13543409   6.229   8.041   6.280 -1.8553  1.0350 -0.3297
   78MOL   H13643410   6.257   7.816   6.183  1.6982 -1.0685  0.4490
   78MOL   H13743411   6.372   7.674   6.028  0.4540  0.5261  1.7247
   78MOL   H13843412   6.518   8.004   5.880 -0.8482  1.2102  0.0734
   78MOL   H13943413   6.482   0.062   5.975  1.5941 -0.5418 -1.2218
   78MOL   H14043414   6.150   0.167   5.934  0.3298  0.2366 -0.7250
   78MOL   H14143415   6.187   0.219   5.688  0.0925 -0.5667 -0.0107
   78MOL   C14243416   6.508   7.706   5.889 -0.2424 -0.2982  0.5605
   78MOL   C14343417   6.530   7.562   5.893 -0.5296 -0.2469  0.1941
   78MOL   C14443418   6.447   7.466   5.953  0.4491  0.3727 -0.6814
   78MOL   C14543419   6.485   7.331   5.947  0.5189 -0.0961 -0.8151
   78MOL   C14643420   6.592   7.286   5.878 -0.0601 -0.0207  0.2105
   78MOL   C14743421   6.624   7.145   5.877 -0.0775  0.4072  0.5494
   78MOL   N14843422   6.695   7.103   5.772  0.3609  0.3165 -0.1557
   78MOL   C14943423   6.756   6.975   5.757  0.7877  0.1082  0.6397
   78MOL   C15043424   6.756   6.917   5.628 -0.2446 -0.4675 -0.2429
   78MOL   C15143425   6.814   6.789   5.605 -0.4097 -0.2861 -0.0412
   78MOL   C15243426   6.882   6.721   5.713 -0.1743 -0.0792 -0.2528
   78MOL   N15343427   6.931   6.584   5.702 -0.6785  0.3050 -0.0297
   78MOL   C15443428   6.896   6.789   5.840  0.5200  0.2943 -0.1825
   78MOL   C15543429   6.826   6.911   5.865 -0.3153 -0.8010  1.2281
   78MOL   O15643430   6.584   7.070   5.967  0.0154  0.2937  0.5460
   78MOL   C15743431   6.687   7.383   5.831 -0.0568  0.6663 -0.0907
   78MOL   C15843432   6.649   7.523   5.835 -0.0637  0.1836  0.2794
   78MOL   O15943433   6.568   7.782   5.806 -0.8343  0.4333  0.0258
   78MOL   H16043434   6.365   7.482   6.021 -0.2408  0.0208 -1.4223
   78MOL   H16143435   6.411   7.269   5.995  0.8285  1.7182  2.1174
   78MOL   H16243436   6.703   7.172   5.699  1.8673  1.3488  0.9501
   78MOL   H16343437   6.712   6.968   5.544  0.2599 -1.0162 -0.8392
   78MOL   H16443438   6.801   6.735   5.512 -0.6719 -1.5506  0.7162
   78MOL   H16543439   6.975   6.557   5.789  0.2688  0.7731 -0.3593
   78MOL   H16643440   6.956   6.741   5.917  2.1574  0.0314 -1.5738
   78MOL   H16743441   6.834   6.960   5.961 -1.0343  2.7577 -0.4350
   78MOL   H16843442   6.772   7.351   5.772 -1.0347 -2.2224  0.0089
   78MOL   H16943443   6.717   7.590   5.785  0.0895 -0.3971 -0.3017
   78MOL   C17043444   6.947   6.506   5.597 -0.6540  0.4391  0.3633
   78MOL   C17143445   7.037   6.383   5.616 -0.3808 -0.2690 -0.7239
   78MOL   C17243446   7.090   6.320   5.495  0.0907 -0.6599 -0.8097
   78MOL   C17343447   7.157   6.202   5.502  0.5720 -0.4550  0.0255
   78MOL   C17443448   7.183   6.141   5.622 -0.8430 -0.3031 -0.5363
   78MOL   C17543449   7.265   6.015   5.623  0.7728  0.0847 -0.2701
   78MOL   N17643450   7.314   5.966   5.506  0.2154  0.2470 -0.8796
   78MOL   C17743451   7.413   5.859   5.483 -0.1784  0.1368  0.2062
   78MOL   C17843452   7.447   5.834   5.345 -0.2576 -0.6935 -0.5077
   78MOL   C17943453   7.538   5.737   5.314 -0.3333 -0.2125  0.5581
   78MOL   C18043454   7.598   5.657   5.415 -0.4510  0.2319 -0.0402
   78MOL   N18143455   7.687   5.554   5.365  0.1910 -0.0754  0.8709
   78MOL   C18243456   7.564   5.679   5.555  0.1780 -0.4562  0.0569
   78MOL   C18343457   7.468   5.777   5.586 -0.7342 -0.3759  0.3116
   78MOL   O18443458   7.285   5.964   5.732  0.4765 -0.3314 -0.0129
   78MOL   C18543459   7.136   6.201   5.744 -0.6845 -0.9405  0.6422
   78MOL   C18643460   7.061   6.319   5.734 -0.1581 -0.7253  0.1855
   78MOL   O18743461   6.901   6.532   5.487 -0.2557  0.1491  0.8713
   78MOL   H18843462   7.070   6.359   5.396  0.5283  0.2069 -0.5663
   78MOL   H18943463   7.174   6.153   5.408  0.9799 -1.4540  0.6095
   78MOL   H19043464   7.303   6.024   5.424  0.0221  0.6610 -0.5637
   78MOL   H19143465   7.404   5.897   5.268 -0.6195  1.2352  1.2158
   78MOL   H19243466   7.563   5.732   5.209 -0.8075  2.2808  0.2899
   78MOL   H19343467   7.663   5.463   5.402  0.4903 -1.0691 -1.3306
   78MOL   H19443468   7.613   5.628   5.636  0.6048 -1.4833 -0.8344
   78MOL   H19543469   7.447   5.800   5.689 -1.4965 -2.0653  0.5440
   78MOL   H19643470   7.156   6.152   5.838 -1.3331  0.0798  1.3159
   78MOL   H19743471   7.021   6.370   5.821 -0.4251 -0.8991  0.1635
   78MOL   C19843472   7.795   5.564   5.282  0.1958 -0.6733 -0.1769
   78MOL   C19943473   7.841   5.698   5.233  0.6225 -0.1568  0.3535
   78MOL   C20043474   7.836   5.734   5.097  0.0073  0.2675 -0.7061
   78MOL   C20143475   7.856   5.869   5.062 -0.6905 -0.6791 -0.0933
   78MOL   C20243476   7.889   5.970   5.160  0.1383 -0.0866  0.4752
   78MOL   C20343477   7.903   6.113   5.130  0.1180  0.6423 -0.5698
   78MOL   N20443478   7.867   6.153   5.007  0.0678 -0.0042  0.2663
   78MOL   C20543479   7.850   6.285   4.962  0.4408  0.3984  0.4547
   78MOL   C20643480   7.755   6.305   4.863  0.3535  0.1327 -0.0577
   78MOL   C20743481   7.726   6.433   4.823  0.6467  0.2791 -0.1418
   78MOL   C20843482   7.796   6.548   4.881 -0.0321  0.4011 -0.1411
   78MOL   N20943483   7.774   6.684   4.848 -0.2615  0.1322  0.1814
   78MOL   C21043484   7.895   6.519   4.975 -0.3866 -0.0878  0.1264
   78MOL   C21143485   7.926   6.393   5.013 -0.1857  1.1678  0.5296
   78MOL   O21243486   7.937   6.190   5.217  0.2188 -0.2752 -0.0299
   78MOL   C21343487   7.899   5.933   5.297  0.1292 -0.9611  0.4442
   78MOL   C21443488   7.880   5.795   5.328  0.2546  0.1954 -0.0010
   78MOL   O21543489   7.848   5.461   5.239  0.2291 -0.0159  0.6304
   78MOL   H21643490   7.802   5.670   5.017 -0.4701 -1.0869  0.5528
   78MOL   H21743491   7.839   5.900   4.960 -1.5562  0.9457  0.5352
   78MOL   H21843492   7.828   6.083   4.946 -1.0854 -1.5150  2.6572
   78MOL   H21943493   7.712   6.216   4.818 -0.4268  0.6325 -0.3022
   78MOL   H22043494   7.652   6.444   4.746  0.4327  3.6477  0.4624
   78MOL   H22143495   7.833   6.748   4.900  1.1210 -1.5833  0.7426
   78MOL   H22243496   7.942   6.608   5.015 -2.8016  2.0559 -1.5692
   78MOL   H22343497   8.011   6.381   5.078  1.6349  0.3045 -1.9397
   78MOL   H22443498   7.919   5.997   5.383 -1.4348 -1.7246  1.3930
   78MOL   H22543499   7.886   5.776   5.434  0.4958  1.7811  0.2799
   78MOL   C22643500   7.678   6.732   4.768 -0.7805  0.1612 -0.1470
   78MOL   C22743501   7.688   6.884   4.746  0.1448  0.0227 -0.5025
   78MOL   C22843502   7.813   6.950   4.736 -0.1761 -0.0287 -0.0639
   78MOL   C22943503   7.823   7.085   4.723  0.3768 -0.5050 -0.7305
   78MOL   C23043504   7.709   7.166   4.709 -0.1195 -0.3059  0.3703
   78MOL   C23143505   7.717   7.317   4.729  0.8854  0.5894  0.8267
   78MOL   N23243506   7.835   7.373   4.765 -0.6271 -0.1857 -0.0191
   78MOL   C23343507   7.858   7.509   4.801 -0.3213 -0.2524  0.2471
   78MOL   C23443508   7.983   7.533   4.860 -0.3495 -0.1004  0.4309
   78MOL   C23543509   8.028   7.666   4.886 -0.1632  0.3497 -0.4974
   78MOL   C23643510   7.943   7.777   4.862  0.5974 -0.1270  0.2489
   78MOL   N23743511   7.994   7.906   4.882 -0.3608 -0.1126  0.3293
   78MOL   C23843512   7.810   7.752   4.814  0.0331 -0.1530  0.4288
   78MOL   C23943513   7.781   7.620   4.769 -0.4929 -0.4190 -0.2150
   78MOL   O24043514   7.610   7.381   4.722 -0.2525  0.3758 -0.3210
   78MOL   C24143515   7.583   7.102   4.708  0.0137  0.0534 -0.3050
   78MOL   C24243516   7.574   6.960   4.721  0.1610 -0.4109  0.4820
   78MOL   O24343517   7.587   6.673   4.719 -0.3473  0.2931 -0.0937
   78MOL   H24443518   7.901   6.893   4.762 -1.6463 -1.9212  0.9024
   78MOL   H24543519   7.917   7.129   4.755 -0.2304  0.2101  0.1372
   78MOL   H24643520   7.913   7.309   4.776 -1.7330 -1.1085  3.2674
   78MOL   H24743521   8.052   7.452   4.881  0.5613  0.0536 -1.8351
   78MOL   H24843522   8.119   7.692   4.939 -0.3164 -0.5652  0.2352
   78MOL   H24943523   8.095   7.912   4.879 -0.3448 -0.7899 -0.5091
   78MOL   H25043524   7.749   7.836   4.784 -1.3645 -1.1548  0.4217
   78MOL   H25143525   7.689   7.600   4.716 -1.2902 -0.5894  1.2001
   78MOL   H25243526   7.487   7.149   4.695  0.4146  0.8409 -0.3996
   78MOL   H25343527   7.474   6.918   4.728 -0.4019  1.2555  3.0912
   78MOL   C25443528   7.933   8.022   4.916 -0.0645  0.4927 -0.5529
   78MOL   C25543529   8.033   8.129   4.963 -0.0525 -0.8284  0.2202
   78MOL   C25643530   7.990   0.072   5.065  0.1008  0.4588 -0.0592
   78MOL   C25743531   8.081   0.172   5.113 -0.2949  0.7195 -0.1073
   78MOL   C25843532   0.064   0.174   5.061  0.3295 -0.9529  1.0140
   78MOL   C25943533   0.160   0.286   5.107  0.2108 -0.0377  0.1144
   78MOL   N26043534   0.285   0.281   5.063 -0.1191  0.2825 -0.1601
   78MOL   C26143535   0.373   0.388   5.082  0.3158 -0.1273 -0.3447
   78MOL   C26243536   0.346   0.514   5.025 -0.7659  0.2534 -0.5131
   78MOL   C26343537   0.444   0.613   5.035 -0.1864 -0.0363  0.1747
   78MOL   C26443538   0.572   0.583   5.092  0.3204  0.2155  0.1627
   78MOL   N26543539   0.676   0.672   5.081 -0.2107 -0.2243 -0.1546
   78MOL   C26643540   0.587   0.461   5.164 -0.3700  0.0761 -0.5103
   78MOL   C26743541   0.487   0.361   5.163  0.5196  0.2262 -0.4434
   78MOL   O26843542   0.124   0.368   5.197  0.0008  0.2374 -0.1580
   78MOL   C26943543   0.107   0.089   4.951  0.2137 -0.4075  0.1534
   78MOL   C27043544   0.019   8.136   4.913 -0.7064  0.4704  0.1857
   78MOL   O27143545   7.811   8.037   4.929 -0.3617 -0.9600  0.5083
   78MOL   H27243546   7.889   0.059   5.102 -0.1495 -0.3690 -0.9968
   78MOL   H27343547   8.052   0.240   5.192  0.4294 -0.0932  0.8770
   78MOL   H27443548   0.320   0.210   5.001 -3.0280 -2.3821  1.1446
   78MOL   H27543549   0.249   0.525   4.978 -1.2780  0.7901  0.6364
   78MOL   H27643550   0.430   0.712   4.994  1.5374  0.1925  0.0664
   78MOL   H27743551   0.726   0.696   5.166  0.4658  1.0587 -0.9032
   78MOL   H27843552   0.680   0.445   5.218 -0.1244  0.0904 -0.9296
   78MOL   H27943553   0.488   0.271   5.223  2.4070  1.3080  1.2187
   78MOL   H28043554   0.203   0.098   4.903  1.2048 -1.8497  1.7961
   78MOL   H28143555   0.052   8.066   4.837  0.5347 -1.4771  2.4625
   78MOL   C28243556   0.700   0.757   4.976 -0.0942 -0.0079  0.2723
   78MOL   C28343557   0.802   0.865   4.998  0.3334  0.3144 -0.1745
   78MOL   C28443558   0.822   0.961   4.897 -0.5088  0.8534  0.5187
   78MOL   C28543559   0.914   1.069   4.902 -0.1774 -0.2518  0.0531
   78MOL   C28643560   0.992   1.077   5.020  0.4000  0.1366 -0.2088
   78MOL   C28743561   1.100   1.174   5.025  0.0720  0.3366 -0.9657
   78MOL   N28843562   1.123   1.241   4.916 -0.6302  0.1479 -0.4893
   78MOL   C28943563   1.213   1.352   4.899  0.8721 -0.6193 -0.1994
   78MOL   C29043564   1.276   1.375   4.776 -0.4132 -0.2191  0.1389
   78MOL   C29143565   1.362   1.486   4.758 -0.3661 -0.1298  0.1646
   78MOL   C29243566   1.369   1.584   4.861  0.4048 -0.3396 -0.0822
   78MOL   N29343567   1.452   1.700   4.847  0.4383  0.0411 -0.2979
   78MOL   C29443568   1.312   1.558   4.990 -0.3962 -1.0032 -0.0790
   78MOL   C29543569   1.237   1.442   5.009 -0.5949 -0.4001  0.0865
   78MOL   O29643570   1.167   1.187   5.133  0.0985 -0.5680  0.1512
   78MOL   C29743571   0.974   0.981   5.126  0.0412 -0.4778  0.1886
   78MOL   C29843572   0.874   0.882   5.122 -0.0979  0.2628  0.7447
   78MOL   O29943573   0.655   0.746   4.865  0.1516  0.2856 -0.1205
   78MOL   H30043574   0.770   0.954   4.803 -1.4803 -1.2992  1.2029
   78MOL   H30143575   0.933   1.140   4.823  2.5191  0.7996  1.5478
   78MOL   H30243576   1.076   1.205   4.834  2.1059  0.7527 -2.3911
   78MOL   H30343577   1.254   1.312   4.691 -2.1909  0.0538  0.3772
   78MOL   H30443578   1.410   1.515   4.665  0.6200 -0.4920  0.5511
   78MOL   H30543579   1.434   1.777   4.909  2.1706  1.2876 -1.3169
   78MOL   H30643580   1.333   1.628   5.069 -0.0372 -2.0565  0.7809
   78MOL   H30743581   1.195   1.426   5.107 -2.7978  1.0878 -0.5725
   78MOL   H30843582   1.036   0.977   5.214 -1.5697  0.8031  1.4136
   78MOL   H30943583   0.861   0.821   5.210 -1.7621  0.4988  0.6807
   78MOL   C31043584   1.560   1.715   4.775  0.1279 -0.0314  0.5138
   78MOL   C31143585   1.617   1.852   4.782 -0.2975  0.0445  0.1979
   78MOL   C31243586   1.538   1.971   4.761  0.5402  0.5619  0.3331
   78MOL   C31343587   1.593   2.092   4.763 -0.1182  0.0415  0.1413
   78MOL   C31443588   1.733   2.107   4.787 -0.0587 -0.0350 -0.6848
   78MOL   C31543589   1.784   2.242   4.824  0.0172  0.2998  0.5224
   78MOL   N31643590   1.915   2.277   4.799 -0.2905  0.3087 -0.3048
   78MOL   C31743591   1.981   2.394   4.834  0.1175 -0.3626 -0.6878
   78MOL   C31843592   1.976   2.454   4.961 -0.1204 -0.2335  0.4254
   78MOL   C31943593   2.042   2.570   4.999  0.1902 -0.2368 -0.5181
   78MOL   C32043594   2.127   2.629   4.905 -0.6374  0.6182  0.7310
   78MOL   N32143595   2.210   2.739   4.949 -0.1051  0.5984  0.0517
   78MOL   C32243596   2.144   2.567   4.776  0.6010 -0.4001 -0.2821
   78MOL   C32343597   2.073   2.450   4.745  0.0368 -0.7338  0.9188
   78MOL   O32443598   1.704   2.321   4.876 -0.2301  0.0934 -0.0924
   78MOL   C32543599   1.812   1.994   4.811  0.4229  0.6527  0.2859
   78MOL   C32643600   1.757   1.866   4.803 -0.2509  0.7630 -0.5122
   78MOL   O32743601   1.627   1.629   4.716 -0.2506  0.1408  0.1971
   78MOL   H32843602   1.432   1.961   4.741  1.0959 -2.5468 -1.3429
   78MOL   H32943603   1.527   2.175   4.746  2.2669  2.0878  0.5972
   78MOL   H33043604   1.971   2.212   4.745  0.4211  0.5533  0.1288
   78MOL   H33143605   1.922   2.396   5.035  2.5987 -0.9430  1.8985
   78MOL   H33243606   2.037   2.613   5.098 -1.3813 -0.6958 -0.3791
   78MOL   H33343607   2.174   2.833   4.938 -1.4248  0.1176  0.1877
   78MOL   H33443608   2.225   2.594   4.709  0.1928 -0.0300 -0.6307
   78MOL   H33543609   2.079   2.401   4.650 -2.4883  1.9786 -0.7438
   78MOL   H33643610   1.918   2.013   4.827  0.5576 -0.1480  0.3529
   78MOL   H33743611   1.828   1.786   4.815  0.7110  1.6589 -0.1804
   78MOL   C33843612   2.306   2.725   5.039  0.6398  0.4889  0.1849
   78MOL   C33943613   2.368   2.594   5.054  0.3754  0.0573 -0.0870
   78MOL   C34043614   2.422   2.526   4.941  0.0405  0.4776 -0.5761
   78MOL   C34143615   2.484   2.404   4.955 -0.2509 -0.1958  0.0792
   78MOL   C34243616   2.498   2.349   5.087 -0.4244  0.9189  0.3402
   78MOL   C34343617   2.554   2.213   5.103  0.1802 -0.5448 -0.0748
   78MOL   N34443618   2.574   2.150   4.989  0.2081 -0.7112 -0.2395
   78MOL   C34543619   2.567   2.015   4.946 -0.8201  0.0419 -0.1789
   78MOL   C34643620   2.589   1.986   4.808  0.9460 -1.0499  0.4270
   78MOL   C34743621   2.576   1.858   4.760  0.0023  0.8443 -0.5515
   78MOL   C34843622   2.547   1.750   4.849  0.0049  0.3507  0.3021
   78MOL   N34943623   2.529   1.627   4.791 -0.7444  0.1188  0.2002
   78MOL   C35043624   2.531   1.779   4.986 -0.2738 -1.1435 -0.4672
   78MOL   C35143625   2.542   1.912   5.034 -0.1269  0.2413  0.9260
   78MOL   O35243626   2.572   2.159   5.214  0.0054 -0.2012 -0.0712
   78MOL   C35343627   2.440   2.414   5.204  0.5280 -0.0692 -0.4259
   78MOL   C35443628   2.378   2.536   5.182  0.0496 -0.4465 -0.0890
   78MOL   O35543629   2.334   2.817   5.110  0.3104 -0.0738  0.0822
   78MOL   H35643630   2.408   2.571   4.844 -1.7267  0.5426 -0.3140
   78MOL   H35743631   2.540   2.366   4.870  0.2717  0.7717 -0.0124
   78MOL   H35843632   2.559   2.210   4.909  2.0029 -0.4134 -0.3877
   78MOL   H35943633   2.625   2.049   4.728  0.4323 -2.6891 -1.1314
   78MOL   H36043634   2.583   1.841   4.653 -0.6812 -3.4154  0.0204
   78MOL   H36143635   2.546   1.626   4.691 -2.3442  1.8999 -0.1283
   78MOL   H36243636   2.505   1.706   5.061 -0.4495  0.4299  1.0338
   78MOL   H36343637   2.522   1.920   5.140  1.9451  1.9123  1.2259
   78MOL   H36443638   2.437   2.369   5.302 -0.0672  0.0036 -0.4096
   78MOL   H36543639   2.335   2.586   5.268  1.0019  1.2844 -0.5923
   78MOL   C36643640   2.468   1.519   4.848 -0.5020  0.1723  0.4440
   78MOL   C36743641   2.428   1.414   4.751 -0.5411  0.5937 -0.1675
   78MOL   C36843642   2.348   1.455   4.644  0.0202  0.2373 -0.5320
   78MOL   C36943643   2.303   1.358   4.561  0.2574  0.7716 -0.1728
   78MOL   C37043644   2.348   1.225   4.563  0.8365 -0.0963  0.2052
   78MOL   C37143645   2.312   1.128   4.454  0.3383  0.3336 -0.0455
   78MOL   N37243646   2.274   1.181   4.331 -0.0995  0.0208  0.6320
   78MOL   C37343647   2.227   1.106   4.212  0.3270  0.2242  0.1147
   78MOL   C37443648   2.135   1.173   4.126  0.4427  0.2146  0.1725
   78MOL   C37543649   2.072   1.105   4.023  0.0070 -0.2026 -0.7500
   78MOL   C37643650   2.101   0.968   4.001  0.0591 -0.2311 -0.0482
   78MOL   N37743651   2.022   0.906   3.895  0.0754  0.6592  0.1515
   78MOL   C37843652   2.203   0.906   4.076 -0.0233 -0.0243  0.6139
   78MOL   C37943653   2.272   0.970   4.181  0.0814  0.2623  0.2990
   78MOL   O38043654   2.309   1.008   4.478  0.6592 -0.0981 -0.1900
   78MOL   C38143655   2.434   1.190   4.670  0.5638 -0.4183 -0.7518
   78MOL   C38243656   2.462   1.278   4.772  0.0889 -0.0939 -0.3604
   78MOL   O38343657   2.435   1.507   4.965 -0.3991 -0.2346 -0.1359
   78MOL   H38443658   2.321   1.559   4.626  0.6552  0.4594 -0.2206
   78MOL   H38543659   2.222   1.391   4.498 -2.3108  1.6603  3.4499
   78MOL   H38643660   2.261   1.280   4.345  1.7570  0.4818 -0.7838
   78MOL   H38743661   2.120   1.279   4.142 -4.2911 -0.7409  2.9561
   78MOL   H38843662   1.996   1.156   3.965  0.3668  0.2697 -0.8155
   78MOL   H38943663   1.961   0.964   3.840 -1.3782 -0.1104  0.9472
   78MOL   H39043664   2.232   0.804   4.052  0.4006 -0.3055  2.2873
   78MOL   H39143665   2.345   0.911   4.234 -0.0959 -0.4517 -0.2458
   78MOL   H39243666   2.479   1.092   4.672 -1.8080 -1.5455 -0.9289
   78MOL   H39343667   2.516   1.254   4.862  0.4408  1.0537 -0.2669
   78MOL   C39443668   2.008   0.774   3.869  0.5271 -0.5453  0.5375
   78MOL   C39543669   1.899   0.738   3.779  0.4557  0.0324  0.3912
   78MOL   C39643670   1.835   0.838   3.707 -0.2136 -0.4144  0.1456
   78MOL   C39743671   1.727   0.799   3.635 -0.2301 -0.2100 -0.3055
   78MOL   C39843672   1.683   0.664   3.635 -0.6067  0.8954 -0.4422
   78MOL   C39943673   1.560   0.632   3.553 -0.4582  0.7291 -1.1478
   78MOL   N40043674   1.567   0.530   3.463  0.3423  0.1559  0.0194
   78MOL   C40143675   1.468   0.447   3.416  0.1480 -0.7083  0.2754
   78MOL   C40243676   1.331   0.482   3.389  0.2275 -0.1475 -0.1771
   78MOL   C40343677   1.236   0.374   3.359 -0.4575 -1.3146 -0.2930
   78MOL   C40443678   1.278   0.243   3.355 -0.8013  0.2200 -0.5201
   78MOL   N40543679   1.185   0.140   3.312 -0.0983 -0.1921  0.4261
   78MOL   C40643680   1.411   0.210   3.387  0.5063  0.1096  0.5871
   78MOL   C40743681   1.504   0.313   3.409 -0.0563 -0.5786 -0.2501
   78MOL   O40843682   1.465   0.710   3.560  0.1158 -0.8783  0.0541
   78MOL   C40943683   1.753   0.564   3.699  0.4121 -1.0449 -0.5226
   78MOL   C41043684   1.866   0.602   3.771  0.6544 -0.2405 -0.0239
   78MOL   O41143685   2.080   0.682   3.921  0.3392 -0.6728  0.5900
   78MOL   H41243686   1.857   0.944   3.708  1.7073 -0.7218 -2.6640
   78MOL   H41343687   1.679   0.872   3.571  0.8475  0.3815 -0.4359
   78MOL   H41443688   1.660   0.493   3.447 -0.1478 -1.0239 -0.1300
   78MOL   H41543689   1.294   0.583   3.389 -2.7867 -1.1992  0.4855
   78MOL   H41643690   1.133   0.399   3.337 -0.0913 -0.2001 -0.8106
   78MOL   H41743691   1.103   0.179   3.268  0.6613  1.3316  0.3161
   78MOL   H41843692   1.454   0.111   3.385  1.8566  0.7024 -2.5312
   78MOL   H41943693   1.606   0.290   3.434 -0.5256 -1.0568  1.2743
   78MOL   H42043694   1.708   0.467   3.690 -2.8980  0.4317 -0.6982
   78MOL   H42143695   1.916   0.526   3.829  1.2034 -0.3381 -0.6174
   78MOL   C42243696   1.180   0.006   3.336 -0.0560 -0.0720  0.7036
   78MOL   C42343697   1.061   8.082   3.280  0.1512  0.1766 -0.1771
   78MOL   C42443698   0.971   0.001   3.190 -0.5297  0.4760 -0.4328
   78MOL   C42543699   0.861   8.081   3.135 -0.1597  0.0695  0.6055
   78MOL   C42643700   0.834   7.943   3.166  0.4448  0.6004 -0.1554
   78MOL   C42743701   0.721   7.871   3.104  0.0937 -0.4590  0.2435
   78MOL   N42843702   0.739   7.738   3.094 -0.4794  0.0203  0.5096
   78MOL   C42943703   0.637   7.638   3.082 -0.1003 -0.2837 -0.4306
   78MOL   C43043704   0.661   7.523   3.154  0.6357 -0.2807  0.2357
   78MOL   C43143705   0.563   7.421   3.149 -0.0468 -0.6145  0.4744
   78MOL   C43243706   0.451   7.420   3.059  0.1925 -0.2447  0.2310
   78MOL   N43343707   0.363   7.312   3.052  0.4373  0.3870  0.1550
   78MOL   C43443708   0.437   7.536   2.977  0.5201 -0.1764 -0.6861
   78MOL   C43543709   0.521   7.648   3.000 -0.6361  0.5229  0.3913
   78MOL   O43643710   0.627   7.928   3.056 -0.0894 -0.3801 -0.0771
   78MOL   C43743711   0.929   7.881   3.249  0.3332 -0.0197  0.2555
   78MOL   C43843712   1.039   7.944   3.311  0.2816  0.3501 -0.6350
   78MOL   O43943713   1.276   8.093   3.385  0.4783  0.4548 -0.1876
   78MOL   H44043714   0.994   0.103   3.163 -2.0339  1.5388  2.1523
   78MOL   H44143715   0.789   8.143   3.083  0.9579  0.6816 -0.2160
   78MOL   H44243716   0.823   7.695   3.130 -0.4046 -0.4426 -0.2054
   78MOL   H44343717   0.742   7.513   3.224  0.7796 -2.5126 -0.2245
   78MOL   H44443718   0.573   7.337   3.216 -1.6297 -2.0651 -1.0499
   78MOL   H44543719   0.406   7.225   3.080  2.0386  0.8813 -0.7179
   78MOL   H44643720   0.367   7.541   2.895 -1.1808 -0.3012  0.7208
   78MOL   H44743721   0.502   7.739   2.944 -2.4061  0.7611  1.3357
   78MOL   H44843722   0.908   7.779   3.280  0.1801  0.8387  3.0944
   78MOL   H44943723   1.111   7.899   3.378  0.7214 -0.0166 -1.3398
   78MOL   C45043724   0.234   7.299   3.025 -0.4348 -0.0900  0.1626
   78MOL   C45143725   0.178   7.159   3.017 -0.4360 -0.2209  0.4857
   78MOL   C45243726   0.040   7.140   3.015 -0.3429 -1.5336  0.5792
   78MOL   C45343727   8.134   7.011   2.996 -0.4522 -0.8998 -0.0266
   78MOL   C45443728   0.073   6.901   2.987 -0.1159  0.6759  0.0104
   78MOL   C45543729   0.018   6.764   2.969  0.5176  0.8576  0.0208
   78MOL   N45643730   0.092   6.672   2.907  0.2598  0.0890 -0.3856
   78MOL   C45743731   0.084   6.532   2.896  0.1869  0.3754  0.6391
   78MOL   C45843732   0.175   6.455   2.978  0.3343  0.0975 -0.9019
   78MOL   C45943733   0.182   6.314   2.968  0.1229 -0.1887  1.2808
   78MOL   C46043734   0.106   6.251   2.866 -0.6766 -0.2712 -0.5520
   78MOL   N46143735   0.119   6.113   2.852  0.5014 -0.2418  0.1781
   78MOL   C46243736   0.016   6.326   2.787 -0.3057  0.2359 -0.0146
   78MOL   C46343737   8.142   6.462   2.811 -0.5935 -0.2932 -0.3188
   78MOL   O46443738   8.051   6.739   3.003  0.7588  0.0834  0.2154
   78MOL   C46543739   0.211   6.917   2.994  0.6228  0.0983 -0.5412
   78MOL   C46643740   0.264   7.047   3.007  0.3291 -0.1209  0.0983
   78MOL   O46743741   0.157   7.394   3.011 -0.6238  0.1581 -0.1141
   78MOL   H46843742   8.117   7.222   3.022  1.2639 -0.0866 -0.1193
   78MOL   H46943743   8.026   7.007   2.995 -0.4872  0.0652 -1.2672
   78MOL   H47043744   0.182   6.710   2.882  0.3282  0.7988  0.9069
   78MOL   H47143745   0.254   6.510   3.026  1.2324 -1.7571 -0.1843
   78MOL   H47243746   0.250   6.261   3.033  0.9307  0.0094  0.6132
   78MOL   H47343747   0.112   6.066   2.941  1.2167 -1.4901 -0.4184
   78MOL   H47443748   8.104   6.280   2.709  0.0513 -1.6475  0.8034
   78MOL   H47543749   8.084   6.521   2.742  1.7017  0.1784 -1.9090
   78MOL   H47643750   0.288   6.843   2.981 -1.3469 -2.1793  0.4700
   78MOL   H47743751   0.371   7.053   3.020  0.3658 -1.1325  0.2787
   78MOL   C47843752   0.131   6.039   2.743 -0.1965 -0.5852 -0.0941
   78MOL   C47943753   0.165   5.889   2.772 -0.0532 -0.2811  0.2051
   78MOL   C48043754   0.214   5.855   2.897  0.0912 -0.5872  0.3942
   78MOL   C48143755   0.251   5.722   2.925 -0.8833  0.1239  0.1063
   78MOL   C48243756   0.232   5.628   2.821 -0.5405  0.7148 -0.1253
   78MOL   C48343757   0.269   5.487   2.846 -0.2160  0.0983  0.4911
   78MOL   N48443758   0.385   5.473   2.918 -0.1898 -1.0034  0.2831
   78MOL   C48543759   0.463   5.352   2.921 -0.1951  0.5654 -0.2967
   78MOL   C48643760   0.603   5.356   2.898 -0.0728  0.5044  0.6763
   78MOL   C48743761   0.683   5.238   2.897 -0.2267  0.2154 -0.3370
   78MOL   C48843762   0.620   5.114   2.929 -0.2084 -0.9045  0.4517
   78MOL   N48943763   0.707   5.001   2.919  1.0552 -0.1806  0.5717
   78MOL   C49043764   0.481   5.105   2.962 -0.1820 -0.6859 -0.2042
   78MOL   C49143765   0.408   5.226   2.955  0.0299 -0.6324 -0.0200
   78MOL   O49243766   0.197   5.390   2.801 -0.1795 -0.2952 -0.3393
   78MOL   C49343767   0.179   5.665   2.693 -0.5117  0.5880  0.2543
   78MOL   C49443768   0.140   5.799   2.668 -0.4456 -0.3363 -0.1370
   78MOL   O49543769   0.121   6.085   2.631 -0.0097 -0.2773  0.3589
   78MOL   H49643770   0.238   5.938   2.962  1.7905  0.5028 -1.5434
   78MOL   H49743771   0.295   5.693   3.019 -0.5387 -0.0970 -0.1211
   78MOL   H49843772   0.426   5.550   2.969 -0.8299 -0.7867  0.4824
   78MOL   H49943773   0.665   5.443   2.887  1.5789 -0.8053 -0.8311
   78MOL   H50043774   0.790   5.253   2.896 -0.3368  1.1081  0.2862
   78MOL   H50143775   0.793   5.027   2.873 -0.0565 -0.1915 -1.5545
   78MOL   H50243776   0.435   5.012   2.992 -2.4698  0.8284  1.2141
   78MOL   H50343777   0.301   5.216   2.968 -0.3029  1.9439 -0.5377
   78MOL   H50443778   0.180   5.590   2.615  2.6197 -0.2881  1.0533
   78MOL   H50543779   0.112   5.825   2.567  0.6475 -0.3635 -0.4520
   78MOL   C50643780   0.684   4.868   2.946  0.2665 -0.1575  0.1065
   78MOL   C50743781   0.797   4.781   2.906  0.1800 -0.1854 -0.3034
   78MOL   C50843782   0.886   4.720   3.004  0.0390 -0.3367 -0.1351
   78MOL   C50943783   1.006   4.659   2.964  0.2858  0.6225  0.5797
   78MOL   C51043784   1.040   4.648   2.829 -0.4994 -0.0390 -0.7186
   78MOL   C51143785   1.168   4.581   2.781  0.1033  0.5372  0.2318
   78MOL   N51243786   1.195   4.583   2.644 -0.0103  0.4947 -0.5757
   78MOL   C51343787   1.296   4.528   2.566  0.2086  0.2794  0.4158
   78MOL   C51443788   1.387   4.427   2.608 -0.7642  0.0350  0.0231
   78MOL   C51543789   1.496   4.386   2.533  0.0193  0.6366 -0.1050
   78MOL   C51643790   1.516   4.446   2.405  0.0521 -0.7814 -0.8263
   78MOL   N51743791   1.615   4.393   2.328 -0.8767 -0.3378 -0.3333
   78MOL   C51843792   1.424   4.544   2.361 -0.4512 -0.5483  0.5497
   78MOL   C51943793   1.311   4.579   2.438 -0.0605 -0.9337  0.0092
   78MOL   O52043794   1.237   4.528   2.868  0.3469 -0.0564  0.4160
   78MOL   C52143795   0.953   4.703   2.736 -0.5795  0.0674 -0.5863
   78MOL   C52243796   0.837   4.769   2.771  0.8950  0.4489 -0.2310
   78MOL   O52343797   0.581   4.816   2.995  0.0172 -0.8731  0.0765
   78MOL   H52443798   0.879   4.745   3.109  0.8268  2.1697 -0.6419
   78MOL   H52543799   1.079   4.620   3.033  1.4457 -0.5082 -1.2360
   78MOL   H52643800   1.130   4.633   2.585 -1.3372 -0.8006 -0.2389
   78MOL   H52743801   1.387   4.378   2.704  2.7629 -1.3322 -0.5887
   78MOL   H52843802   1.554   4.304   2.573  0.8626  0.0077 -2.5070
   78MOL   H52943803   1.675   4.332   2.382 -0.7420  0.4588  0.4495
   78MOL   H53043804   1.440   4.594   2.267  1.1408  1.5747  1.9225
   78MOL   H53143805   1.236   4.650   2.404  0.0172  0.7148  3.1209
   78MOL   H53243806   0.980   4.695   2.632  0.7447 -0.4890 -0.2065
   78MOL   H53343807   0.769   4.804   2.695 -0.9181 -2.0986  0.1586
   78MOL   C53443808   1.665   4.433   2.206  0.2984 -0.2911  0.4895
   78MOL   C53543809   1.803   4.384   2.172  0.2632  0.8867 -0.2289
   78MOL   C53643810   1.891   4.361   2.284  0.0347 -0.2294 -0.3569
   78MOL   C53743811   2.027   4.327   2.257 -0.7274 -0.3099 -0.6702
   78MOL   C53843812   2.077   4.326   2.124 -0.1751 -0.4534 -0.3223
   78MOL   C53943813   2.221   4.289   2.085 -0.3573 -0.3588  0.1382
   78MOL   N54043814   2.284   4.223   2.179 -0.3617  0.3871  0.1818
   78MOL   C54143815   2.415   4.187   2.179  0.6550 -0.3870  0.1466
   78MOL   C54243816   2.453   4.148   2.304 -0.6487  0.0370 -0.1293
   78MOL   C54343817   2.586   4.113   2.332  0.0380 -0.9787  0.3070
   78MOL   C54443818   2.684   4.124   2.231 -0.1752  0.7470  0.1971
   78MOL   N54543819   2.818   4.110   2.269  0.0235 -0.1298  0.1801
   78MOL   C54643820   2.645   4.158   2.098  0.3729  0.3070 -0.0983
   78MOL   C54743821   2.512   4.194   2.074  0.2929 -0.4364 -0.6598
   78MOL   O54843822   2.262   4.319   1.976 -0.3557 -0.8282 -0.3715
   78MOL   C54943823   1.989   4.366   2.020 -0.2670 -0.0993  0.0584
   78MOL   C55043824   1.856   4.389   2.044  0.4628 -0.1784  0.7734
   78MOL   O55143825   1.606   4.499   2.113 -0.4093 -0.2253 -1.1010
   78MOL   H55243826   1.857   4.368   2.386 -0.2476  0.4672 -0.4955
   78MOL   H55343827   2.095   4.307   2.339 -0.8742  1.3466 -0.1278
   78MOL   H55443828   2.237   4.191   2.263  0.3944 -0.5441  0.2585
   78MOL   H55543829   2.384   4.162   2.386  0.7264 -2.3123  1.4976
   78MOL   H55643830   2.623   4.089   2.431  0.6002  0.3108  0.4240
   78MOL   H55743831   2.848   4.040   2.335  1.6168  0.0296 -0.3420
   78MOL   H55843832   2.716   4.165   2.016  0.8203 -0.2284  0.2402
   78MOL   H55943833   2.481   4.203   1.971 -0.3302  1.8666 -0.3007
   78MOL   H56043834   2.035   4.383   1.924  0.8727  0.9349  0.7716
   78MOL   H56143835   1.807   4.425   1.955 -0.4612  0.8600  1.6859
   78MOL   H56243836   2.872   4.093   2.185 -0.4423 -2.0763  0.2576
   79MOL     C143837   0.965   1.555   2.083 -0.0950 -0.4143 -0.7459
   79MOL     C243838   0.834   1.490   2.090  0.2645  0.1974  0.5331
   79MOL     C343839   0.788   1.421   2.202 -0.3364  0.1965  0.2190
   79MOL     C443840   0.663   1.356   2.208 -0.0923  0.1947  0.3360
   79MOL     C543841   0.584   1.356   2.090 -0.3258 -0.7256  0.6116
   79MOL     C643842   0.449   1.288   2.082  0.6108  0.8794  0.0827
   79MOL     N743843   0.377   1.277   2.198 -0.1747  0.5149 -0.2999
   79MOL     C843844   0.270   1.182   2.216  0.9532 -0.3343  0.0254
   79MOL     C943845   0.259   1.065   2.134  0.7648  0.5119 -0.2347
   79MOL    C1043846   0.161   0.969   2.156  0.7781 -0.4331  0.9003
   79MOL    C1143847   0.067   0.986   2.268 -0.7708 -0.1210  0.7490
   79MOL    N1243848   8.127   0.875   2.295 -0.9880  0.1378  0.3107
   79MOL    C1343849   0.077   1.101   2.345 -0.7175 -0.5664 -0.7975
   79MOL    C1443850   0.185   1.194   2.328 -0.1460  0.2648 -0.2573
   79MOL    O1543851   0.413   1.252   1.969 -0.0539  0.4565  0.0757
   79MOL    C1643852   0.634   1.421   1.976 -0.0482 -0.6142  0.3758
   79MOL    C1743853   0.754   1.486   1.972  0.0968  0.0680 -0.5686
   79MOL    O1843854   1.048   1.543   2.176  0.4009  0.2262  0.6462
   79MOL    H1943855   0.853   1.414   2.289 -0.7873  0.9085  0.6131
   79MOL    H2043856   0.621   1.304   2.293  0.5425 -1.3657 -0.2740
   79MOL    H2143857   0.408   1.329   2.278  0.1375  0.6983 -0.5372
   79MOL    H2243858   0.332   1.039   2.058  1.0290  0.9353 -0.1264
   79MOL    H2343859   0.151   0.881   2.095  0.7061  0.3096 -0.1726
   79MOL    H2443860   0.011   0.789   2.252  2.6547  3.1312 -3.5741
   79MOL    H2543861   0.003   1.116   2.423  0.4119  2.0166 -0.1717
   79MOL    H2643862   0.187   1.271   2.403  0.3582 -1.3894  1.4380
   79MOL    H2743863   0.580   1.417   1.883 -0.0761 -0.7011  0.3956
   79MOL    H2843864   0.793   1.529   1.881 -1.0786 -1.5541 -1.8825
   79MOL    H2943865   0.989   1.606   1.990  1.0107  1.7491  0.6616
   79MOL    C3043866   8.002   0.868   2.346  1.0519  1.0303  0.6195
   79MOL    C3143867   7.935   0.731   2.338  0.2502  0.2739 -0.6323
   79MOL    C3243868   7.810   0.700   2.402 -0.7789 -0.4031 -0.1949
   79MOL    C3343869   7.755   0.571   2.406  0.0879  0.0497  0.8023
   79MOL    C3443870   7.823   0.460   2.342  0.6547  0.0542  0.4238
   79MOL    C3543871   7.753   0.325   2.328 -0.2365  0.1493  0.2163
   79MOL    N3643872   7.802   0.243   2.235  1.2984 -0.1888  0.3706
   79MOL    C3743873   7.782   0.108   2.200 -0.2196  0.5214 -0.3762
   79MOL    C3843874   7.816   0.076   2.067 -0.2327  0.2281  0.6862
   79MOL    C3943875   7.796   8.088   2.021 -0.1824 -0.0839 -0.0627
   79MOL    C4043876   7.753   7.989   2.112  1.3521  0.4003  0.0920
   79MOL    N4143877   7.765   7.850   2.077  0.0092  0.0846  0.1924
   79MOL    C4243878   7.716   8.024   2.244 -0.2538  0.0496 -0.5143
   79MOL    C4343879   7.722   0.011   2.284 -0.4796 -0.7799  0.7831
   79MOL    O4443880   7.657   0.301   2.397 -0.1987  0.0434  1.0014
   79MOL    C4543881   7.945   0.488   2.277  0.5858 -0.2746 -0.0934
   79MOL    C4643882   7.992   0.617   2.274 -0.4609  0.1320 -0.5632
   79MOL    O4743883   7.943   0.961   2.390  0.1465  0.0786  0.1103
   79MOL    H4843884   7.754   0.782   2.446  0.1991 -0.3808  1.0532
   79MOL    H4943885   7.662   0.551   2.458 -1.9031 -1.7189 -3.1652
   79MOL    H5043886   7.869   0.280   2.169 -1.7931  1.4719 -1.9674
   79MOL    H5143887   7.857   0.145   1.995 -1.5151  1.1249  0.7952
   79MOL    H5243888   7.821   8.060   1.919 -0.9127  0.9699 -0.5415
   79MOL    H5343889   7.831   7.828   2.004 -1.5983  0.9003 -1.5483
   79MOL    H5443890   7.691   7.947   2.315  2.7766 -0.8621 -0.3640
   79MOL    H5543891   7.700   0.039   2.386 -0.1178  1.8149  0.1730
   79MOL    H5643892   8.005   0.414   2.226 -0.9250 -1.0693 -0.7572
   79MOL    H5743893   8.092   0.625   2.234 -0.2129 -2.6053 -0.6355
   79MOL    C5843894   7.698   7.751   2.130  0.2101 -0.2870 -0.3334
   79MOL    C5943895   7.755   7.614   2.113  0.6846  0.2871 -0.7686
   79MOL    C6043896   7.749   7.524   2.219  0.2054  0.6171 -0.9072
   79MOL    C6143897   7.816   7.402   2.213  0.3239  0.7397 -0.5679
   79MOL    C6243898   7.878   7.358   2.093  0.3389 -0.0336  0.1932
   79MOL    C6343899   7.956   7.233   2.073  0.0531 -0.3141 -0.8194
   79MOL    N6443900   7.943   7.144   2.171 -0.2111  0.1241  0.4116
   79MOL    C6543901   7.993   7.014   2.186  0.7835  0.1644  0.0497
   79MOL    C6643902   8.091   6.952   2.111  0.1453 -0.3576  0.3945
   79MOL    C6743903   8.135   6.824   2.136 -0.3218  0.1727  0.5635
   79MOL    C6843904   8.065   6.737   2.223 -0.0854 -0.1473 -0.0021
   79MOL    N6943905   8.080   6.600   2.236 -0.1301  0.1298 -0.1213
   79MOL    C7043906   7.960   6.795   2.299  0.1822 -0.1012 -0.1825
   79MOL    C7143907   7.938   6.935   2.290  0.0284  0.4950  0.4589
   79MOL    O7243908   8.022   7.213   1.973 -0.1177  0.5468 -0.5034
   79MOL    C7343909   7.885   7.454   1.989 -0.1240  0.4428 -0.0407
   79MOL    C7443910   7.817   7.577   1.992 -0.1983 -0.9231 -0.0833
   79MOL    O7543911   7.595   7.762   2.193  0.4151 -1.0169  0.5592
   79MOL    H7643912   7.702   7.549   2.313  3.8862  0.0599  1.1527
   79MOL    H7743913   7.806   7.337   2.299  0.2965 -0.5278 -1.5071
   79MOL    H7843914   7.872   7.168   2.239  0.5458  2.8102  0.3039
   79MOL    H7943915   8.139   7.002   2.028  1.0553 -1.9784 -0.0785
   79MOL    H8043916   0.065   6.788   2.068 -1.3733 -1.1937  0.0790
   79MOL    H8143917   8.044   6.562   2.322 -0.3792  0.8177  0.0774
   79MOL    H8243918   7.896   6.733   2.361 -1.5611  1.7161 -0.1084
   79MOL    H8343919   7.849   6.964   2.344 -1.1122 -0.7018 -0.7437
   79MOL    H8443920   7.937   7.434   1.896  0.2706  0.7604  0.1095
   79MOL    H8543921   7.809   7.629   1.898  1.1847 -4.2241 -2.1024
   79MOL    C8643922   0.016   6.524   2.164 -0.5954 -0.1612  0.1090
   79MOL    C8743923   0.041   6.387   2.215  0.2454 -0.1271 -0.5788
   79MOL    C8843924   0.109   6.289   2.138 -0.4279  0.1265 -0.0050
   79MOL    C8943925   0.131   6.161   2.184  0.1528  0.2635 -0.0260
   79MOL    C9043926   0.064   6.113   2.301  0.2729 -0.1903 -0.0615
   79MOL    C9143927   0.063   5.966   2.333 -0.1082  0.1280  0.0174
   79MOL    N9243928   0.166   5.889   2.292 -0.5411  0.4298 -0.4579
   79MOL    C9343929   0.181   5.748   2.309 -0.0182 -0.1796  0.6682
   79MOL    C9443930   0.070   5.662   2.331 -0.3385  0.3972 -0.3968
   79MOL    C9543931   0.090   5.526   2.364  0.1573  0.1199 -0.4044
   79MOL    C9643932   0.217   5.469   2.365 -0.5151  0.0986  0.4636
   79MOL    N9743933   0.222   5.331   2.397  0.4997  0.6510  0.0933
   79MOL    C9843934   0.327   5.558   2.349  0.0434 -0.9417  0.3408
   79MOL    C9943935   0.309   5.692   2.319 -0.0967 -0.0983 -0.4278
   79MOL   O10043936   8.111   5.927   2.399 -0.1292 -0.3744 -0.7658
   79MOL   C10143937   0.006   6.209   2.383 -0.5815 -0.4386  0.3171
   79MOL   C10243938   8.140   6.344   2.343  0.1625  0.1671  0.7533
   79MOL   O10343939   0.078   6.563   2.063 -0.4467  0.2932  0.0255
   79MOL   H10443940   0.150   6.321   2.043  0.6366  1.0498  0.7514
   79MOL   H10543941   0.189   6.099   2.117 -0.2530  1.1323 -1.1875
   79MOL   H10643942   0.245   5.941   2.256  0.1768 -0.7004 -0.5290
   79MOL   H10743943   8.118   5.704   2.314 -0.0757 -0.1012 -3.5186
   79MOL   H10843944   0.003   5.464   2.377 -1.0820  2.1549  1.2137
   79MOL   H10943945   0.130   5.289   2.404 -0.4003  2.6882  0.8680
   79MOL   H11043946   0.427   5.521   2.369  0.4285  0.4328  0.9771
   79MOL   H11143947   0.392   5.761   2.310  0.4808 -0.9258 -1.5911
   79MOL   H11243948   8.109   6.185   2.480 -0.1059 -0.6314  0.4822
   79MOL   H11343949   8.088   6.413   2.408  1.1974 -0.2972  2.1062
   79MOL   C11443950   0.326   5.254   2.431 -0.1277 -0.1082 -0.0459
   79MOL   C11543951   0.283   5.127   2.491 -0.0519  0.7957  0.5858
   79MOL   C11643952   0.322   5.103   2.624 -0.3025  0.1840 -0.6447
   79MOL   C11743953   0.261   4.996   2.690  0.2273  0.9802  0.6417
   79MOL   C11843954   0.171   4.909   2.630  0.0722  0.2395 -0.3678
   79MOL   C11943955   0.105   4.798   2.717 -0.3249 -0.4543 -0.0456
   79MOL   N12043956   8.129   4.808   2.769  0.0330 -0.1430  0.2127
   79MOL   C12143957   8.036   4.919   2.768  0.1374  0.2400 -0.0970
   79MOL   C12243958   8.086   5.053   2.780  0.1588  0.4516  0.2764
   79MOL   C12343959   8.001   5.160   2.800  0.6918 -0.6941  0.4444
   79MOL   C12443960   7.864   5.134   2.808 -0.2655 -0.3479 -0.5847
   79MOL   N12543961   7.777   5.239   2.847 -0.3400 -0.2486 -0.0029
   79MOL   C12643962   7.811   5.000   2.805 -0.1864  0.3582  0.2012
   79MOL   C12743963   7.899   4.893   2.779 -0.0367 -0.1240  0.2861
   79MOL   O12843964   0.167   4.689   2.722 -0.4093  0.1843 -0.6668
   79MOL   C12943965   0.141   4.927   2.493  0.6307  0.4213  0.1008
   79MOL   C13043966   0.195   5.037   2.427 -0.5963 -0.1750  0.1369
   79MOL   O13143967   0.441   5.281   2.410  0.1852  0.2893  0.1894
   79MOL   H13243968   0.382   5.171   2.684  0.2978 -0.5974 -0.3513
   79MOL   H13343969   0.293   4.990   2.793  2.2108 -1.6002 -0.0697
   79MOL   H13443970   8.085   4.724   2.803 -2.2522  1.6152  1.8104
   79MOL   H13543971   0.048   5.061   2.783  0.2527 -0.7997  0.7278
   79MOL   H13643972   8.043   5.259   2.810 -0.2303 -0.4575  2.0705
   79MOL   H13743973   7.806   5.305   2.918 -1.1093 -1.6295  1.6383
   79MOL   H13843974   7.706   4.975   2.806 -0.0774 -0.5359 -3.1736
   79MOL   H13943975   7.854   4.795   2.773 -0.0930 -0.3090  3.0730
   79MOL   H14043976   0.070   4.860   2.445  0.5768  1.1432 -0.8329
   79MOL   H14143977   0.169   5.061   2.324 -0.3021 -1.4808 -0.2449
   79MOL   C14243978   7.659   5.274   2.799 -0.6975  0.5640  0.1506
   79MOL   C14343979   7.604   5.395   2.864 -0.0151 -0.0948 -0.0907
   79MOL   C14443980   7.542   5.489   2.777 -0.0043  0.0907 -0.3852
   79MOL   C14543981   7.472   5.604   2.836 -0.1001  0.2461  0.5492
   79MOL   C14643982   7.481   5.624   2.974 -0.1044 -0.1476 -0.7618
   79MOL   C14743983   7.413   5.745   3.040  0.4367 -0.1496 -0.9024
   79MOL   N14843984   7.446   5.859   2.977  0.2602  0.2481 -0.1442
   79MOL   C14943985   7.414   5.991   3.016 -0.2317 -0.4919 -0.3022
   79MOL   C15043986   7.328   6.071   2.936 -0.6020  0.0687 -0.5960
   79MOL   C15143987   7.303   6.206   2.971  0.3336  0.2871  0.2241
   79MOL   C15243988   7.359   6.261   3.086  1.0167 -0.0286  0.1189
   79MOL   N15343989   7.329   6.401   3.119 -0.6048  0.3436 -0.0678
   79MOL   C15443990   7.450   6.184   3.166  0.5317  0.2868 -0.9982
   79MOL   C15543991   7.479   6.046   3.131 -0.5178 -0.1578  0.1028
   79MOL   O15643992   7.335   5.731   3.136 -0.0707  0.7143  1.0427
   79MOL   C15743993   7.547   5.528   3.059 -0.2386 -1.2457  0.2357
   79MOL   C15843994   7.608   5.415   3.001  0.6101 -0.2112  0.4774
   79MOL   O15943995   7.605   5.219   2.701 -0.0539  0.7224  0.5039
   79MOL   H16043996   7.547   5.475   2.670 -1.3289 -1.2815 -0.2821
   79MOL   H16143997   7.413   5.674   2.779 -0.8135 -0.2227  0.7055
   79MOL   H16243998   7.509   5.854   2.898  1.7141 -1.3711  1.0802
   79MOL   H16343999   7.274   6.030   2.852 -0.2450  0.8229 -1.1996
   79MOL   H16444000   7.234   6.257   2.905  0.5569 -2.4061 -2.1837
   79MOL   H16544001   7.401   6.467   3.146  0.1497 -0.3047 -0.4817
   79MOL   H16644002   7.497   6.234   3.249 -2.1319 -0.2018  0.8698
   79MOL   H16744003   7.551   5.982   3.180  1.1500  1.8255  0.3204
   79MOL   H16844004   7.556   5.521   3.166  1.8480  0.5787  0.2051
   79MOL   H16944005   7.654   5.348   3.073  0.1611 -1.3774 -0.3113
   79MOL   C17044006   7.209   6.462   3.118  0.5872 -0.8291  0.1113
   79MOL   C17144007   7.203   6.604   3.154 -0.3153 -0.0312 -0.4624
   79MOL   C17244008   7.313   6.672   3.211  0.0026  0.2227 -0.4961
   79MOL   C17344009   7.314   6.808   3.218 -0.9046  0.1567 -0.0677
   79MOL   C17444010   7.198   6.883   3.185  0.0513 -0.0404  0.3670
   79MOL   C17544011   7.194   7.033   3.209  0.0402  0.1409 -0.1492
   79MOL   N17644012   7.067   7.079   3.242  0.4058 -0.1712  0.1479
   79MOL   C17744013   7.033   7.207   3.306  0.3641  0.0141 -0.1690
   79MOL   C17844014   6.901   7.250   3.312  0.5709 -0.5858  0.2794
   79MOL   C17944015   6.871   7.377   3.367 -0.3555  0.0157  0.2632
   79MOL   C18044016   6.970   7.461   3.418  0.6228 -0.1642  0.6058
   79MOL   N18144017   6.940   7.594   3.473  0.3432 -0.2687 -0.3205
   79MOL   C18244018   7.101   7.419   3.408  0.3880  0.4809 -0.0829
   79MOL   C18344019   7.137   7.298   3.350 -0.4263  0.8119 -0.5634
   79MOL   O18444020   7.296   7.098   3.191 -0.0409 -0.3400 -0.4191
   79MOL   C18544021   7.082   6.815   3.143  0.2712  0.2379 -0.2388
   79MOL   C18644022   7.086   6.680   3.126 -0.0641  0.5798 -0.5630
   79MOL   O18744023   7.102   6.404   3.107  0.0410 -0.4451  0.4339
   79MOL   H18844024   7.380   6.603   3.259  1.2862 -0.2930 -2.9631
   79MOL   H18944025   7.404   6.857   3.252 -1.3467  0.2924  0.9411
   79MOL   H19044026   6.993   7.012   3.227  1.0045 -1.0353  0.9725
   79MOL   H19144027   6.813   7.190   3.294 -1.6906  3.0214 -1.2906
   79MOL   H19244028   6.763   7.387   3.374 -0.0871  1.2389  3.2724
   79MOL   H19344029   7.014   7.633   3.530  1.1897  0.6287 -1.9940
   79MOL   H19444030   7.183   7.486   3.431 -1.2137  1.6956  2.2670
   79MOL   H19544031   7.241   7.271   3.345 -1.1269 -1.9812 -1.0202
   79MOL   H19644032   6.992   6.871   3.119  0.9712  1.1503 -0.7550
   79MOL   H19744033   7.002   6.621   3.094  0.7036 -0.3864 -0.8174
   79MOL   C19844034   6.828   7.674   3.463 -0.7425 -0.2802 -0.7592
   79MOL   C19944035   6.704   7.617   3.396 -0.0976  0.2081 -0.1965
   79MOL   C20044036   6.620   7.532   3.469  0.4261  0.4735 -0.1487
   79MOL   C20144037   6.496   7.485   3.411 -0.3221 -0.5266 -0.3742
   79MOL   C20244038   6.473   7.502   3.273 -0.0644  0.0575  0.0193
   79MOL   C20344039   6.378   7.418   3.196  0.1534  0.5195 -0.1240
   79MOL   N20444040   6.413   7.393   3.068 -0.6654  0.8047  0.0679
   79MOL   C20544041   6.377   7.281   2.993  0.5169 -0.4554  0.0757
   79MOL   C20644042   6.306   7.289   2.872 -0.4174 -0.3348 -0.0473
   79MOL   C20744043   6.275   7.174   2.796 -0.0827 -0.5174 -0.2749
   79MOL   C20844044   6.327   7.047   2.841  0.0581  0.0358 -0.4788
   79MOL   N20944045   6.304   6.925   2.769 -0.0601  0.4137 -0.1620
   79MOL   C21044046   6.401   7.039   2.960 -0.2295  0.4272  0.4466
   79MOL   C21144047   6.422   7.155   3.041  0.2998  0.2011  0.3988
   79MOL   O21244048   6.270   7.382   3.253 -0.7214  0.0034  0.1267
   79MOL   C21344049   6.563   7.589   3.200  0.1503  0.5526  0.8726
   79MOL   C21444050   6.670   7.650   3.265 -0.4383  0.5680 -0.1536
   79MOL   O21544051   6.838   7.792   3.493 -0.0565 -0.3057  0.7027
   79MOL   H21644052   6.639   7.509   3.573  1.8828  0.3983 -0.4116
   79MOL   H21744053   6.435   7.415   3.466 -0.0782 -0.7796 -0.4259
   79MOL   H21844054   6.487   7.448   3.027 -0.8848  1.4453  0.5275
   79MOL   H21944055   6.273   7.386   2.841  2.2098  0.9246  0.9612
   79MOL   H22044056   6.219   7.185   2.704  2.1928  0.2410 -1.6107
   79MOL   H22144057   6.321   6.834   2.810  0.8872  0.7771  0.2801
   79MOL   H22244058   6.434   6.942   2.995 -0.6246 -1.0697 -3.1109
   79MOL   H22344059   6.471   7.152   3.138 -0.2671  1.0835  0.7150
   79MOL   H22444060   6.547   7.598   3.093  0.1463 -0.6042  0.7606
   79MOL   H22544061   6.737   7.709   3.204  2.0070 -0.8700  1.0519
   79MOL   C22644062   6.272   6.906   2.634  0.6444 -0.2330 -0.0121
   79MOL   C22744063   6.302   6.767   2.587 -0.7929  0.1458 -0.1431
   79MOL   C22844064   6.423   6.704   2.624  0.1497 -0.1134  0.1462
   79MOL   C22944065   6.452   6.580   2.573 -0.0845 -0.0657 -0.5677
   79MOL   C23044066   6.368   6.517   2.479 -0.1929 -0.0771 -0.2800
   79MOL   C23144067   6.404   6.375   2.435 -0.3246 -1.0989  0.1405
   79MOL   N23244068   6.326   6.321   2.343  0.5529  0.6910  0.1037
   79MOL   C23344069   6.335   6.187   2.288 -0.0295 -0.0762 -0.1802
   79MOL   C23444070   6.387   6.073   2.344 -0.2817 -0.1586  0.7052
   79MOL   C23544071   6.393   5.947   2.285  0.1411 -0.1052 -0.3923
   79MOL   C23644072   6.346   5.934   2.156  0.6622  0.3896  0.5949
   79MOL   N23744073   6.349   5.802   2.098  0.7709 -0.2480  0.7336
   79MOL   C23844074   6.293   6.049   2.092 -0.4066  0.0861 -0.2027
   79MOL   C23944075   6.295   6.175   2.154 -0.0705  0.2791  0.3952
   79MOL   O24044076   6.511   6.325   2.463 -0.2727  0.2315 -0.3180
   79MOL   C24144077   6.243   6.578   2.445 -0.3406  0.4479  0.1508
   79MOL   C24244078   6.217   6.704   2.497  0.1369 -0.0954  0.2714
   79MOL   O24344079   6.239   6.989   2.543  0.1407  0.3035 -0.3122
   79MOL   H24444080   6.490   6.755   2.691  0.5639 -0.0769 -0.2954
   79MOL   H24544081   6.549   6.538   2.594 -0.6562 -0.3943  1.4502
   79MOL   H24644082   6.284   6.400   2.297  0.6099 -0.1799 -1.4708
   79MOL   H24744083   6.443   6.079   2.437  0.9494  0.2613 -0.0550
   79MOL   H24844084   6.438   5.865   2.340 -0.0986  1.2114  1.8115
   79MOL   H24944085   6.340   5.722   2.159  0.9371 -0.6466  0.2382
   79MOL   H25044086   6.249   6.050   1.994 -1.7521  0.0351  0.3849
   79MOL   H25144087   6.267   6.266   2.103 -2.4247 -0.0826  0.9739
   79MOL   H25244088   6.167   6.535   2.381  0.1236 -0.2237  0.0455
   79MOL   H25344089   6.127   6.751   2.460  0.0364 -1.5512 -1.4047
   79MOL   C25444090   6.338   5.766   1.972  0.2315  0.6677 -0.4056
   79MOL   C25544091   6.356   5.618   1.939 -0.0829 -0.1742  0.5479
   79MOL   C25644092   6.368   5.514   2.028  0.1821  0.0504 -0.5877
   79MOL   C25744093   6.361   5.379   1.989 -0.3268  0.7579  0.3958
   79MOL   C25844094   6.349   5.345   1.849 -0.1057  0.2121  0.2763
   79MOL   C25944095   6.340   5.205   1.800  0.7375  0.6295 -0.9337
   79MOL   N26044096   6.275   5.115   1.873  0.9812  0.3102 -0.6012
   79MOL   C26144097   6.241   4.981   1.840 -0.6422 -0.4645  0.0852
   79MOL   C26244098   6.181   4.955   1.715  0.4612 -0.4779 -0.3862
   79MOL   C26344099   6.119   4.832   1.692 -0.1675  0.2283 -0.2249
   79MOL   C26444100   6.112   4.725   1.784  0.1073 -0.4219  0.9538
   79MOL   N26544101   6.030   4.609   1.756  0.4930 -0.7196  0.0980
   79MOL   C26644102   6.184   4.749   1.901 -0.6562 -0.3723 -0.9455
   79MOL   C26744103   6.234   4.875   1.936  0.4350 -0.1350  0.1866
   79MOL   O26844104   6.388   5.180   1.693 -0.0900  0.4840 -0.3564
   79MOL   C26944105   6.349   5.453   1.757  0.2177  0.4976 -0.3878
   79MOL   C27044106   6.350   5.587   1.804 -0.8758 -0.0439 -0.3255
   79MOL   O27144107   6.322   5.848   1.886  0.0226 -0.3603  0.0989
   79MOL   H27244108   6.383   5.533   2.133  0.2130  1.0551 -0.7767
   79MOL   H27344109   6.362   5.303   2.066  0.1536 -0.4251 -0.7521
   79MOL   H27444110   6.253   5.147   1.966  2.1310 -2.5555  0.7360
   79MOL   H27544111   6.174   5.037   1.646  0.8900 -0.2317 -0.1369
   79MOL   H27644112   6.058   4.819   1.604  1.1571 -2.5380 -0.7743
   79MOL   H27744113   6.004   4.588   1.661 -1.6483 -1.2783  0.7951
   79MOL   H27844114   6.185   4.675   1.980 -0.3244 -1.0223 -1.5498
   79MOL   H27944115   6.275   4.879   2.036  2.2796 -2.7121 -0.4347
   79MOL   H28044116   6.346   5.444   1.649 -0.9628  1.5235 -0.4561
   79MOL   H28144117   6.341   5.667   1.732 -1.0992  1.5190  1.4029
   79MOL   C28244118   5.957   4.537   1.839 -0.5152  0.2180 -0.5138
   79MOL   C28344119   5.862   4.438   1.779 -0.6204 -0.4947 -0.3201
   79MOL   C28444120   5.894   4.372   1.658 -0.0937  0.2927  0.0292
   79MOL   C28544121   5.802   4.273   1.607 -0.0055 -0.3558 -0.4257
   79MOL   C28644122   5.686   4.245   1.683  0.9501  0.4911 -0.4546
   79MOL   C28744123   5.586   4.142   1.638 -0.0475 -0.2326  0.9941
   79MOL   N28844124   5.642   4.035   1.584 -0.5940 -0.3002 -0.4416
   79MOL   C28944125   5.588   3.908   1.558  0.3207 -0.2961 -0.7177
   79MOL   C29044126   5.459   3.869   1.609  0.3104  0.1692 -0.0158
   79MOL   C29144127   5.406   3.740   1.582  0.1028 -0.4129 -0.0529
   79MOL   C29244128   5.481   3.642   1.514 -0.5348 -0.2067  0.3281
   79MOL   N29344129   5.442   3.512   1.481  0.2592  0.5518  0.8487
   79MOL   C29444130   5.612   3.684   1.458  0.5199  0.5044 -0.4386
   79MOL   C29544131   5.660   3.814   1.479 -0.8572 -0.0131  0.0291
   79MOL   O29644132   5.463   4.171   1.641 -0.1021 -0.1658 -0.3784
   79MOL   C29744133   5.656   4.311   1.803 -0.1876 -0.3134  0.1275
   79MOL   C29844134   5.746   4.408   1.848  0.0234  0.1946  0.3263
   79MOL   O29944135   5.963   4.555   1.964  0.6469 -0.3210  0.0798
   79MOL   H30044136   5.978   4.396   1.595 -0.5698 -2.2503 -1.6786
   79MOL   H30144137   5.810   4.229   1.509 -3.3343 -0.3347 -0.7969
   79MOL   H30244138   5.741   4.031   1.569 -0.6530  2.5388 -1.9622
   79MOL   H30344139   5.394   3.940   1.658 -0.8271 -0.7809 -0.1378
   79MOL   H30444140   5.304   3.720   1.611 -0.1876  0.4550 -0.4546
   79MOL   H30544141   5.497   3.461   1.413  0.4559 -1.0597  2.1861
   79MOL   H30644142   5.676   3.611   1.409  0.4990 -0.0990  0.4275
   79MOL   H30744143   5.757   3.839   1.439  0.1117 -1.4611  1.4007
   79MOL   H30844144   5.562   4.306   1.857 -0.1481  1.3254  0.3896
   79MOL   H30944145   5.725   4.471   1.933  2.2301  1.4902 -0.0397
   79MOL   C31044146   5.354   3.425   1.529 -0.3471  0.2040  0.6456
   79MOL   C31144147   5.373   3.287   1.476 -0.5473  0.2058 -0.6093
   79MOL   C31244148   5.468   3.251   1.371  0.2489  0.7066 -0.0408
   79MOL   C31344149   5.476   3.120   1.314  0.4327 -1.1754  0.0238
   79MOL   C31444150   5.401   3.016   1.375  0.1605  0.1659  0.0766
   79MOL   C31544151   5.414   2.874   1.329  0.0573  0.3468 -0.6565
   79MOL   N31644152   5.539   2.831   1.297  0.7296 -0.2589 -0.2713
   79MOL   C31744153   5.665   2.887   1.321 -0.3640  0.9172 -0.0180
   79MOL   C31844154   5.759   2.849   1.227  0.4622 -0.1350  0.0423
   79MOL   C31944155   5.890   2.908   1.238  0.0713  0.4807  0.1470
   79MOL   C32044156   5.926   3.003   1.333 -0.2301  0.1758  0.2362
   79MOL   N32144157   6.064   3.043   1.354  0.5721  0.3967  0.0855
   79MOL   C32244158   5.831   3.027   1.435 -0.7645 -0.5948  0.0314
   79MOL   C32344159   5.700   2.972   1.429  0.0575  0.3879  0.0913
   79MOL   O32444160   5.318   2.795   1.341 -0.4118 -0.1525  0.3303
   79MOL   C32544161   5.297   3.055   1.463  0.6310 -0.2653 -0.1445
   79MOL   C32644162   5.293   3.184   1.524  0.8444 -0.2079  0.4440
   79MOL   O32744163   5.271   3.460   1.609 -0.0402 -0.3581  0.3758
   79MOL   H32844164   5.540   3.320   1.329 -0.0536  0.2685 -1.2831
   79MOL   H32944165   5.552   3.101   1.240  0.2426 -2.3677  0.1272
   79MOL   H33044166   5.532   2.733   1.273  1.8365 -0.6002  0.7419
   79MOL   H33144167   5.730   2.782   1.148  1.1765  0.6369 -0.8732
   79MOL   H33244168   5.968   2.881   1.168 -1.4051  3.2833 -2.7259
   79MOL   H33344169   6.097   3.054   1.449  1.5404 -1.6129  0.0148
   79MOL   H33444170   5.863   3.093   1.515 -1.9967  0.7416 -0.5624
   79MOL   H33544171   5.627   2.991   1.506 -0.3556  0.4788 -0.3207
   79MOL   H33644172   5.225   2.982   1.498  0.0420  0.3924  0.0171
   79MOL   H33744173   5.223   3.205   1.604  4.4101  0.6893  3.4490
   79MOL   C33844174   6.155   3.062   1.260  0.3362  0.1476  0.1884
   79MOL   C33944175   6.281   3.128   1.309  0.4521  0.5598  0.4411
   79MOL   C34044176   6.279   3.204   1.425 -0.6859  0.0201 -0.3704
   79MOL   C34144177   6.400   3.267   1.473 -0.8178 -0.2093 -0.9200
   79MOL   C34244178   6.519   3.255   1.403  0.2968 -0.7015 -0.1501
   79MOL   C34344179   6.641   3.325   1.456  0.0060  0.5543  0.1441
   79MOL   N34444180   6.760   3.320   1.381  0.3938  0.9114 -0.5521
   79MOL   C34544181   6.895   3.370   1.394 -0.1955  0.1368 -0.6713
   79MOL   C34644182   6.930   3.475   1.484  0.2392 -0.4344 -0.0876
   79MOL   C34744183   7.061   3.504   1.519  0.7192 -0.0339 -0.5293
   79MOL   C34844184   7.172   3.435   1.455  0.5231  0.4347  0.3295
   79MOL   N34944185   7.305   3.481   1.478  0.1306 -0.0245  0.0940
   79MOL   C35044186   7.136   3.329   1.363  0.3486 -0.6761  0.2922
   79MOL   C35144187   6.999   3.306   1.329 -0.8269 -0.0079  0.2016
   79MOL   O35244188   6.629   3.383   1.566  0.3584 -0.1611 -0.0882
   79MOL   C35344189   6.514   3.183   1.276  0.0138 -0.6110  0.2295
   79MOL   C35444190   6.398   3.113   1.238 -0.6516  0.1871 -0.4695
   79MOL   O35544191   6.138   3.031   1.141 -0.7239 -0.1560 -0.2293
   79MOL   H35644192   6.188   3.229   1.477 -0.6349  0.4075 -0.4683
   79MOL   H35744193   6.392   3.331   1.560 -1.9681  0.4450 -1.4980
   79MOL   H35844194   6.743   3.253   1.307 -1.5309  0.2834  0.4227
   79MOL   H35944195   6.840   3.526   1.517  0.4911 -0.9824  1.4643
   79MOL   H36044196   7.077   3.577   1.598 -1.4527 -0.5867  0.4330
   79MOL   H36144197   7.319   3.577   1.507  0.8221  0.6577 -2.3751
   79MOL   H36244198   7.209   3.280   1.300  1.2656  2.3727 -1.1283
   79MOL   H36344199   6.986   3.222   1.263  0.2011 -0.2382  0.2896
   79MOL   H36444200   6.605   3.167   1.220 -0.3209 -2.0226  0.0670
   79MOL   H36544201   6.402   3.055   1.146 -0.1872 -1.4041  0.5411
   79MOL   C36644202   7.416   3.411   1.452  0.2753  0.3276 -0.2977
   79MOL   C36744203   7.541   3.490   1.490 -0.0103  0.5603 -0.2831
   79MOL   C36844204   7.549   3.628   1.498 -0.1632  0.0934 -0.5778
   79MOL   C36944205   7.664   3.689   1.544 -1.0014  0.5539  0.3049
   79MOL   C37044206   7.774   3.616   1.587 -0.3076 -0.1201  0.1156
   79MOL   C37144207   7.891   3.683   1.645  0.2032 -0.3525 -0.4185
   79MOL   N37244208   7.866   3.775   1.738  0.8256  0.4610  0.2465
   79MOL   C37344209   7.746   3.797   1.820 -0.0685  0.3171 -0.2701
   79MOL   C37444210   7.683   3.688   1.878 -0.1593 -0.0594  0.2461
   79MOL   C37544211   7.569   3.710   1.959  0.1599 -0.2897 -0.3195
   79MOL   C37644212   7.522   3.835   1.977  0.2060  0.3917  0.1061
   79MOL   N37744213   7.407   3.868   2.053 -0.0682 -0.0273  0.1981
   79MOL   C37844214   7.584   3.941   1.917 -0.1077  0.5388  0.7029
   79MOL   C37944215   7.700   3.924   1.842  0.0957  0.3115  0.3834
   79MOL   O38044216   8.006   3.647   1.618 -0.3002 -0.0909  0.1720
   79MOL   C38144217   7.774   3.482   1.561 -0.0085 -0.2058  0.0319
   79MOL   C38244218   7.662   3.418   1.510 -0.4972  0.0520 -0.2361
   79MOL   O38344219   7.426   3.292   1.419 -0.2985 -0.6109 -0.2759
   79MOL   H38444220   7.465   3.691   1.473  0.2265  2.3482  3.4002
   79MOL   H38544221   7.659   3.796   1.557  0.8943  0.6693  0.1731
   79MOL   H38644222   7.947   3.829   1.764  0.9255  0.6460 -0.4441
   79MOL   H38744223   7.710   3.585   1.859 -1.3328  0.1376 -2.7384
   79MOL   H38844224   7.522   3.624   2.004  1.7360 -0.9559  0.0792
   79MOL   H38944225   7.387   3.967   2.055  0.8200  0.1922 -1.1103
   79MOL   H39044226   7.543   4.040   1.927 -3.4300 -0.8808  1.6181
   79MOL   H39144227   7.748   4.007   1.793  1.1914 -1.1464 -1.0313
   79MOL   H39244228   7.859   3.422   1.590  1.8628  1.1519 -2.4209
   79MOL   H39344229   7.665   3.311   1.502  0.9310  0.1227 -0.7119
   79MOL   C39444230   7.335   3.801   2.144  0.2040 -0.4635 -0.2719
   79MOL   C39544231   7.234   3.881   2.214  0.2144  0.5346  0.0132
   79MOL   C39644232   7.153   3.978   2.151  0.4933  0.4799  0.3894
   79MOL   C39744233   7.053   4.056   2.220 -0.9850  0.5832 -0.1856
   79MOL   C39844234   7.037   4.038   2.361 -0.1098 -0.0718  0.0794
   79MOL   C39944235   6.943   4.113   2.451  0.1696 -0.6269 -0.4501
   79MOL   N40044236   6.898   4.213   2.381  0.5317  0.3112 -0.1228
   79MOL   C40144237   6.794   4.304   2.403 -0.2836  0.7341 -0.5096
   79MOL   C40244238   6.716   4.321   2.521  0.0592 -0.8293 -0.2641
   79MOL   C40344239   6.594   4.391   2.519  0.2263  0.0704  0.0381
   79MOL   C40444240   6.549   4.454   2.404 -0.6585  0.0432  0.3626
   79MOL   N40544241   6.422   4.525   2.403  0.3001 -0.3493 -0.4764
   79MOL   C40644242   6.624   4.448   2.291 -0.7775  0.4453  0.0618
   79MOL   C40744243   6.753   4.380   2.291  0.3581  0.1820 -0.7579
   79MOL   O40844244   6.928   4.099   2.572  0.1450  0.0393 -0.1224
   79MOL   C40944245   7.116   3.937   2.419 -0.7404  0.0858  0.0155
   79MOL   C41044246   7.202   3.852   2.352  0.4485  0.2913  0.3673
   79MOL   O41144247   7.348   3.686   2.178 -0.2448 -0.0651 -0.3382
   79MOL   H41244248   7.184   4.010   2.052 -2.4279  2.0024 -0.0665
   79MOL   H41344249   6.999   4.134   2.168 -1.0801  0.2757 -0.5409
   79MOL   H41444250   6.942   4.205   2.290  0.4127 -1.3308 -0.0502
   79MOL   H41544251   6.742   4.270   2.612  2.1674  1.9388  0.7484
   79MOL   H41644252   6.548   4.391   2.617  1.7574 -0.6546  0.7745
   79MOL   H41744253   6.361   4.505   2.482 -0.6816 -0.8318 -1.3412
   79MOL   H41844254   6.590   4.477   2.193  1.6882 -0.1001 -0.9943
   79MOL   H41944255   6.795   4.356   2.194 -0.9073  0.2172 -1.3285
   79MOL   H42044256   7.122   3.922   2.526  1.0581 -0.3803 -0.1290
   79MOL   H42144257   7.256   3.778   2.410 -1.8673 -0.4862  1.6077
   79MOL   C42244258   6.378   4.618   2.320  0.3567 -0.3742  0.4739
   79MOL   C42344259   6.227   4.640   2.315 -0.1007  0.2590 -0.3879
   79MOL   C42444260   6.133   4.531   2.318 -0.8760 -0.3960 -0.2837
   79MOL   C42544261   5.997   4.545   2.295 -0.3312 -0.2559  0.4926
   79MOL   C42644262   5.939   4.673   2.271 -0.4952  0.0181 -0.2122
   79MOL   C42744263   5.789   4.694   2.261 -0.4548 -0.7578 -0.5138
   79MOL   N42844264   5.728   4.601   2.187 -0.0013  0.7519  0.1271
   79MOL   C42944265   5.594   4.587   2.150  1.0261 -0.3223 -0.1047
   79MOL   C43044266   5.545   4.456   2.148  0.7998  0.1710 -0.0423
   79MOL   C43144267   5.420   4.441   2.098  0.1885  0.3100 -0.2040
   79MOL   C43244268   5.341   4.551   2.057  0.1205  0.1064 -0.1667
   79MOL   N43344269   5.208   4.534   2.014  0.0060 -0.3623  0.5163
   79MOL   C43444270   5.392   4.683   2.072  0.2944 -0.5153  0.2309
   79MOL   C43544271   5.521   4.698   2.119 -0.3461 -0.1532  0.4062
   79MOL   O43644272   5.731   4.788   2.323  0.3233 -0.0223  0.9406
   79MOL   C43744273   6.028   4.786   2.288  0.0621  0.0745 -0.0878
   79MOL   C43844274   6.170   4.767   2.299 -0.3046 -0.0701  0.8283
   79MOL   O43944275   6.447   4.691   2.244  0.2509 -0.1052 -0.0048
   79MOL   H44044276   6.173   4.432   2.337 -0.6344 -0.3860 -0.7240
   79MOL   H44144277   5.935   4.457   2.305 -0.2066 -0.3662  0.3029
   79MOL   H44244278   5.798   4.538   2.152  0.0539  0.3567  0.9303
   79MOL   H44344279   5.592   4.367   2.189 -1.3965 -1.1217 -0.2458
   79MOL   H44444280   5.363   4.351   2.110 -1.1666  1.0568 -0.9273
   79MOL   H44544281   5.150   4.616   2.027  2.1559  1.2028  0.5678
   79MOL   H44644282   5.330   4.764   2.036 -1.8239 -2.3307 -0.2888
   79MOL   H44744283   5.570   4.794   2.114 -0.7600  0.1526  2.0270
   79MOL   H44844284   5.982   4.884   2.294  0.7500  0.2399  4.7227
   79MOL   H44944285   6.234   4.854   2.304 -0.5243  0.2635 -1.3998
   79MOL   C45044286   5.155   4.431   1.943 -0.3173 -0.6153  0.3597
   79MOL   C45144287   5.008   4.437   1.902  0.6481 -0.1079 -0.4519
   79MOL   C45244288   4.955   4.324   1.832  0.3489 -0.1784  0.2831
   79MOL   C45344289   4.824   4.325   1.780 -0.4887  0.0147 -0.4080
   79MOL   C45444290   4.741   4.438   1.796  0.2799 -0.6077 -0.0495
   79MOL   C45544291   4.597   4.448   1.745  0.7683 -0.5900  0.1271
   79MOL   N45644292   4.516   4.555   1.777 -0.0281  0.0627 -0.0323
   79MOL   C45744293   4.392   4.592   1.721  0.1576  0.1674  0.3131
   79MOL   C45844294   4.366   4.735   1.724 -0.1937  0.2086 -0.1062
   79MOL   C45944295   4.252   4.786   1.662  0.2441  0.8849  0.1002
   79MOL   C46044296   4.171   4.694   1.589  0.0712  0.2612  0.5129
   79MOL   N46144297   4.054   4.751   1.538 -0.5576  1.2025 -0.0326
   79MOL   C46244298   4.199   4.556   1.577 -0.7491  0.2983 -0.1733
   79MOL   C46344299   4.312   4.505   1.647 -0.1109 -0.0502 -0.5583
   79MOL   O46444300   4.560   4.357   1.669 -0.4604  0.3136 -0.3618
   79MOL   C46544301   4.800   4.549   1.868  0.0533 -0.4351 -0.0722
   79MOL   C46644302   4.926   4.550   1.923  0.1513  0.2640  0.0153
   79MOL   O46744303   5.229   4.339   1.909 -0.0489  0.7424 -0.1087
   79MOL   H46844304   5.016   4.237   1.815 -0.4171 -0.4335 -1.2519
   79MOL   H46944305   4.790   4.243   1.718  1.1885 -1.8536  1.0723
   79MOL   H47044306   4.562   4.620   1.838  0.1174  0.7498 -0.8689
   79MOL   H47144307   4.440   4.793   1.777 -1.7145  0.9059  1.3139
   79MOL   H47244308   4.237   4.890   1.683  0.2206  1.2063 -1.4364
   79MOL   H47344309   4.035   4.847   1.563 -1.9920  1.1681 -0.8984
   79MOL   H47444310   4.144   4.491   1.510 -1.2493 -1.4832  1.9249
   79MOL   H47544311   4.330   4.399   1.632  2.2306  0.1973  0.1994
   79MOL   H47644312   4.741   4.639   1.874 -2.4001 -1.9543 -0.7107
   79MOL   H47744313   4.961   4.641   1.969  0.9370 -1.1635  2.3730
   79MOL   C47844314   3.955   4.696   1.475 -0.0719 -0.3069 -0.1553
   79MOL   C47944315   3.839   4.791   1.447  0.5164  1.0426 -0.0950
   79MOL   C48044316   3.852   4.937   1.446  0.4655  0.1891 -0.0961
   79MOL   C48144317   3.740   5.016   1.420  0.2179  0.1504  0.4424
   79MOL   C48244318   3.611   4.958   1.394 -0.0014 -0.3359 -0.4579
   79MOL   C48344319   3.490   5.041   1.354 -0.2463  0.3447 -0.6196
   79MOL   N48444320   3.457   5.136   1.442  0.1339  0.0063 -0.2109
   79MOL   C48544321   3.355   5.233   1.439 -0.3559 -0.8585  0.2109
   79MOL   C48644322   3.260   5.234   1.334 -0.0950  0.4985 -0.2004
   79MOL   C48744323   3.160   5.327   1.341  0.3397 -0.4398  1.4372
   79MOL   C48844324   3.146   5.420   1.441  0.2775  0.0871  0.0016
   79MOL   N48944325   3.032   5.501   1.439  0.0133 -0.2232 -0.0685
   79MOL   C49044326   3.248   5.429   1.536 -0.4814 -0.8711  0.8231
   79MOL   C49144327   3.354   5.338   1.531 -0.2194  0.4930  0.2654
   79MOL   O49244328   3.428   5.008   1.254  0.2502 -0.5228 -0.3232
   79MOL   C49344329   3.601   4.815   1.395  0.6106  0.0800  0.0985
   79MOL   C49444330   3.714   4.733   1.410 -0.3221 -0.8006  0.0026
   79MOL   O49544331   3.942   4.574   1.446 -0.1444 -0.1341  0.7303
   79MOL   H49644332   3.949   4.975   1.474  0.4787 -0.2807  0.5288
   79MOL   H49744333   3.752   5.123   1.426  5.0040 -0.2052 -1.1227
   79MOL   H49844334   3.519   5.142   1.522 -1.0675 -0.1747  0.7468
   79MOL   H49944335   3.259   5.156   1.260 -1.6735 -1.2780  1.6118
   79MOL   H50044336   3.100   5.320   1.251  2.2479 -0.9996  0.1942
   79MOL   H50144337   2.953   5.469   1.386 -0.5921 -0.6978  1.0872
   79MOL   H50244338   3.251   5.507   1.611 -3.3761  2.8337 -2.6837
   79MOL   H50344339   3.430   5.338   1.607 -1.1552  0.6447  1.2033
   79MOL   H50444340   3.503   4.776   1.372  0.3070  0.9821 -0.1421
   79MOL   H50544341   3.699   4.627   1.401 -5.0452 -0.2570  0.2170
   79MOL   C50644342   3.021   5.626   1.489 -0.3619 -0.7512  0.4311
   79MOL   C50744343   2.898   5.696   1.438 -0.4718  0.0685 -0.4053
   79MOL   C50844344   2.899   5.837   1.436  0.3114  1.3435 -0.2766
   79MOL   C50944345   2.784   5.907   1.391  0.3017 -0.0400 -0.2727
   79MOL   C51044346   2.676   5.832   1.337  0.7182  0.4785  0.7029
   79MOL   C51144347   2.566   5.904   1.255 -0.3510 -0.4292  0.4751
   79MOL   N51244348   2.562   5.876   1.125 -0.7214 -0.0462  0.3442
   79MOL   C51344349   2.446   5.860   1.051 -0.1215  0.1334 -0.2537
   79MOL   C51444350   2.318   5.842   1.110  0.1846  0.0306  0.0307
   79MOL   C51544351   2.207   5.809   1.022  0.3797  0.3443 -0.7779
   79MOL   C51644352   2.228   5.801   0.885 -0.2054  0.0249 -0.1868
   79MOL   N51744353   2.124   5.760   0.801 -0.3357 -0.4311 -0.3379
   79MOL   C51844354   2.352   5.827   0.825  0.4425  0.6218 -0.1087
   79MOL   C51944355   2.461   5.852   0.907  0.3531 -0.1261  0.3733
   79MOL   O52044356   2.493   5.977   1.313  0.0431  0.3773 -0.2911
   79MOL   C52144357   2.680   5.688   1.345 -0.1885  0.0166 -0.0529
   79MOL   C52244358   2.788   5.616   1.394 -0.1866 -0.1230  0.2532
   79MOL   O52344359   3.104   5.681   1.562 -0.2186 -0.9360 -0.0926
   79MOL   H52444360   2.987   5.888   1.473  2.2138  0.9089 -3.9853
   79MOL   H52544361   2.775   6.012   1.370  0.7632  1.0233  4.2159
   79MOL   H52644362   2.647   5.849   1.078 -1.2808 -2.3464  0.6250
   79MOL   H52744363   2.308   5.830   1.216  2.0957  2.0767  0.4822
   79MOL   H52844364   2.112   5.798   1.073  0.2397  0.5921 -0.9830
   79MOL   H52944365   2.113   5.805   0.711 -1.9088  2.4042  1.1866
   79MOL   H53044366   2.368   5.806   0.720  3.3421  0.1607  0.3870
   79MOL   H53144367   2.557   5.868   0.860  0.0435  0.3348 -0.1000
   79MOL   H53244368   2.595   5.634   1.307  1.2048 -1.6784 -0.7900
   79MOL   H53344369   2.797   5.508   1.401 -1.0702 -0.2575 -0.6077
   79MOL   C53444370   2.070   5.633   0.799 -0.2684 -0.1730 -0.4503
   79MOL   C53544371   1.973   5.609   0.691  0.4230  0.0702 -0.3465
   79MOL   C53644372   1.864   5.696   0.664  0.2420  0.3368 -0.4311
   79MOL   C53744373   1.769   5.655   0.565 -0.1534  0.6215 -0.0185
   79MOL   C53844374   1.799   5.550   0.474  0.0976 -0.1665  0.0220
   79MOL   C53944375   1.699   5.528   0.365  0.0927  0.1920  0.6713
   79MOL   N54044376   1.679   5.400   0.337 -0.7022 -0.0076 -0.0640
   79MOL   C54144377   1.594   5.347   0.234  0.7500  0.1640 -0.6811
   79MOL   C54244378   1.569   5.415   0.109 -0.2699 -0.3321  0.1352
   79MOL   C54344379   1.504   5.345   0.003  0.1589 -0.2791 -0.6832
   79MOL   C54444380   1.451   5.218   0.024 -0.7496  0.1463 -0.2631
   79MOL   N54544381   1.386   5.155   8.062 -1.1691 -0.0853 -0.0156
   79MOL   C54644382   1.462   5.159   0.150  0.1705 -0.2555 -0.0086
   79MOL   C54744383   1.538   5.212   0.250  0.0619  0.0937  0.0701
   79MOL   O54844384   1.639   5.619   0.304 -0.2023 -0.2111  0.1601
   79MOL   C54944385   1.916   5.473   0.489 -0.1401 -0.2388  0.4511
   79MOL   C55044386   1.993   5.502   0.602 -0.6724  0.0111  0.9397
   79MOL   O55144387   2.086   5.540   0.879 -0.2622 -0.7778 -0.0923
   79MOL   H55244388   1.846   5.782   0.726 -3.1453 -0.4250 -0.2788
   79MOL   H55344389   1.681   5.716   0.558 -0.6817 -0.2265 -0.9461
   79MOL   H55444390   1.721   5.329   0.395 -2.7107 -1.5031 -0.3665
   79MOL   H55544391   1.631   5.503   0.096  1.8203 -1.5495  1.4629
   79MOL   H55644392   1.493   5.394   8.053  0.5255 -0.9326 -1.0598
   79MOL   H55744393   1.360   5.209   7.981 -1.1934 -2.4789 -1.6334
   79MOL   H55844394   1.423   5.058   0.148 -0.3587 -0.0339 -1.3809
   79MOL   H55944395   1.558   5.144   0.331 -2.4055 -1.1863 -0.3536
   79MOL   H56044396   1.949   5.394   0.423 -0.0054 -0.9704  1.3886
   79MOL   H56144397   2.070   5.434   0.637  1.6964  2.7137  1.1963
   79MOL   H56244398   1.332   5.073   8.082  1.4331 -1.8994 -0.1403
   80MOL     C144399   1.751   6.515   5.703 -0.2537  0.6235  0.1277
   80MOL     C244400   1.643   6.602   5.648  0.1966 -0.3239  0.7129
   80MOL     C344401   1.531   6.636   5.723 -0.1903  0.0554  0.7551
   80MOL     C444402   1.420   6.710   5.677 -0.6086 -0.0497  0.1535
   80MOL     C544403   1.421   6.757   5.543  0.3260 -0.1631 -0.4954
   80MOL     C644404   1.311   6.850   5.499 -0.5768 -0.3074 -0.1485
   80MOL     N744405   1.199   6.841   5.567  0.4306 -0.8684 -0.0671
   80MOL     C844406   1.074   6.897   5.549 -0.1114 -0.2624  0.1401
   80MOL     C944407   1.052   7.023   5.493  0.1025  0.1606  0.7356
   80MOL    C1044408   0.921   7.069   5.478 -0.2590 -0.2673  0.2524
   80MOL    C1144409   0.812   6.994   5.526  0.5567  0.3960 -0.7112
   80MOL    N1244410   0.678   7.033   5.510  0.4810  0.4593  0.0837
   80MOL    C1344411   0.841   6.870   5.592 -0.2048 -0.7841  0.5486
   80MOL    C1444412   0.968   6.821   5.603 -0.3378 -0.0226 -1.0695
   80MOL    O1544413   1.333   6.931   5.416  0.6852  0.2476 -0.6744
   80MOL    C1644414   1.541   6.731   5.461  0.3237 -0.1462  0.0301
   80MOL    C1744415   1.646   6.659   5.519  0.1842 -0.0316  0.2855
   80MOL    O1844416   1.757   6.492   5.822 -0.4223  0.5484 -0.2003
   80MOL    H1944417   1.527   6.610   5.828 -4.0540  2.5658  1.3398
   80MOL    H2044418   1.338   6.732   5.745 -0.8645 -0.7210  0.0638
   80MOL    H2144419   1.205   6.772   5.641 -1.6032  0.3787  1.3186
   80MOL    H2244420   1.134   7.082   5.453  0.0881 -0.1436  0.2523
   80MOL    H2344421   0.912   7.166   5.431  0.7627 -0.8589 -1.1658
   80MOL    H2444422   0.608   6.965   5.539  1.4003  0.2786  1.9498
   80MOL    H2544423   0.765   6.808   5.637  0.1862 -0.7904  1.2072
   80MOL    H2644424   0.985   6.726   5.652  0.8360  2.2057  3.1351
   80MOL    H2744425   1.549   6.766   5.359  1.2832 -1.0712 -0.2202
   80MOL    H2844426   1.742   6.654   5.470 -0.3992 -0.5794 -0.8289
   80MOL    H2944427   1.815   6.459   5.635 -2.6790 -3.3765  0.9843
   80MOL    C3044428   0.628   7.144   5.462  0.2385  0.7134  0.1761
   80MOL    C3144429   0.492   7.172   5.523  0.2519  0.8457  0.4072
   80MOL    C3244430   0.484   7.165   5.663  0.2156 -0.0827  0.0159
   80MOL    C3344431   0.359   7.195   5.726  0.4094 -0.5304 -0.2048
   80MOL    C3444432   0.239   7.231   5.648  0.3614 -0.0244 -0.1761
   80MOL    C3544433   0.107   7.250   5.720 -0.2474  0.3394 -0.0079
   80MOL    N3644434   0.118   7.266   5.855 -0.2759  0.1968 -0.2194
   80MOL    C3744435   0.016   7.319   5.941 -0.4061  0.3721  0.0323
   80MOL    C3844436   8.021   7.320   5.923  0.4080  0.1205  0.0624
   80MOL    C3944437   7.931   7.374   6.017  0.1340 -0.8310  0.1538
   80MOL    C4044438   7.990   7.426   6.136  0.4386 -0.0911 -0.4852
   80MOL    N4144439   7.903   7.474   6.234  0.0396  0.0715  0.1084
   80MOL    C4244440   8.131   7.440   6.149  0.5776  0.7449 -0.2968
   80MOL    C4344441   0.069   7.380   6.057  0.4140 -0.7205  0.4035
   80MOL    O4444442   0.006   7.248   5.656 -0.4256 -0.0165 -0.3087
   80MOL    C4544443   0.260   7.237   5.508 -0.3580 -0.6361 -0.7064
   80MOL    C4644444   0.384   7.221   5.446 -0.5182 -0.1993  0.0321
   80MOL    O4744445   0.687   7.230   5.398  0.8221  0.1836 -0.2784
   80MOL    H4844446   0.569   7.131   5.721 -0.1895 -0.9829  0.0820
   80MOL    H4944447   0.362   7.170   5.831  2.1794  0.3052 -0.0260
   80MOL    H5044448   0.214   7.252   5.883 -0.3833 -0.4994 -0.2066
   80MOL    H5144449   7.980   7.281   5.831  1.4348  0.9181 -0.7527
   80MOL    H5244450   7.824   7.372   6.007  0.1596 -0.8651 -0.1244
   80MOL    H5344451   7.825   7.529   6.202  0.8413  0.2600 -1.5868
   80MOL    H5444452   0.019   7.478   6.244 -1.7224 -0.1648  0.9236
   80MOL    H5544453   0.175   7.393   6.072  0.3207 -1.1647  1.5005
   80MOL    H5644454   0.174   7.261   5.446 -0.5822  0.8695  0.1815
   80MOL    H5744455   0.395   7.239   5.340 -0.7129 -2.1363 -0.3427
   80MOL    C5844456   7.908   7.458   6.366 -0.3290  0.0834 -0.4036
   80MOL    C5944457   7.790   7.523   6.443 -1.1541 -0.2620 -0.3465
   80MOL    C6044458   7.739   7.650   6.402  0.0314  0.0029  0.7150
   80MOL    C6144459   7.626   7.707   6.467  0.0637  0.3567 -0.1086
   80MOL    C6244460   7.572   7.647   6.586 -0.6593  1.3733  0.4905
   80MOL    C6344461   7.455   7.706   6.652  0.0494  0.2492  0.2347
   80MOL    N6444462   7.461   7.840   6.678  0.6732  0.4294 -0.4274
   80MOL    C6544463   7.393   7.904   6.786 -0.2205  0.3178  0.4019
   80MOL    C6644464   7.455   8.019   6.841  0.5221 -0.1200 -0.1743
   80MOL    C6744465   7.389   8.092   6.943  0.0524  0.2949  0.1661
   80MOL    C6844466   7.263   8.048   6.993  0.2697 -0.3384 -0.2139
   80MOL    N6944467   7.206   8.131   7.088  0.7384 -0.1718 -0.3598
   80MOL    C7044468   7.197   7.933   6.936  0.3934  0.0814  0.6892
   80MOL    C7144469   7.266   7.857   6.837  0.3213 -0.3130 -0.5285
   80MOL    O7244470   7.370   7.630   6.693  0.0282  0.5688 -0.3915
   80MOL    C7344471   7.624   7.518   6.621 -0.3303 -0.3604 -0.7183
   80MOL    C7444472   7.730   7.456   6.552  1.0601 -0.4038  0.2095
   80MOL    O7544473   7.992   7.391   6.429  0.0358 -0.2347 -0.1361
   80MOL    H7644474   7.770   7.699   6.311  0.2734 -1.8990 -0.2667
   80MOL    H7744475   7.596   7.798   6.416 -0.4022 -0.6690 -1.7122
   80MOL    H7844476   7.552   7.876   6.653  1.0961 -0.7131 -0.5716
   80MOL    H7944477   7.550   8.044   6.795  0.9180 -0.2764  0.5614
   80MOL    H8044478   7.452   0.029   6.971 -0.1733  1.3470 -2.3026
   80MOL    H8144479   7.217   0.086   7.083  0.5211 -0.1856 -1.1624
   80MOL    H8244480   7.098   7.903   6.966  0.4952  0.1538  1.1080
   80MOL    H8344481   7.213   7.769   6.803 -0.0482 -0.1170 -0.4501
   80MOL    H8444482   7.589   7.460   6.704  1.3804 -1.4264 -0.7144
   80MOL    H8544483   7.774   7.362   6.580 -0.6776 -0.5278  2.7355
   80MOL    C8644484   7.152   8.091   7.205 -0.7856  0.0034  0.3226
   80MOL    C8744485   7.118   0.052   7.301 -0.9804  0.4601  1.0394
   80MOL    C8844486   7.121   0.193   7.256 -0.4956  0.6355  0.4708
   80MOL    C8944487   7.111   0.297   7.345 -0.0364 -0.1493 -0.8446
   80MOL    C9044488   7.082   0.267   7.484  0.0706  0.7169  0.2551
   80MOL    C9144489   7.088   0.375   7.585  0.2660  0.7647 -0.1015
   80MOL    N9244490   7.032   0.483   7.540  0.2008 -0.4633  0.2189
   80MOL    C9344491   7.071   0.615   7.579 -0.2557 -0.1397  0.1751
   80MOL    C9444492   7.093   0.713   7.474  0.5371  0.1705 -0.0426
   80MOL    C9544493   7.114   0.844   7.505  0.2424  0.5766 -0.7121
   80MOL    C9644494   7.105   0.883   7.636  0.0836 -0.2413 -0.2306
   80MOL    N9744495   7.140   1.014   7.661 -0.2562  0.7742 -0.6587
   80MOL    C9844496   7.080   0.794   7.739 -0.5352 -0.6779  0.0656
   80MOL    C9944497   7.062   0.656   7.715 -0.3980 -0.7433  0.7371
   80MOL   O10044498   7.138   0.361   7.699  0.4200  0.5139 -0.4095
   80MOL   C10144499   7.068   0.134   7.524 -0.2089 -0.0296  0.6169
   80MOL   C10244500   7.099   0.027   7.436  0.5965 -0.0905  0.2696
   80MOL   O10344501   7.135   7.972   7.237 -0.1361 -0.1587 -0.1493
   80MOL   H10444502   7.117   0.216   7.150 -0.3056  1.4923  0.6473
   80MOL   H10544503   7.131   0.398   7.310  0.2743 -0.1033 -0.5422
   80MOL   H10644504   6.993   0.479   7.447  0.5687  1.7309 -0.0606
   80MOL   H10744505   7.096   0.681   7.370 -1.2882 -1.0199  0.2449
   80MOL   H10844506   7.128   0.922   7.432 -0.0114 -1.7797 -3.4060
   80MOL   H10944507   7.219   1.048   7.608 -0.3993  0.3067 -1.1682
   80MOL   H11044508   7.077   0.827   7.842 -0.9435 -2.4609  0.6400
   80MOL   H11144509   7.030   0.588   7.792  2.4420 -2.9689  0.0505
   80MOL   H11244510   7.056   0.112   7.629  0.8437  0.9116  0.9425
   80MOL   H11344511   7.102   8.069   7.467  1.6910 -0.0283  0.3830
   80MOL   C11444512   7.097   1.095   7.760 -0.8367 -0.0903  0.3749
   80MOL   C11544513   7.146   1.235   7.756  0.3034  0.1558 -0.5804
   80MOL   C11644514   7.253   1.264   7.672 -0.1152 -0.3042 -0.6342
   80MOL   C11744515   7.312   1.397   7.674  0.0110 -0.3149  0.0607
   80MOL   C11844516   7.261   1.494   7.764 -0.1901 -0.2435  0.2256
   80MOL   C11944517   7.313   1.633   7.748  0.0359  0.4493 -0.4503
   80MOL   N12044518   7.226   1.734   7.774  0.2107 -1.2872  0.4138
   80MOL   C12144519   7.263   1.869   7.780 -0.4866 -0.1809  0.6604
   80MOL   C12244520   7.171   1.969   7.748 -0.2174  0.5717  0.9612
   80MOL   C12344521   7.210   2.099   7.736 -0.6790 -0.2636  0.1110
   80MOL   C12444522   7.344   2.131   7.746  0.1922 -0.5060  0.8934
   80MOL   N12544523   7.397   2.250   7.694 -0.5387  0.8381 -0.4026
   80MOL   C12644524   7.431   2.037   7.799  0.3820 -0.6128  0.0886
   80MOL   C12744525   7.389   1.909   7.814 -0.1699  0.0716  0.5955
   80MOL   O12844526   7.427   1.654   7.709  0.5359 -0.2084  0.3012
   80MOL   C12944527   7.153   1.459   7.850  0.0213 -0.6825 -0.5200
   80MOL   C13044528   7.100   1.331   7.848  0.0994 -0.1859  0.2926
   80MOL   O13144529   7.002   1.067   7.836 -0.0163 -0.3765 -0.1873
   80MOL   H13244530   7.306   1.204   7.600  0.4755  1.7721 -1.9844
   80MOL   H13344531   7.394   1.418   7.608 -0.5519 -0.4931 -0.7093
   80MOL   H13444532   7.127   1.715   7.773  0.0460 -0.4348 -0.1088
   80MOL   H13544533   7.071   1.929   7.731  0.1853 -0.2680  0.5176
   80MOL   H13644534   7.143   2.169   7.689 -0.0906 -0.0372 -0.3952
   80MOL   H13744535   7.498   2.254   7.686 -0.3709 -0.8184  0.7562
   80MOL   H13844536   7.533   2.061   7.826  0.8212 -1.0439 -1.1459
   80MOL   H13944537   7.461   1.840   7.855  0.0924  0.1663  0.2914
   80MOL   H14044538   7.123   1.537   7.919 -1.0135 -0.0063 -1.7073
   80MOL   H14144539   7.025   1.303   7.920 -1.2138 -3.8555 -2.3336
   80MOL   C14244540   7.342   2.343   7.608  0.4069 -0.1811 -0.3492
   80MOL   C14344541   7.445   2.408   7.532 -0.1975 -0.5987  0.1347
   80MOL   C14444542   7.411   2.528   7.469 -0.5679 -0.7272  0.3647
   80MOL   C14544543   7.497   2.585   7.376  0.2058  0.0248  1.3785
   80MOL   C14644544   7.617   2.525   7.335 -0.5272 -0.3702 -0.2967
   80MOL   C14744545   7.703   2.585   7.233  0.3181  0.0245  0.0393
   80MOL   N14844546   7.720   2.501   7.129  0.4333  0.0025  0.4124
   80MOL   C14944547   7.817   2.498   7.029 -0.1198 -0.2809  0.2367
   80MOL   C15044548   7.851   2.371   6.996 -0.1932 -0.1080  0.4375
   80MOL   C15144549   7.935   2.347   6.886  0.2912 -0.0636 -0.0221
   80MOL   C15244550   7.994   2.455   6.817 -0.0653 -0.0835 -0.0952
   80MOL   N15344551   8.089   2.434   6.712 -0.0456 -0.8928 -0.5003
   80MOL   C15444552   7.966   2.592   6.859  0.8045  0.2381 -0.4110
   80MOL   C15544553   7.873   2.608   6.962  0.2228 -0.0042 -0.8883
   80MOL   O15644554   7.743   2.701   7.243 -0.4445 -0.2556 -0.3057
   80MOL   C15744555   7.645   2.398   7.390  0.9520  0.7256  0.2388
   80MOL   C15844556   7.559   2.333   7.482 -0.2001  0.0967  0.5768
   80MOL   O15944557   7.226   2.397   7.619  0.7452  0.3116  0.3799
   80MOL   H16044558   7.318   2.581   7.484  1.5923  2.8403  1.6015
   80MOL   H16144559   7.479   2.676   7.320 -0.3470 -1.0619 -0.2576
   80MOL   H16244560   7.680   2.409   7.136  2.2122 -0.8497 -0.3915
   80MOL   H16344561   7.813   2.284   7.047 -1.9149  0.4449  0.1095
   80MOL   H16444562   7.954   2.246   6.853  0.9208 -0.0731  0.3650
   80MOL   H16544563   8.113   2.519   6.663 -1.6122 -0.0703  0.1409
   80MOL   H16644564   8.015   2.675   6.812 -0.1370  2.2222  1.9926
   80MOL   H16744565   7.851   2.707   6.999  1.3925 -0.3413  0.7745
   80MOL   H16844566   7.727   2.339   7.350  1.3293  2.1612 -1.1640
   80MOL   H16944567   7.584   2.233   7.514  1.1289  0.6405  1.3241
   80MOL   C17044568   0.009   2.321   6.675  0.1619  0.1679  0.0457
   80MOL   C17144569   0.083   2.330   6.540  0.0779 -0.7120 -1.1701
   80MOL   C17244570   0.146   2.213   6.489  0.0755 -0.3309  0.1619
   80MOL   C17344571   0.180   2.204   6.352 -0.6699 -0.2614 -0.4277
   80MOL   C17444572   0.158   2.315   6.268 -0.3320  0.1548  0.3999
   80MOL   C17544573   0.189   2.303   6.118  0.4831 -1.0549 -0.9028
   80MOL   N17644574   0.251   2.411   6.076  0.3363 -1.0304 -0.3832
   80MOL   C17744575   0.282   2.457   5.949 -0.0281 -0.5141  0.3858
   80MOL   C17844576   0.340   2.586   5.944 -0.0677  0.3478 -0.4228
   80MOL   C17944577   0.361   2.654   5.822  0.0709  0.0239  0.4883
   80MOL   C18044578   0.336   2.588   5.696 -0.5111  0.2258  0.9592
   80MOL   N18144579   0.350   2.647   5.575  0.0579  0.3537  0.5714
   80MOL   C18244580   0.298   2.451   5.700 -0.3076 -0.1748 -0.3798
   80MOL   C18344581   0.265   2.386   5.825 -0.2196  0.3692 -0.7565
   80MOL   O18444582   0.159   2.208   6.047 -0.0017 -0.2532 -0.2778
   80MOL   C18544583   0.104   2.432   6.320 -1.0229 -0.1779 -0.1224
   80MOL   C18644584   0.060   2.442   6.456  0.7627 -0.5074  0.6698
   80MOL   O18744585   0.008   2.214   6.737 -0.0155  0.5276 -0.0361
   80MOL   H18844586   0.168   2.132   6.558  1.2235 -0.0998  0.0772
   80MOL   H18944587   0.230   2.116   6.314 -2.3813 -1.5017  0.1434
   80MOL   H19044588   0.269   2.475   6.151  0.2648  0.4839 -1.6171
   80MOL   H19144589   0.347   2.650   6.030 -1.3862 -1.4103  1.0172
   80MOL   H19244590   0.410   2.750   5.830 -1.1541  0.6632  0.4378
   80MOL   H19344591   0.319   2.596   5.493  0.5060  0.8363  0.0992
   80MOL   H19444592   0.286   2.387   5.614  2.4743  1.4810 -2.0814
   80MOL   H19544593   0.234   2.283   5.822  1.6772 -0.2533  0.5570
   80MOL   H19644594   0.075   2.506   6.247 -0.8401 -0.8378 -0.8673
   80MOL   H19744595   0.002   2.530   6.480 -1.7001 -1.3788 -1.8220
   80MOL   C19844596   0.386   2.771   5.540  0.1073 -1.0730  0.5037
   80MOL   C19944597   0.360   2.794   5.392 -0.2503 -0.0262  0.0663
   80MOL   C20044598   0.287   2.700   5.316 -0.4850  0.5518  0.6005
   80MOL   C20144599   0.271   2.719   5.179 -0.2305 -0.3480  0.1102
   80MOL   C20244600   0.323   2.835   5.111 -0.4612  0.3818  0.0936
   80MOL   C20344601   0.312   2.849   4.961  0.3097 -0.1454  0.7883
   80MOL   N20444602   0.279   2.972   4.918  0.3922  0.3020 -0.3215
   80MOL   C20544603   0.229   3.075   4.998  0.2472 -0.6395 -0.3752
   80MOL   C20644604   0.261   3.203   4.965 -0.7612 -0.2254  0.2457
   80MOL   C20744605   0.208   3.313   5.044 -0.7170  0.0561 -0.3951
   80MOL   C20844606   0.129   3.291   5.158  0.9038  0.1148 -0.0484
   80MOL   N20944607   0.084   3.402   5.240 -0.5001  0.0748 -0.2309
   80MOL   C21044608   0.101   3.160   5.189 -0.8904 -0.4845  0.0833
   80MOL   C21144609   0.134   3.049   5.103 -0.5287 -0.6824  0.4755
   80MOL   O21244610   0.303   2.748   4.889  0.5198 -0.7164  0.2374
   80MOL   C21344611   0.406   2.926   5.187  0.6275 -0.3407  0.4123
   80MOL   C21444612   0.413   2.909   5.329 -0.1292 -0.4884  0.0878
   80MOL   O21544613   0.451   2.851   5.607 -0.3823 -0.6976  0.6677
   80MOL   H21644614   0.225   2.623   5.361 -0.6052 -0.2986 -0.9849
   80MOL   H21744615   0.218   2.645   5.122 -1.4124  1.2401 -0.9154
   80MOL   H21844616   0.263   2.971   4.818  0.5607  0.9532 -0.3576
   80MOL   H21944617   0.327   3.214   4.880 -1.3125  0.0066 -0.1549
   80MOL   H22044618   0.230   3.415   5.016 -0.0912  0.7795  2.5475
   80MOL   H22144619   0.098   3.393   5.340  1.0114  0.8680 -0.3495
   80MOL   H22244620   0.032   3.138   5.268 -2.6638 -0.4046 -1.4008
   80MOL   H22344621   0.104   2.947   5.121  1.6804 -1.1932  1.4648
   80MOL   H22444622   0.456   3.006   5.136  0.6342 -0.0175  0.9159
   80MOL   H22544623   0.463   2.984   5.389 -1.5979  0.0424  0.6639
   80MOL   C22644624   0.032   3.515   5.188  0.1311  0.3632 -0.3235
   80MOL   C22744625   8.118   3.604   5.297 -0.1912 -0.3364  0.0271
   80MOL   C22844626   0.015   3.738   5.309  0.4713  0.0570  0.3195
   80MOL   C22944627   8.114   3.816   5.415 -0.3164  0.1878 -0.2147
   80MOL   C23044628   8.028   3.765   5.502 -0.0160  0.8402  0.3070
   80MOL   C23144629   7.983   3.845   5.619 -0.5513 -0.0763 -0.2140
   80MOL   N23244630   7.962   3.976   5.592  0.3437  0.1261 -0.1245
   80MOL   C23344631   7.925   4.074   5.684 -0.5657  0.1921  0.6635
   80MOL   C23444632   7.985   4.073   5.815  0.6680  0.0410  0.4981
   80MOL   C23544633   7.949   4.166   5.910  0.9751  0.1920 -0.0077
   80MOL   C23644634   7.847   4.258   5.882  0.8243  0.3408 -0.1248
   80MOL   N23744635   7.784   4.337   5.972  0.8845  0.3850  0.1035
   80MOL   C23844636   7.793   4.262   5.748 -0.0887 -0.0069 -0.7698
   80MOL   C23944637   7.836   4.173   5.649  0.2126 -0.3623  0.1606
   80MOL   O24044638   7.957   3.789   5.722  0.5332  0.3659  0.0211
   80MOL   C24144639   7.982   3.636   5.486 -0.3550 -0.2949  0.3925
   80MOL   C24244640   8.019   3.553   5.382  0.2643 -0.0192 -0.1360
   80MOL   O24344641   0.017   3.547   5.071 -0.4220 -0.1809  0.3101
   80MOL   H24444642   0.087   3.779   5.240 -1.4162 -0.9303 -2.2966
   80MOL   H24544643   8.141   3.920   5.427  0.7645 -0.4105  2.9000
   80MOL   H24644644   7.979   4.017   5.501 -0.9026 -0.4676 -0.6363
   80MOL   H24744645   8.068   4.005   5.826  0.7520 -0.4252 -2.4239
   80MOL   H24844646   8.005   4.163   6.002 -1.0174 -2.4174  1.1900
   80MOL   H24944647   7.739   4.423   5.944 -0.5872 -0.6472 -0.7075
   80MOL   H25044648   7.712   4.330   5.729  0.2792  0.8830  0.7527
   80MOL   H25144649   7.793   4.171   5.550  0.7537 -1.0399 -0.0682
   80MOL   H25244650   7.916   3.589   5.558 -0.2099  0.1228  0.7988
   80MOL   H25344651   7.984   3.452   5.370  0.6433 -0.2284  0.5180
   80MOL   C25444652   7.776   4.310   6.104 -0.6639 -0.5254  0.3397
   80MOL   C25544653   7.681   4.398   6.182  0.8894  0.7897 -0.2725
   80MOL   C25644654   7.702   4.426   6.322 -0.1908 -0.4378  0.4140
   80MOL   C25744655   7.611   4.505   6.391  0.6908  0.4061 -0.0602
   80MOL   C25844656   7.498   4.565   6.328 -0.4753 -0.1216  0.5009
   80MOL   C25944657   7.402   4.651   6.406  0.6369 -0.1528 -0.0808
   80MOL   N26044658   7.313   4.723   6.338  0.0599  0.6968 -0.2921
   80MOL   C26144659   7.223   4.816   6.389 -0.0802 -0.6598  0.1788
   80MOL   C26244660   7.175   4.912   6.297  0.7633  0.9096  0.4412
   80MOL   C26344661   7.077   5.011   6.338  0.2785  0.2374  0.4401
   80MOL   C26444662   7.018   5.009   6.464  1.0321  0.2057 -0.3823
   80MOL   N26544663   6.914   5.102   6.492 -0.3168 -0.6043 -0.4269
   80MOL   C26644664   7.071   4.915   6.556  0.3679 -0.3943 -0.3475
   80MOL   C26744665   7.165   4.817   6.521  0.2238  0.2549 -0.4664
   80MOL   O26844666   7.423   4.666   6.529 -0.3319  0.1729  0.8963
   80MOL   C26944667   7.478   4.540   6.189 -0.2924  0.4594  0.0061
   80MOL   C27044668   7.569   4.456   6.119  0.0991 -0.3862  0.5722
   80MOL   O27144669   7.844   4.230   6.172  0.4174 -0.3011  0.6070
   80MOL   H27244670   7.790   4.389   6.371  1.5769 -1.0192 -3.0786
   80MOL   H27344671   7.620   4.519   6.497  0.6828 -2.6882  0.3862
   80MOL   H27444672   7.314   4.710   6.238 -0.5881  0.8452 -0.3244
   80MOL   H27544673   7.215   4.925   6.197 -0.3519 -0.2526 -0.1643
   80MOL   H27644674   7.047   5.086   6.266 -0.3056 -1.9357 -1.6379
   80MOL   H27744675   6.888   5.158   6.412 -1.0719  0.7041  0.7146
   80MOL   H27844676   7.026   4.903   6.654  0.1436 -0.9917 -0.5228
   80MOL   H27944677   7.175   4.727   6.581 -0.7237  0.6561  0.3014
   80MOL   H28044678   7.403   4.577   6.120  0.7136  0.8771 -0.8742
   80MOL   H28144679   7.549   4.443   6.014  1.4492  0.8918  0.1275
   80MOL   C28244680   6.859   5.150   6.606  0.7310  0.4714 -0.1256
   80MOL   C28344681   6.778   5.278   6.592 -0.0929 -0.2079  0.0283
   80MOL   C28444682   6.663   5.307   6.670 -0.0963  0.2741 -0.0511
   80MOL   C28544683   6.597   5.433   6.654  0.4875 -0.3660  1.2089
   80MOL   C28644684   6.633   5.524   6.546  0.2081  0.0942 -0.4907
   80MOL   C28744685   6.556   5.649   6.534 -0.4359  0.4346  0.4843
   80MOL   N28844686   6.627   5.761   6.537  1.0311  0.2979 -0.3986
   80MOL   C28944687   6.608   5.880   6.455 -0.3330  0.0384 -0.6391
   80MOL   C29044688   6.662   5.998   6.510 -0.4813  0.1190 -0.3918
   80MOL   C29144689   6.656   6.113   6.432  0.0935  0.4369 -0.3963
   80MOL   C29244690   6.623   6.101   6.298  0.5617  0.5614  0.1344
   80MOL   N29344691   6.639   6.209   6.210 -0.2659 -0.4387  0.0940
   80MOL   C29444692   6.561   5.986   6.248 -0.4402 -0.5936  0.0449
   80MOL   C29544693   6.555   5.873   6.328 -0.6790 -0.6292  0.4198
   80MOL   O29644694   6.437   5.649   6.515 -0.0087 -0.1299  0.7787
   80MOL   C29744695   6.743   5.493   6.471  0.5141  0.8513 -0.2992
   80MOL   C29844696   6.812   5.370   6.493 -0.2021 -0.2837 -0.3158
   80MOL   O29944697   6.868   5.098   6.715  0.3835 -0.4289  0.1758
   80MOL   H30044698   6.623   5.233   6.738 -2.6128  1.0411 -0.6549
   80MOL   H30144699   6.510   5.466   6.709  0.4587 -0.8561  1.4500
   80MOL   H30244700   6.712   5.753   6.592  0.6624  1.2235  0.3169
   80MOL   H30344701   6.676   6.011   6.616 -4.1260  4.0960 -0.2601
   80MOL   H30444702   6.678   6.210   6.475 -1.8041  1.3794 -1.4638
   80MOL   H30544703   6.570   6.283   6.207  0.8984  0.6598  0.2016
   80MOL   H30644704   6.527   5.985   6.146 -0.3798  0.6161  0.0105
   80MOL   H30744705   6.512   5.788   6.277 -1.9998 -0.4626  1.2436
   80MOL   H30844706   6.781   5.555   6.392 -1.9388  1.5987 -0.9133
   80MOL   H30944707   6.893   5.339   6.430 -0.1957 -2.4867  0.7247
   80MOL   C31044708   6.743   6.239   6.128  0.2873 -0.0135 -0.0763
   80MOL   C31144709   6.863   6.146   6.130 -0.0645  0.3799  0.1845
   80MOL   C31244710   6.930   6.112   6.251  0.9137  0.9760  0.5097
   80MOL   C31344711   7.037   6.014   6.256  0.0655 -0.7679  0.4679
   80MOL   C31444712   7.080   5.955   6.131  0.0439  0.0584  0.1050
   80MOL   C31544713   7.182   5.845   6.129  0.9829  0.4645  0.8774
   80MOL   N31644714   7.130   5.720   6.118  0.4785  0.4581 -0.2254
   80MOL   C31744715   7.203   5.602   6.089 -0.6094 -0.3399 -0.8670
   80MOL   C31844716   7.313   5.607   5.999  0.1002 -0.9924 -0.0422
   80MOL   C31944717   7.368   5.486   5.958  0.5564  0.0491  0.1186
   80MOL   C32044718   7.327   5.359   6.013  0.1177 -0.3013 -0.7616
   80MOL   N32144719   7.405   5.245   5.974  0.9677  0.1346  0.6030
   80MOL   C32244720   7.222   5.360   6.113  0.3112  0.7841 -0.0744
   80MOL   C32344721   7.158   5.480   6.138 -0.0110 -0.6278 -0.1904
   80MOL   O32444722   7.301   5.863   6.153  0.2210 -0.0133 -0.1356
   80MOL   C32544723   7.019   5.997   6.011  0.1876  0.1830  0.0761
   80MOL   C32644724   6.914   6.098   6.009 -0.1545  0.4981  0.8431
   80MOL   O32744725   6.738   6.323   6.038 -0.1653 -0.1684  0.2202
   80MOL   H32844726   6.885   6.153   6.339 -1.0464  0.6354 -0.3067
   80MOL   H32944727   7.086   5.994   6.350 -1.3627 -2.6725  0.8301
   80MOL   H33044728   7.031   5.717   6.098  0.5634 -0.6518 -0.5059
   80MOL   H33144729   7.337   5.703   5.956  0.0329 -0.6705  0.6369
   80MOL   H33244730   7.456   5.487   5.897  1.5280 -4.1614  1.2911
   80MOL   H33344731   7.459   5.262   5.890  1.9003 -1.2266  0.9192
   80MOL   H33444732   7.190   5.272   6.168 -0.3427  0.0853 -1.5373
   80MOL   H33544733   7.077   5.481   6.209  1.8705  2.6948  2.0664
   80MOL   H33644734   7.057   5.946   5.924  1.5616 -0.2137  0.8968
   80MOL   H33744735   6.879   6.129   5.912  0.2567 -0.4900  0.3721
   80MOL   C33844736   7.409   5.119   6.021  0.2596  0.4053  1.4940
   80MOL   C33944737   7.510   5.017   5.959 -0.4157  0.0798  0.3376
   80MOL   C34044738   7.545   5.011   5.821  0.8251  0.4501 -0.4342
   80MOL   C34144739   7.641   4.915   5.782  1.2701  0.0083 -0.5421
   80MOL   C34244740   7.695   4.822   5.874  0.0289 -0.2472  0.1453
   80MOL   C34344741   7.759   4.702   5.827 -0.4420 -0.1406 -0.2519
   80MOL   N34444742   7.862   4.727   5.743 -0.1948 -0.0342 -0.0734
   80MOL   C34544743   7.931   4.644   5.656  0.1831  0.1343  0.2133
   80MOL   C34644744   7.970   4.512   5.690  0.2051  0.5351  0.4356
   80MOL   C34744745   8.026   4.425   5.596  0.3915  0.0381  0.1067
   80MOL   C34844746   8.048   4.471   5.466  0.4991 -0.3206  0.0446
   80MOL   N34944747   8.111   4.398   5.365 -0.2322  0.4286 -0.2339
   80MOL   C35044748   8.009   4.603   5.429 -0.1555  0.1842 -0.2751
   80MOL   C35144749   7.950   4.684   5.524  0.3769  0.0957  0.4365
   80MOL   O35244750   7.738   4.589   5.867  0.0786 -0.0489 -0.2599
   80MOL   C35344751   7.666   4.843   6.012 -0.5885 -0.3345 -0.5693
   80MOL   C35444752   7.576   4.934   6.057 -0.6779 -0.1938  0.2892
   80MOL   O35544753   7.361   5.091   6.127 -0.4427 -0.4428 -0.0993
   80MOL   H35644754   7.495   5.077   5.751 -1.8937 -1.6252 -0.5323
   80MOL   H35744755   7.657   4.902   5.676  3.3381  1.5265 -0.4513
   80MOL   H35844756   7.868   4.827   5.727  1.5580  0.0267  0.8467
   80MOL   H35944757   7.954   4.476   5.790  1.3060 -0.1636  0.3566
   80MOL   H36044758   8.057   4.326   5.628  0.3010 -0.8498 -2.4444
   80MOL   H36144759   0.007   4.448   5.287  1.2184 -0.0813  0.1976
   80MOL   H36244760   8.032   4.639   5.330  0.0478  0.8041 -0.0050
   80MOL   H36344761   7.927   4.786   5.497  0.9311  1.3766  4.5204
   80MOL   H36444762   7.717   4.778   6.083 -3.6841 -0.2220  1.8756
   80MOL   H36544763   7.557   4.923   6.163  1.3455 -0.1087  0.6707
   80MOL   C36644764   8.123   4.267   5.343 -0.7329  0.0371 -0.0484
   80MOL   C36744765   0.057   4.228   5.218  0.7284  0.4307 -0.2330
   80MOL   C36844766   0.082   4.315   5.113  0.0155  0.0404  0.4306
   80MOL   C36944767   0.165   4.281   5.003 -0.6154  0.4347  0.0047
   80MOL   C37044768   0.219   4.154   4.994 -0.1498 -1.1167  0.2613
   80MOL   C37144769   0.298   4.112   4.876  0.2794 -0.5094 -0.4843
   80MOL   N37244770   0.301   3.984   4.848  0.0803 -0.5073 -0.5304
   80MOL   C37344771   0.343   3.906   4.735 -0.0326 -0.1913 -0.0273
   80MOL   C37444772   0.424   3.959   4.632 -0.2327 -0.8791  0.3766
   80MOL   C37544773   0.458   3.882   4.524  0.1444  0.5105 -0.1535
   80MOL   C37644774   0.410   3.749   4.516 -0.4730 -0.4367  0.1266
   80MOL   N37744775   0.458   3.673   4.406 -0.0713  0.2035 -0.0329
   80MOL   C37844776   0.330   3.694   4.615 -0.6429 -0.1872  0.3176
   80MOL   C37944777   0.299   3.770   4.736 -0.1890  0.3734 -0.1617
   80MOL   O38044778   0.343   4.205   4.805  0.4870 -0.4927 -1.1254
   80MOL   C38144779   0.194   4.062   5.098  0.3719 -1.0148 -0.1685
   80MOL   C38244780   0.117   4.102   5.209 -0.1821  0.4090 -0.1138
   80MOL   O38344781   8.088   4.184   5.429  0.0328  0.4703 -0.3787
   80MOL   H38444782   0.032   4.411   5.109 -0.1116 -0.1012 -1.9602
   80MOL   H38544783   0.173   4.352   4.921  2.1256 -1.0089 -1.0433
   80MOL   H38644784   0.248   3.932   4.917 -0.0961 -0.6165 -0.7493
   80MOL   H38744785   0.468   4.058   4.630 -1.3050 -0.4020 -0.2260
   80MOL   H38844786   0.534   3.905   4.451 -0.0253  0.0306 -0.4831
   80MOL   H38944787   0.501   3.729   4.334 -0.1707  0.8154  0.3881
   80MOL   H39044788   0.286   3.596   4.606  0.0762 -0.4566 -0.2943
   80MOL   H39144789   0.232   3.725   4.807  1.0692 -0.8916  0.2555
   80MOL   H39244790   0.233   3.961   5.094  2.0641 -0.3411 -1.1607
   80MOL   H39344791   0.108   4.037   5.295 -1.5336 -0.3675 -0.8283
   80MOL   C39444792   0.480   3.542   4.395 -0.1910  0.2391 -0.5874
   80MOL   C39544793   0.554   3.502   4.271  0.1134 -0.0615 -0.7951
   80MOL   C39644794   0.535   3.560   4.146  0.3326  0.2883 -0.0519
   80MOL   C39744795   0.607   3.509   4.037 -0.4263  0.9429  0.2568
   80MOL   C39844796   0.709   3.408   4.048  0.1384  0.5832 -0.1801
   80MOL   C39944797   0.786   3.370   3.925  0.0084  0.8461 -0.3178
   80MOL   N40044798   0.735   3.392   3.802 -0.4293 -0.1321  0.0011
   80MOL   C40144799   0.794   3.375   3.674  0.9355  0.1836 -0.3186
   80MOL   C40244800   0.936   3.368   3.643 -0.5796  0.7082 -0.0080
   80MOL   C40344801   0.979   3.374   3.509 -0.7071 -0.5265  0.4664
   80MOL   C40444802   0.890   3.406   3.407  0.0319  0.1971 -0.5969
   80MOL   N40544803   0.944   3.442   3.278 -0.3514 -0.0028 -0.3028
   80MOL   C40644804   0.752   3.395   3.431  0.1007 -0.3075 -0.1652
   80MOL   C40744805   0.700   3.382   3.559  0.0023  0.0988 -0.1598
   80MOL   O40844806   0.897   3.310   3.944  0.2553  0.2698  0.1207
   80MOL   C40944807   0.737   3.363   4.179  0.1225 -0.8335 -0.8151
   80MOL   C41044808   0.657   3.411   4.287 -0.6897 -0.7171 -0.4526
   80MOL   O41144809   0.450   3.452   4.471 -0.3641 -0.0427 -0.5562
   80MOL   H41244810   0.460   3.638   4.138  0.4654  0.3986 -0.2073
   80MOL   H41344811   0.574   3.560   3.948 -3.8266 -0.8273  0.4471
   80MOL   H41444812   0.636   3.413   3.795  0.0288  2.5840  0.9209
   80MOL   H41544813   1.006   3.359   3.725  0.7545 -0.9608 -1.2851
   80MOL   H41644814   1.084   3.372   3.484 -0.5219 -0.0961  1.1987
   80MOL   H41744815   1.027   3.399   3.240  0.4283  0.9100  0.3503
   80MOL   H41844816   0.685   3.413   3.348  0.7780 -0.2457 -0.6998
   80MOL   H41944817   0.594   3.381   3.582 -0.0592  4.7555  0.3165
   80MOL   H42044818   0.810   3.289   4.204  0.5582  0.2561  1.2696
   80MOL   H42144819   0.668   3.357   4.380 -0.1078 -0.8430 -0.5904
   80MOL   C42244820   0.894   3.542   3.204  0.4317  0.9096  0.0247
   80MOL   C42344821   0.956   3.567   3.069  0.2296  0.3473  0.1140
   80MOL   C42444822   0.882   3.616   2.960  0.4298 -0.2349  0.4954
   80MOL   C42544823   0.936   3.660   2.841  0.0118  0.5450 -0.2298
   80MOL   C42644824   1.074   3.641   2.825  0.1185 -0.0546  0.1079
   80MOL   C42744825   1.140   3.676   2.691  0.9382 -0.1048  0.2232
   80MOL   N42844826   1.077   3.769   2.617  0.5872 -0.2524  0.0052
   80MOL   C42944827   1.114   3.810   2.484 -0.5498 -0.2068  0.3071
   80MOL   C43044828   1.062   3.937   2.443 -0.2754  0.6949 -1.0874
   80MOL   C43144829   1.075   3.981   2.314 -0.0759 -0.4622 -0.3097
   80MOL   C43244830   1.125   3.900   2.214  1.1376  0.3769 -0.1400
   80MOL   N43344831   1.127   3.941   2.075 -0.0942 -0.4105 -0.8858
   80MOL   C43444832   1.179   3.776   2.250 -0.9201  0.4791 -0.8255
   80MOL   C43544833   1.180   3.735   2.384  0.9071 -0.0546  0.3414
   80MOL   O43644834   1.235   3.614   2.655  0.1400 -0.1469 -0.0652
   80MOL   C43744835   1.159   3.583   2.927 -0.1301 -0.5479  0.5623
   80MOL   C43844836   1.094   3.556   3.052 -0.2570 -0.2344 -0.3013
   80MOL   O43944837   0.806   3.618   3.243 -0.1080 -0.0670 -0.4203
   80MOL   H44044838   0.775   3.622   2.974  0.3788 -1.0686  0.4968
   80MOL   H44144839   0.876   3.684   2.754  2.1573  2.4456 -1.2593
   80MOL   H44244840   1.022   3.830   2.676  2.0007  1.5635 -0.5020
   80MOL   H44344841   1.022   4.004   2.518 -0.4246 -0.9832  0.3589
   80MOL   H44444842   1.029   4.074   2.284 -2.4042 -1.8022 -1.0239
   80MOL   H44544843   1.158   3.866   2.014  1.2615 -0.5878  0.0021
   80MOL   H44644844   1.217   3.712   2.172  0.5844 -0.3847  0.5809
   80MOL   H44744845   1.238   3.646   2.407  0.1861 -0.4076  0.7967
   80MOL   H44844846   1.266   3.576   2.921 -0.0808  0.4914  0.0858
   80MOL   H44944847   1.158   3.529   3.135 -0.3738 -1.6744 -0.6698
   80MOL   C45044848   1.096   4.061   2.019  0.3329  0.3291  0.3551
   80MOL   C45144849   1.152   4.082   1.879  0.5736  0.2092 -0.5667
   80MOL   C45244850   1.240   3.998   1.814  0.5717  0.0151  0.2785
   80MOL   C45344851   1.283   4.030   1.679 -0.6122  0.3971 -0.7991
   80MOL   C45444852   1.246   4.147   1.606  0.0187  0.6027  0.1183
   80MOL   C45544853   1.303   4.176   1.470 -0.3489 -0.0079  0.2694
   80MOL   N45644854   1.266   4.293   1.424 -0.0136 -0.6841  0.2534
   80MOL   C45744855   1.313   4.341   1.307  0.3224  0.2308  0.3706
   80MOL   C45844856   1.329   4.266   1.185  0.3357 -0.0170  1.0384
   80MOL   C45944857   1.373   4.322   1.067  0.0648 -0.0888  0.2347
   80MOL   C46044858   1.412   4.458   1.069 -0.1651  0.3197  0.2280
   80MOL   N46144859   1.463   4.507   0.947 -0.0209  0.8136 -0.1489
   80MOL   C46244860   1.380   4.537   1.182  0.7773 -0.1268 -1.2400
   80MOL   C46344861   1.334   4.482   1.302  0.1366  0.2162 -0.3417
   80MOL   O46444862   1.381   4.093   1.417 -0.3957  0.5239 -0.0761
   80MOL   C46544863   1.142   4.218   1.668  0.6430 -0.5426 -0.0377
   80MOL   C46644864   1.103   4.190   1.805 -0.0333  0.4995  0.8154
   80MOL   O46744865   1.050   4.163   2.077  0.1412 -0.6240  0.0624
   80MOL   H46844866   1.287   3.912   1.860 -0.9057 -1.5244 -0.9843
   80MOL   H46944867   1.366   3.972   1.640 -0.3782  1.5163 -1.9736
   80MOL   H47044868   1.217   4.358   1.483 -1.5548 -1.9085  0.3821
   80MOL   H47144869   1.306   4.161   1.177 -0.7596  0.4545 -2.6404
   80MOL   H47244870   1.396   4.262   0.980 -2.1966 -0.5353 -0.0904
   80MOL   H47344871   1.436   4.453   0.867  0.1323  0.4179  0.0648
   80MOL   H47444872   1.403   4.642   1.174 -0.1918  0.4333  2.6022
   80MOL   H47544873   1.313   4.541   1.390  1.7573  0.1242  0.1078
   80MOL   H47644874   1.100   4.308   1.624  0.5000 -0.6387 -0.0990
   80MOL   H47744875   1.042   4.257   1.863  0.6276  0.3485  1.6979
   80MOL   C47844876   1.560   4.594   0.929  0.3701 -0.1858  0.1429
   80MOL   C47944877   1.610   4.608   0.790 -0.0272 -0.1654  0.3083
   80MOL   C48044878   1.592   4.505   0.696  0.0089  0.0659  0.2336
   80MOL   C48144879   1.629   4.521   0.561 -0.2946 -0.2553 -0.9731
   80MOL   C48244880   1.684   4.642   0.511 -0.0613 -0.2036 -0.7613
   80MOL   C48344881   1.715   4.659   0.363  0.1336 -0.8123  0.2699
   80MOL   N48444882   1.672   4.775   0.312 -0.9904  0.2383 -0.3148
   80MOL   C48544883   1.659   4.808   0.178  0.2556 -0.4188 -0.4825
   80MOL   C48644884   1.680   4.937   0.130 -0.3293  0.2160  0.8404
   80MOL   C48744885   1.662   4.977   8.134 -0.2935 -0.1881  0.5824
   80MOL   C48844886   1.622   4.880   8.044  0.5821  0.5703 -0.7614
   80MOL   N48944887   1.614   4.913   7.907 -0.1059  0.4003 -0.6183
   80MOL   C49044888   1.617   4.746   8.089 -0.6486  0.1666 -0.3131
   80MOL   C49144889   1.632   4.712   0.079 -0.5929 -0.5486 -0.0886
   80MOL   O49244890   1.781   4.576   0.298  0.3025 -0.1859  0.0870
   80MOL   C49344891   1.719   4.741   0.604  0.7934 -0.7878 -0.9133
   80MOL   C49444892   1.683   4.724   0.741 -0.2229 -0.4150 -0.3901
   80MOL   O49544893   1.607   4.664   1.016 -0.2201  0.1189  0.5887
   80MOL   H49644894   1.555   4.408   0.727 -1.4977 -0.8038 -4.0249
   80MOL   H49744895   1.614   4.446   0.485 -0.0153 -0.4622 -0.8280
   80MOL   H49844896   1.649   4.849   0.377  1.7312  1.5823 -0.8393
   80MOL   H49944897   1.716   5.015   0.194  1.9091  0.4176 -0.6171
   80MOL   H50044898   1.669   5.081   8.107 -1.5913 -0.0602  0.7198
   80MOL   H50144899   1.656   5.004   7.892 -0.4992  1.0185  1.8452
   80MOL   H50244900   1.597   4.663   8.022 -0.9340  0.0439 -0.0745
   80MOL   H50344901   1.622   4.610   0.115 -1.8947 -0.9565 -1.5708
   80MOL   H50444902   1.773   4.829   0.573  1.5921 -0.7257  0.6543
   80MOL   H50544903   1.708   4.798   0.815 -1.3202  1.0260 -1.4390
   80MOL   C50644904   1.528   4.880   7.813 -0.4818  0.2534  0.6295
   80MOL   C50744905   1.438   4.767   7.841 -0.0138  0.6095 -0.7590
   80MOL   C50844906   1.320   4.781   7.919  0.4410  0.2280  0.2716
   80MOL   C50944907   1.254   4.659   7.954 -0.0230 -0.5334 -0.0236
   80MOL   C51044908   1.296   4.541   7.905 -0.1086  0.3491 -0.3427
   80MOL   C51144909   1.216   4.418   7.947  0.6840 -0.4230 -0.2345
   80MOL   N51244910   1.287   4.327   8.021  0.4929  0.1801 -0.3960
   80MOL   C51344911   1.237   4.215   8.089 -0.2910 -0.0112 -0.1313
   80MOL   C51444912   1.158   4.116   8.031  0.1418  0.5619 -0.0250
   80MOL   C51544913   1.111   4.007   8.113 -0.6492 -0.4484 -0.1351
   80MOL   C51644914   1.148   3.996   0.097  0.9526 -0.3472  0.5355
   80MOL   N51744915   1.122   3.892   0.174 -0.0828 -0.0097 -0.1958
   80MOL   C51844916   1.222   4.102   0.155  0.1991  0.8720  0.0914
   80MOL   C51944917   1.262   4.215   0.078 -0.0706  0.0076 -0.2757
   80MOL   O52044918   1.096   4.412   7.922  0.2809 -0.2200 -0.1690
   80MOL   C52144919   1.406   4.533   7.818  0.4846  0.1359 -0.4492
   80MOL   C52244920   1.479   4.645   7.789  0.2281 -0.3872 -0.2974
   80MOL   O52344921   1.511   4.945   7.713  0.1332  0.5036  0.0149
   80MOL   H52444922   1.279   4.873   7.958  2.2407  2.5877 -3.1932
   80MOL   H52544923   1.165   4.667   8.015 -0.0962 -2.0078  0.0653
   80MOL   H52644924   1.378   4.352   8.056  0.9734 -2.1301  0.0875
   80MOL   H52744925   1.116   4.117   7.932 -1.0054 -0.4754  0.4340
   80MOL   H52844926   1.041   3.934   8.077  0.5733 -1.3189 -0.7757
   80MOL   H52944927   1.196   3.846   0.224 -0.8264 -0.1157  0.8172
   80MOL   H53044928   1.251   4.092   0.259  1.0658  0.3805 -0.1896
   80MOL   H53144929   1.321   4.296   0.119 -0.0338  0.2503 -0.8020
   80MOL   H53244930   1.425   4.438   7.771  1.9839  0.9540 -1.5609
   80MOL   H53344931   1.572   4.630   7.736 -0.4106  0.3489 -1.6589
   80MOL   C53444932   1.003   3.842   0.209 -0.5464  0.0597  0.5504
   80MOL   C53544933   1.012   3.737   0.311 -0.5775  0.3670  0.5031
   80MOL   C53644934   0.935   3.747   0.433  0.1496 -0.4013  0.0650
   80MOL   C53744935   0.939   3.643   0.525  0.0558 -0.4799  0.2172
   80MOL   C53844936   1.031   3.543   0.510  1.0567  0.6395  0.2212
   80MOL   C53944937   1.055   3.445   0.622  0.0031  0.3527  0.5072
   80MOL   N54044938   0.955   3.404   0.701  0.4112  0.1508  0.4132
   80MOL   C54144939   0.967   3.317   0.814 -0.8069 -0.3031 -0.7684
   80MOL   C54244940   1.077   3.323   0.906  0.6820  0.1829  0.2950
   80MOL   C54344941   1.088   3.227   1.003  0.1742 -0.0554 -0.5342
   80MOL   C54444942   0.982   3.135   1.033 -0.2548 -0.2350  0.1064
   80MOL   N54544943   0.996   3.038   1.134 -0.3351 -0.7919 -0.4630
   80MOL   C54644944   0.872   3.131   0.946 -0.3321  0.0244  0.4767
   80MOL   C54744945   0.862   3.223   0.837 -0.1140 -0.1780 -0.0778
   80MOL   O54844946   1.171   3.403   0.636 -0.5618 -0.2628 -0.5341
   80MOL   C54944947   1.110   3.528   0.396  0.0762  0.5164 -0.1496
   80MOL   C55044948   1.103   3.625   0.299  0.6431  0.0161 -0.1189
   80MOL   O55144949   0.891   3.886   0.178 -0.2155 -0.3921 -0.1446
   80MOL   H55244950   0.866   3.829   0.438  3.4396  2.6419 -1.9767
   80MOL   H55344951   0.876   3.645   0.613  0.2692 -1.4261  0.3951
   80MOL   H55444952   0.862   3.438   0.680  0.6952  0.9378  0.3915
   80MOL   H55544953   1.157   3.394   0.889  1.9540 -1.2833 -0.0103
   80MOL   H55644954   1.179   3.215   1.060  0.2682  0.8776 -0.4888
   80MOL   H55744955   0.928   2.964   1.149 -0.5659 -0.4189  0.3215
   80MOL   H55844956   0.789   3.062   0.955 -2.1786  2.1766  0.4751
   80MOL   H55944957   0.779   3.222   0.767  0.7111  0.1912 -1.0790
   80MOL   H56044958   1.175   3.444   0.379  0.7736  1.5593 -2.9225
   80MOL   H56144959   1.155   3.626   0.205  0.5075 -0.6497 -0.2024
   80MOL   H56244960   1.062   3.052   1.209  0.7519  1.0694 -1.7488
   81MOL     C144961   2.261   0.447   7.540  0.1085  0.7037  0.1287
   81MOL     C244962   2.303   0.507   7.666  0.6601 -0.2719 -0.2158
   81MOL     C344963   2.434   0.486   7.708 -0.2111  0.1540 -0.5938
   81MOL     C444964   2.478   0.542   7.826  0.3485  0.8392 -0.3255
   81MOL     C544965   2.392   0.630   7.901 -0.0745 -0.1150 -0.4912
   81MOL     C644966   2.437   0.680   8.036 -0.5387 -0.0975 -0.1150
   81MOL     N744967   2.390   0.803   8.069  0.4116  0.2646 -0.1510
   81MOL     C844968   2.413   0.888   0.036 -0.4064 -0.4632  0.9354
   81MOL     C944969   2.330   0.999   0.054  0.2156  0.3664  0.3908
   81MOL    C1044970   2.332   1.072   0.178 -0.1084 -0.3145 -0.1687
   81MOL    C1144971   2.423   1.041   0.277  0.3622  1.0721 -0.7159
   81MOL    N1244972   2.421   1.101   0.405  0.0776 -0.5040  1.0798
   81MOL    C1344973   2.515   0.937   0.259 -0.4939  0.0838  0.3506
   81MOL    C1444974   2.515   0.862   0.133  0.2339  0.1404 -0.3630
   81MOL    O1544975   2.515   0.618   8.108 -0.6945  0.2774  0.5274
   81MOL    C1644976   2.260   0.657   7.854  0.1309 -0.0741 -0.0074
   81MOL    C1744977   2.217   0.597   7.735 -0.4562  0.0700  0.0514
   81MOL    O1844978   2.144   0.459   7.506 -0.5038 -0.6424  0.5590
   81MOL    H1944979   2.497   0.420   7.649  0.1272 -0.4247  0.4040
   81MOL    H2044980   2.575   0.514   7.863  0.1526  0.0990 -0.3796
   81MOL    H2144981   2.331   0.840   7.995 -2.3604  0.6520  2.1849
   81MOL    H2244982   2.250   1.023   8.132  0.0888 -2.8961 -0.7169
   81MOL    H2344983   2.255   1.148   0.189  0.1866 -0.1651  0.8977
   81MOL    H2444984   2.457   1.053   0.486 -0.5200 -0.0824  1.6064
   81MOL    H2544985   2.574   0.896   0.340 -1.2391  0.7254  1.2327
   81MOL    H2644986   2.583   0.779   0.127  1.7127  1.3016  0.0982
   81MOL    H2744987   2.194   0.724   7.908  0.6336  1.6333 -1.4418
   81MOL    H2844988   2.117   0.618   7.701 -1.3857 -0.5264  2.3656
   81MOL    H2944989   2.330   0.385   7.483  0.6675  0.5609  0.9538
   81MOL    C3044990   2.393   1.233   0.431 -0.6163 -0.3186  0.2270
   81MOL    C3144991   2.412   1.284   0.572  0.3502 -0.4745  0.1005
   81MOL    C3244992   2.438   1.418   0.595  0.8660 -0.3710  0.2901
   81MOL    C3344993   2.437   1.474   0.723  0.6558 -1.2371 -0.1983
   81MOL    C3444994   2.420   1.392   0.839  0.2198 -0.5790  0.3087
   81MOL    C3544995   2.440   1.449   0.976 -0.7645  0.5324 -0.2429
   81MOL    N3644996   2.450   1.579   0.985  0.4103  0.1935 -0.0514
   81MOL    C3744997   2.499   1.654   1.095 -0.1218  0.3253 -0.4857
   81MOL    C3844998   2.516   1.600   1.227  0.1375 -0.1501 -0.4296
   81MOL    C3944999   2.558   1.690   1.331 -0.8316 -0.7397 -0.3979
   81MOL    C4045000   2.587   1.823   1.307  0.3707 -0.0950  0.0878
   81MOL    N4145001   2.624   1.901   1.420 -0.0533 -0.7116 -0.5718
   81MOL    C4245002   2.592   1.869   1.168  0.3326 -0.4727 -0.3874
   81MOL    C4345003   2.541   1.785   1.066 -0.3859  0.0218  0.3372
   81MOL    O4445004   2.459   1.368   1.065 -0.6079  0.0857 -0.4272
   81MOL    C4545005   2.402   1.255   0.818  0.0745  0.1172  0.6225
   81MOL    C4645006   2.399   1.202   0.686 -0.3472  1.0767 -0.1232
   81MOL    O4745007   2.354   1.308   0.345  0.4712  0.2405  0.7005
   81MOL    H4845008   2.456   1.490   0.516  3.7408  0.0255  1.2354
   81MOL    H4945009   2.453   1.580   0.737  1.3038 -1.4707  0.8892
   81MOL    H5045010   2.410   1.623   0.903  1.2046  0.5606 -0.2406
   81MOL    H5145011   2.469   1.507   1.254  0.9959 -0.6106 -0.5053
   81MOL    H5245012   2.556   1.652   1.432  0.1345  1.3100  0.4285
   81MOL    H5345013   2.649   1.852   1.504  1.7536  2.2084  0.6739
   81MOL    H5445014   2.636   1.964   1.144  2.5257 -1.7209 -1.3770
   81MOL    H5545015   2.539   1.819   0.964 -0.1879  0.8142  0.5898
   81MOL    H5645016   2.382   1.188   0.901 -1.7597  0.4270  0.4374
   81MOL    H5745017   2.380   1.096   0.677  0.9543  0.7509  0.7268
   81MOL    C5845018   2.611   2.035   1.432 -0.1862 -0.1702 -0.2797
   81MOL    C5945019   2.642   2.090   1.571 -1.0087 -0.0121 -0.4452
   81MOL    C6045020   2.574   2.040   1.683 -0.1887 -0.0206 -0.0176
   81MOL    C6145021   2.614   2.079   1.810 -0.3446 -0.2472  0.2711
   81MOL    C6245022   2.720   2.173   1.825 -0.3882 -0.2717 -0.3694
   81MOL    C6345023   2.764   2.228   1.962  0.4057 -0.2461 -0.1227
   81MOL    N6445024   2.673   2.208   2.057 -0.4108 -0.6239 -0.5123
   81MOL    C6545025   2.683   2.211   2.196 -0.6720  0.1641  0.3913
   81MOL    C6645026   2.801   2.179   2.271  0.5625  0.0421  0.5427
   81MOL    C6745027   2.803   2.159   2.410  0.0729 -0.0292  0.5014
   81MOL    C6845028   2.679   2.165   2.471  0.0063  0.5473 -0.9075
   81MOL    N6945029   2.670   2.125   2.608 -0.1252 -0.4683 -0.2793
   81MOL    C7045030   2.564   2.214   2.407  0.4168 -0.1508 -0.9569
   81MOL    C7145031   2.565   2.236   2.271 -0.0940 -0.0915  0.3779
   81MOL    O7245032   2.880   2.270   1.966  0.5837  0.0973 -0.7176
   81MOL    C7345033   2.790   2.219   1.715 -0.2076  0.3758  0.2125
   81MOL    C7445034   2.749   2.179   1.589  0.2312 -0.5151  0.0375
   81MOL    O7545035   2.591   2.108   1.333  0.7654  0.5036  0.1062
   81MOL    H7645036   2.504   1.961   1.661 -0.7224  0.3124  0.4661
   81MOL    H7745037   2.573   2.034   1.899 -1.2405  0.0139 -0.0008
   81MOL    H7845038   2.578   2.189   2.029 -0.0345 -0.1020 -2.1664
   81MOL    H7945039   2.884   2.152   2.208 -0.9783 -3.3054 -0.1920
   81MOL    H8045040   2.894   2.135   2.464 -0.8531  1.4308  2.8335
   81MOL    H8145041   2.749   2.128   2.671 -0.1547 -0.1376 -0.2545
   81MOL    H8245042   2.471   2.219   2.462  1.2512 -2.9124  0.8458
   81MOL    H8345043   2.479   2.245   2.206  0.1928 -2.7418 -0.3998
   81MOL    H8445044   2.868   2.293   1.726 -0.1543  0.4759 -0.8045
   81MOL    H8545045   2.797   2.223   1.503  1.5548  2.5664  2.2653
   81MOL    C8645046   2.575   2.047   2.664 -0.2518  0.0326 -0.8497
   81MOL    C8745047   2.594   2.007   2.803 -0.7295  0.0034  0.2551
   81MOL    C8845048   2.485   1.973   2.883  0.7132  0.9317 -0.3794
   81MOL    C8945049   2.503   1.950   3.023  0.3877  0.3303 -0.8099
   81MOL    C9045050   2.632   1.963   3.079 -0.1284 -0.5411 -0.1135
   81MOL    C9145051   2.662   1.937   3.225  0.7478  0.1482 -0.0197
   81MOL    N9245052   2.781   1.961   3.274  0.1224  0.0010 -0.1095
   81MOL    C9345053   2.827   1.952   3.408 -0.3773  0.0289 -0.6593
   81MOL    C9445054   2.756   1.972   3.523  0.2904  0.0216 -0.5015
   81MOL    C9545055   2.807   1.935   3.654  0.3092 -0.0325 -0.2062
   81MOL    C9645056   2.936   1.887   3.668  0.0605 -0.3228  0.9839
   81MOL    N9745057   3.001   1.876   3.785 -0.3254 -0.3237  0.5163
   81MOL    C9845058   3.013   1.886   3.550 -0.1930  0.4251 -0.9179
   81MOL    C9945059   2.960   1.910   3.419 -0.1459  0.4409  0.4732
   81MOL   O10045060   2.582   1.887   3.298  0.6548 -0.5385  0.4556
   81MOL   C10145061   2.741   1.997   2.999  0.2847  0.1767 -0.1550
   81MOL   C10245062   2.723   2.029   2.863 -0.2669 -0.2928 -1.0880
   81MOL   O10345063   2.467   2.011   2.609 -0.0694  0.2519  0.2802
   81MOL   H10445064   2.384   1.974   2.845  0.7101  0.5716 -0.3780
   81MOL   H10545065   2.421   1.912   3.083  1.9698 -2.0172 -0.0758
   81MOL   H10645066   2.844   1.975   3.196 -0.6353 -1.7279 -1.0626
   81MOL   H10745067   2.654   2.007   3.515 -0.9674 -2.8735  1.8499
   81MOL   H10845068   2.739   1.939   3.738 -0.2058 -0.2376 -0.6076
   81MOL   H10945069   3.093   1.918   3.786  0.2826 -1.5128 -1.5488
   81MOL   H11045070   3.116   1.860   3.570 -0.5024 -0.8592 -0.9641
   81MOL   H11145071   3.023   1.906   3.332 -2.1747  1.0328 -1.0772
   81MOL   H11245072   2.845   1.988   3.028  0.1199 -1.6800 -0.0714
   81MOL   H11345073   2.807   2.053   2.800 -0.2138 -0.3061 -1.0224
   81MOL   C11445074   2.950   1.837   3.904  0.3262  0.2004  0.3875
   81MOL   C11545075   2.821   1.762   3.906 -0.3967 -0.1697  0.0721
   81MOL   C11645076   2.715   1.813   3.987  0.1529 -0.7729  0.5796
   81MOL   C11745077   2.590   1.735   3.996  0.4274  0.7465 -0.7137
   81MOL   C11845078   2.574   1.613   3.918 -0.4487  0.1371 -0.4132
   81MOL   C11945079   2.455   1.537   3.935  0.4106 -0.2352  0.4616
   81MOL   N12045080   2.347   1.576   3.870  0.5124 -0.0362 -0.0387
   81MOL   C12145081   2.345   1.687   3.784  0.5768 -0.2540 -0.6015
   81MOL   C12245082   2.353   1.658   3.650 -0.7703 -0.6940  0.2558
   81MOL   C12345083   2.369   1.775   3.563 -0.1780  0.0017  0.3443
   81MOL   C12445084   2.371   1.906   3.608  0.4900  0.9623  0.9377
   81MOL   N12545085   2.381   2.002   3.499  0.0116 -0.1468  0.2558
   81MOL   C12645086   2.347   1.929   3.745 -0.5356  0.3964  0.2589
   81MOL   C12745087   2.335   1.819   3.833  0.1650  0.0242 -0.0762
   81MOL   O12845088   2.451   1.459   4.028 -0.3159  0.5446 -0.3357
   81MOL   C12945089   2.682   1.569   3.835 -0.0147  0.2279 -0.4787
   81MOL   C13045090   2.810   1.631   3.845  0.0339 -0.3165  0.0371
   81MOL   O13145091   3.015   1.853   4.003  0.8485  0.1852  0.1785
   81MOL   H13245092   2.726   1.906   4.040 -0.4092  0.7790 -1.9527
   81MOL   H13345093   2.510   1.770   4.059 -0.4059 -0.8712 -0.8419
   81MOL   H13445094   2.262   1.525   3.887  2.0799 -2.1964  1.7315
   81MOL   H13545095   2.361   1.555   3.619  0.7945 -0.0631 -1.5718
   81MOL   H13645096   2.378   1.747   3.458  0.7248 -1.4713  0.7988
   81MOL   H13745097   2.401   1.961   3.409 -1.5536 -1.0083  0.2790
   81MOL   H13845098   2.336   2.031   3.780 -1.2126  0.7180 -0.8408
   81MOL   H13945099   2.303   1.834   3.935  0.4224 -0.7021  0.1124
   81MOL   H14045100   2.669   1.474   3.785 -0.7365  0.9085 -1.5958
   81MOL   H14145101   2.893   1.585   3.793  1.3795 -0.8889  2.6030
   81MOL   C14245102   2.415   2.129   3.503 -0.1218  0.8578  0.1183
   81MOL   C14345103   2.438   2.191   3.364  0.0303 -0.2866  0.4148
   81MOL   C14445104   2.341   2.186   3.262  0.0719 -0.1331  0.7944
   81MOL   C14545105   2.371   2.225   3.130 -0.1556  0.2875 -0.2633
   81MOL   C14645106   2.500   2.275   3.098 -0.3005 -0.5464  0.4013
   81MOL   C14745107   2.528   2.310   2.954  0.3542  0.3581  1.3534
   81MOL   N14845108   2.651   2.344   2.921  0.7109 -0.4278  0.3843
   81MOL   C14945109   2.684   2.427   2.806 -0.0676 -0.0563 -0.3543
   81MOL   C15045110   2.793   2.394   2.722 -0.0075  0.4133 -0.1281
   81MOL   C15145111   2.835   2.485   2.623 -0.5969 -1.2393 -0.5341
   81MOL   C15245112   2.792   2.615   2.625  0.1899 -0.1574  0.1976
   81MOL   N15345113   2.867   2.716   2.559 -0.8192  0.2125 -0.4547
   81MOL   C15445114   2.678   2.653   2.703  0.0971 -0.4972 -0.8229
   81MOL   C15545115   2.629   2.561   2.797  0.0258  0.1365  0.4873
   81MOL   O15645116   2.440   2.306   2.869 -0.2632 -0.0055 -0.1047
   81MOL   C15745117   2.592   2.297   3.200 -0.1391  0.0895 -0.3959
   81MOL   C15845118   2.562   2.251   3.332 -0.4398  0.7703 -0.7318
   81MOL   O15945119   2.405   2.205   3.601 -0.1304 -0.0001 -0.4143
   81MOL   H16045120   2.244   2.144   3.285 -0.3833  0.0266 -0.8044
   81MOL   H16145121   2.292   2.216   3.058 -0.0781 -0.5973 -0.2393
   81MOL   H16245122   2.727   2.304   2.974 -1.1392  0.5601  3.8827
   81MOL   H16345123   2.835   2.296   2.734 -2.4945 -0.6780 -0.2061
   81MOL   H16445124   2.916   2.468   2.554 -1.0924  2.3774 -2.0790
   81MOL   H16545125   2.848   2.735   2.462 -1.9171  0.3134 -0.2337
   81MOL   H16645126   2.627   2.748   2.698  0.2733 -0.4008 -0.7808
   81MOL   H16745127   2.542   2.577   2.859  1.2063 -1.3885  2.5939
   81MOL   H16845128   2.690   2.339   3.181 -0.2654 -0.8468 -3.2188
   81MOL   H16945129   2.643   2.260   3.403 -0.6437  1.1287 -0.5436
   81MOL   C17045130   2.959   2.802   2.609  0.9139  0.9287 -0.1754
   81MOL   C17145131   2.988   2.791   2.754  0.0634 -0.2154  0.3262
   81MOL   C17245132   3.012   2.672   2.824 -1.2249 -0.3744  0.0115
   81MOL   C17345133   3.036   2.671   2.962 -0.0453 -0.2695 -0.1728
   81MOL   C17445134   3.050   2.788   3.035 -0.0951 -0.2089  0.1184
   81MOL   C17545135   3.085   2.784   3.183 -0.1863 -0.1060  0.0937
   81MOL   N17645136   3.109   2.665   3.244 -0.3610  0.3247  0.0554
   81MOL   C17745137   3.143   2.651   3.382  0.7719 -0.0366 -0.2131
   81MOL   C17845138   3.240   2.555   3.414  0.5242 -0.7948 -0.9603
   81MOL   C17945139   3.268   2.528   3.549  0.0858  0.0177  0.2797
   81MOL   C18045140   3.197   2.591   3.653  0.9620  0.4098  0.2451
   81MOL   N18145141   3.222   2.540   3.784  0.2981 -0.5091  0.3365
   81MOL   C18245142   3.108   2.698   3.618 -0.5526  0.4441 -0.6799
   81MOL   C18345143   3.075   2.722   3.480  1.6991 -0.2958 -0.1314
   81MOL   O18445144   3.101   2.891   3.242 -0.0547  0.0912 -0.2315
   81MOL   C18545145   3.036   2.912   2.967  0.3722  0.7171  0.1243
   81MOL   C18645146   2.995   2.911   2.828  0.0072 -0.1235  0.1382
   81MOL   O18745147   3.006   2.888   2.539 -0.3023  0.2199 -0.2229
   81MOL   H18845148   3.022   2.580   2.769  2.4665  1.4481 -2.6089
   81MOL   H18945149   3.044   2.577   3.015 -1.4639  0.3967  1.2501
   81MOL   H19045150   3.105   2.583   3.185  1.6782 -1.7860  2.7724
   81MOL   H19145151   3.298   2.498   3.343  0.0918 -1.2626 -0.9450
   81MOL   H19245152   3.333   2.452   3.588  1.4056  1.4818  0.9990
   81MOL   H19345153   3.300   2.476   3.782  1.3663  0.7845  0.4885
   81MOL   H19445154   3.056   2.756   3.692 -0.7539 -0.1720 -0.3318
   81MOL   H19545155   2.995   2.790   3.455  1.3623 -0.1584  1.2810
   81MOL   H19645156   3.045   3.008   3.016 -2.1940  1.1112 -0.1080
   81MOL   H19745157   2.987   3.003   2.772 -2.3457  0.5088  1.4426
   81MOL   C19845158   3.157   2.560   3.900  0.3035  0.0262  0.1784
   81MOL   C19945159   3.192   2.480   4.021  0.4517  0.3229  0.0205
   81MOL   C20045160   3.326   2.443   4.039 -0.0007  0.6017 -0.1199
   81MOL   C20145161   3.368   2.361   4.143  0.5157  0.0070 -0.5558
   81MOL   C20245162   3.274   2.308   4.232  0.1799 -0.5229  0.5432
   81MOL   C20345163   3.330   2.215   4.333 -0.3686 -0.2807 -0.6400
   81MOL   N20445164   3.280   2.244   4.457  0.2978 -0.1879  0.5616
   81MOL   C20545165   3.309   2.174   4.585  0.0488 -0.3421 -0.0989
   81MOL   C20645166   3.366   2.049   4.595  0.0202 -0.1817  0.2998
   81MOL   C20745167   3.384   1.984   4.722 -0.7715 -0.1674 -0.4855
   81MOL   C20845168   3.332   2.051   4.836 -0.7342  0.6725 -0.2989
   81MOL   N20945169   3.348   2.007   4.970  0.1385 -0.3026 -0.0786
   81MOL   C21045170   3.272   2.176   4.822 -0.4306  0.9410  0.2481
   81MOL   C21145171   3.256   2.233   4.696  0.2311  0.4345 -0.7252
   81MOL   O21245172   3.402   2.117   4.309  0.5484 -0.1176 -0.0314
   81MOL   C21345173   3.140   2.346   4.218 -0.5087  1.2384  0.8426
   81MOL   C21445174   3.103   2.433   4.112  0.7224  0.3857 -0.4759
   81MOL   O21545175   3.071   2.641   3.918  0.6334 -0.4689  0.1859
   81MOL   H21645176   3.404   2.479   3.974  0.5971 -1.3716 -0.5324
   81MOL   H21745177   3.472   2.335   4.161  0.2822 -0.2411  0.4807
   81MOL   H21845178   3.219   2.324   4.464  1.4478  0.5640  2.4508
   81MOL   H21945179   3.394   1.994   4.507  0.5955 -0.9891  0.9709
   81MOL   H22045180   3.410   1.879   4.723 -0.3663 -0.1441 -3.8318
   81MOL   H22145181   3.321   2.080   5.035 -0.1954 -0.2384 -0.2846
   81MOL   H22245182   3.230   2.219   4.912  1.6369 -1.2173  2.3208
   81MOL   H22345183   3.208   2.329   4.686  1.1809  0.7646 -2.1613
   81MOL   H22445184   3.071   2.301   4.288  0.2246 -0.5857  0.4343
   81MOL   H22545185   3.001   2.467   4.103  0.5957  0.3074  0.6477
   81MOL   C22645186   3.405   1.896   5.014  0.6520 -0.7371  0.6004
   81MOL   C22745187   3.439   1.899   5.164 -0.1620 -0.5579  0.3412
   81MOL   C22845188   3.419   1.780   5.237  0.1622 -0.0589 -0.8046
   81MOL   C22945189   3.450   1.779   5.375  0.3516 -0.2010 -0.6599
   81MOL   C23045190   3.494   1.896   5.441  0.2022  0.4636  0.0457
   81MOL   C23145191   3.530   1.900   5.588 -0.9075 -0.0689  0.4166
   81MOL   N23245192   3.432   1.855   5.671  0.2111 -0.6309 -0.4710
   81MOL   C23345193   3.424   1.873   5.814  0.0781 -0.7083 -0.0714
   81MOL   C23445194   3.513   1.804   5.899  0.1474 -0.1851 -0.1136
   81MOL   C23545195   3.485   1.794   6.039 -0.3425 -0.0038 -0.0912
   81MOL   C23645196   3.379   1.872   6.100  0.1353 -1.1714 -0.2053
   81MOL   N23745197   3.362   1.865   6.240  1.4233  0.1942 -0.2990
   81MOL   C23845198   3.297   1.949   6.008  0.2888  0.3127 -0.8824
   81MOL   C23945199   3.320   1.952   5.865  0.3102  0.5878  0.8637
   81MOL   O24045200   3.628   1.967   5.629  0.1693 -0.0636 -0.4334
   81MOL   C24145201   3.504   2.014   5.364 -0.0145 -0.3893 -0.5028
   81MOL   C24245202   3.486   2.013   5.229 -0.6123 -0.4211 -0.2492
   81MOL   O24345203   3.434   1.800   4.941 -0.4570  0.9449  0.9867
   81MOL   H24445204   3.390   1.686   5.193  0.4803 -1.3667  1.6941
   81MOL   H24545205   3.443   1.691   5.438  1.6516  0.5359  0.5291
   81MOL   H24645206   3.355   1.816   5.620  0.0686 -0.8591 -0.0870
   81MOL   H24745207   3.595   1.749   5.855  1.7700 -0.4567  3.0524
   81MOL   H24845208   3.554   1.745   6.106  0.1068  0.1960 -0.4110
   81MOL   H24945209   3.445   1.857   6.297  0.9730  3.1198  0.8545
   81MOL   H25045210   3.221   2.016   6.046 -1.0197 -1.3447 -0.5288
   81MOL   H25145211   3.255   2.009   5.800  1.7248  1.1017 -0.1187
   81MOL   H25245212   3.540   2.107   5.408 -1.1933  0.8212 -2.0507
   81MOL   H25345213   3.499   2.105   5.174 -3.4387  0.3269  0.2696
   81MOL   C25445214   3.255   1.878   6.318  0.3122  0.6243  0.7060
   81MOL   C25545215   3.271   1.841   6.461 -0.5262 -0.0680 -0.5025
   81MOL   C25645216   3.203   1.897   6.572 -0.1810 -0.3655  0.4412
   81MOL   C25745217   3.228   1.855   6.707  0.3762  0.5383  0.7265
   81MOL   C25845218   3.300   1.736   6.734 -0.6646  0.6321 -0.5200
   81MOL   C25945219   3.328   1.693   6.871  0.5982 -0.4498  0.1067
   81MOL   N26045220   3.233   1.714   6.962 -0.8033 -0.2574 -0.2104
   81MOL   C26145221   3.246   1.685   7.109 -0.4754  0.5402  0.5645
   81MOL   C26245222   3.371   1.715   7.174 -0.2721 -0.1426  0.2442
   81MOL   C26345223   3.397   1.687   7.310 -0.3443 -0.0504 -0.2954
   81MOL   C26445224   3.286   1.640   7.385  0.2664 -0.1405 -0.2692
   81MOL   N26545225   3.323   1.608   7.515  0.5930  0.1119  0.0547
   81MOL   C26645226   3.159   1.612   7.329  0.0652 -0.1788  0.2834
   81MOL   C26745227   3.141   1.639   7.190  0.1832 -0.9523  0.9024
   81MOL   O26845228   3.440   1.638   6.892  0.2412  0.0694 -0.2414
   81MOL   C26945229   3.371   1.679   6.625 -0.3550  0.5361 -0.3694
   81MOL   C27045230   3.351   1.731   6.497 -0.0547  0.4614  0.6350
   81MOL   O27145231   3.153   1.930   6.280  0.1119 -0.9512 -0.4461
   81MOL   H27245232   3.137   1.982   6.558 -1.6712 -1.0841  2.8603
   81MOL   H27345233   3.177   1.911   6.784 -0.4635  1.7671 -0.6985
   81MOL   H27445234   3.143   1.750   6.934 -0.4365  0.3754 -0.5866
   81MOL   H27545235   3.447   1.751   7.107 -2.2072  2.1108 -0.8063
   81MOL   H27645236   3.490   1.704   7.363 -0.9164  2.1537  0.0522
   81MOL   H27745237   3.424   1.610   7.525  0.5277 -0.2171  0.7998
   81MOL   H27845238   3.072   1.569   7.376 -1.1872 -0.7662 -2.4691
   81MOL   H27945239   3.048   1.614   7.141 -1.1633  2.1542  1.7426
   81MOL   H28045240   3.441   1.600   6.647 -0.4784  0.7973  1.0363
   81MOL   H28145241   3.419   1.692   6.422  0.8887  1.3269  1.0278
   81MOL   C28245242   3.257   1.560   7.619 -0.1643 -0.0407  0.1314
   81MOL   C28345243   3.341   1.532   7.737  0.1706 -0.2165 -0.4802
   81MOL   C28445244   3.301   1.444   7.839  0.6235 -0.7279  0.6673
   81MOL   C28545245   3.367   1.435   7.963  0.0316 -0.1261 -0.0185
   81MOL   C28645246   3.498   1.491   7.971  0.1898 -0.8666  0.3308
   81MOL   C28745247   3.583   1.453   8.087  0.2357  0.2383 -0.1710
   81MOL   N28845248   3.687   1.371   8.070  0.1817  0.1871 -0.2281
   81MOL   C28945249   3.744   1.341   7.944 -0.2275  0.3752 -0.1577
   81MOL   C29045250   3.683   1.261   7.849  0.7234  0.5449 -0.4130
   81MOL   C29145251   3.752   1.235   7.734  0.3502 -0.0208  1.4061
   81MOL   C29245252   3.887   1.272   7.713  0.4076 -0.4167 -0.6098
   81MOL   N29345253   3.953   1.259   7.584 -0.0945 -0.2065  0.4707
   81MOL   C29445254   3.950   1.347   7.816 -0.1423  0.5152  0.1581
   81MOL   C29545255   3.878   1.387   7.929  0.9558 -0.0785  0.1222
   81MOL   O29645256   3.557   1.490   0.058 -0.4291 -0.1418 -0.0840
   81MOL   C29745257   3.547   1.561   7.866  0.4430  0.0732  1.1523
   81MOL   C29845258   3.470   1.587   7.753  0.4313 -0.0548 -0.3337
   81MOL   O29945259   3.137   1.551   7.628  0.2019  0.2802  0.0281
   81MOL   H30045260   3.203   1.399   7.832 -0.2678  0.9241  2.0108
   81MOL   H30145261   3.313   1.393   8.047  0.4226  2.5654  1.6202
   81MOL   H30245262   3.732   1.358   0.014 -0.5768  1.1850  0.3025
   81MOL   H30345263   3.578   1.233   7.847  0.6831  0.5651  0.8953
   81MOL   H30445264   3.690   1.188   7.659 -0.5082  2.3003  0.6305
   81MOL   H30545265   4.000   1.344   7.557  3.0032 -1.0357  3.0087
   81MOL   H30645266   4.055   1.372   7.810  0.0815 -0.5239 -0.3076
   81MOL   H30745267   3.927   1.448   8.004  0.2262  0.8272 -0.1332
   81MOL   H30845268   3.642   1.613   7.874 -0.2048  1.0435  2.7840
   81MOL   H30945269   3.523   1.650   7.684  2.7082  0.5394  1.8949
   81MOL   C31045270   3.932   1.155   7.500 -0.0789 -0.0066 -0.1175
   81MOL   C31145271   3.979   1.162   7.359  0.0614 -0.1306  1.1546
   81MOL   C31245272   4.111   1.172   7.330 -0.1123  0.5340  0.4870
   81MOL   C31345273   4.158   1.146   7.196  0.0684 -0.9412 -0.0868
   81MOL   C31445274   4.070   1.119   7.094  0.3783  0.2076 -0.4974
   81MOL   C31545275   4.118   1.088   6.956 -0.0678 -0.0859 -0.0513
   81MOL   N31645276   4.249   1.116   6.924  0.0883  0.3780  0.2894
   81MOL   C31745277   4.309   1.122   6.798 -0.4265  0.3802 -0.0514
   81MOL   C31845278   4.261   1.198   6.692 -0.0635 -0.6125 -0.0400
   81MOL   C31945279   4.321   1.186   6.559 -0.4718 -0.7596  0.8972
   81MOL   C32045280   4.426   1.095   6.535 -0.2282  0.0719  1.0700
   81MOL   N32145281   4.459   1.071   6.400  0.0050  0.1704  0.7920
   81MOL   C32245282   4.478   1.019   6.644 -0.6135  0.1805  0.2327
   81MOL   C32345283   4.416   1.030   6.765  0.8756  0.4133 -0.6836
   81MOL   O32445284   4.040   1.042   6.877 -0.4912 -0.3625  0.2921
   81MOL   C32545285   3.932   1.142   7.122 -0.0136 -0.2414  0.0668
   81MOL   C32645286   3.885   1.148   7.252  0.9663  0.3738  0.0992
   81MOL   O32745287   3.866   1.058   7.538  0.2765  0.9535 -0.0168
   81MOL   H32845288   4.188   1.177   7.405 -0.4733  0.0599  0.8992
   81MOL   H32945289   4.261   1.134   7.168  0.0784  1.1098 -1.0659
   81MOL   H33045290   4.308   1.149   6.999  1.2038 -0.5946 -0.1558
   81MOL   H33145291   4.189   1.276   6.706 -0.3308 -0.9906  0.7039
   81MOL   H33245292   4.296   1.251   6.477 -0.9679 -1.1692  0.7234
   81MOL   H33345293   4.376   1.074   6.343 -0.3814 -2.5929  1.1261
   81MOL   H33445294   4.557   0.946   6.634  1.9155  2.7509  0.7714
   81MOL   H33545295   4.464   0.973   6.842 -0.8201  0.8221  0.7110
   81MOL   H33645296   3.860   1.127   7.042  0.6924  1.1460 -0.8475
   81MOL   H33745297   3.780   1.149   7.277  0.6088 -0.7808 -1.3113
   81MOL   C33845298   4.567   1.013   6.356 -0.2688 -0.3675  0.3401
   81MOL   C33945299   4.552   0.930   6.229  0.3638  0.0594  0.1193
   81MOL   C34045300   4.431   0.860   6.209 -0.2961 -0.0494 -0.5826
   81MOL   C34145301   4.426   0.760   6.113  0.2314 -0.0338 -0.1142
   81MOL   C34245302   4.543   0.722   6.039  0.8298 -0.2647  0.6700
   81MOL   C34345303   4.545   0.592   5.956 -0.0437  0.3270  0.0259
   81MOL   N34445304   4.652   0.568   5.876  0.0226 -0.2251  0.4010
   81MOL   C34545305   4.680   0.460   5.783  0.4404 -0.1772  0.3269
   81MOL   C34645306   4.813   0.427   5.778  0.2235 -0.5379 -0.4766
   81MOL   C34745307   4.863   0.324   5.692 -0.4919 -0.4972 -0.4432
   81MOL   C34845308   4.770   0.253   5.615 -0.4132 -0.2919  0.0568
   81MOL   N34945309   4.802   0.146   5.531 -0.5914 -0.3936  0.4653
   81MOL   C35045310   4.637   0.296   5.617  0.1312  0.2906  0.2847
   81MOL   C35145311   4.586   0.401   5.697 -0.1815  0.1577 -0.1302
   81MOL   O35245312   4.455   0.506   5.959  0.2643  0.3892  0.3535
   81MOL   C35345313   4.653   0.814   6.040 -0.4029  0.3198  0.0305
   81MOL   C35445314   4.662   0.912   6.142  0.2105 -0.8936  0.3000
   81MOL   O35545315   4.676   1.049   6.396  0.1296 -0.9553 -0.0011
   81MOL   H35645316   4.352   0.873   6.280 -1.1106  0.7136 -1.6136
   81MOL   H35745317   4.339   0.702   6.083  1.5929 -0.2710 -3.9554
   81MOL   H35845318   4.724   0.638   5.888  0.6111 -0.9635  1.2225
   81MOL   H35945319   4.881   0.486   5.837  1.3713 -0.4586 -1.8268
   81MOL   H36045320   4.967   0.305   5.670 -0.3892  1.6334 -1.9389
   81MOL   H36145321   4.731   0.115   5.467 -1.1510 -1.2602  1.4883
   81MOL   H36245322   4.562   0.261   5.548  1.6794 -2.7029  0.0076
   81MOL   H36345323   4.482   0.426   5.686  0.1254  1.0263 -1.1731
   81MOL   H36445324   4.733   0.792   5.972 -0.6069 -1.9047  0.4794
   81MOL   H36545325   4.753   0.970   6.148 -1.0941  1.0592  1.4874
   81MOL   C36645326   4.918   0.083   5.521 -0.5173 -0.0650  0.2651
   81MOL   C36745327   4.914   8.115   5.426  0.1892 -0.2829 -0.9745
   81MOL   C36845328   4.804   8.024   5.429  0.1719 -0.1626 -0.2354
   81MOL   C36945329   4.805   7.912   5.340 -0.3737 -0.3142  0.6647
   81MOL   C37045330   4.900   7.921   5.234 -0.3376 -0.2642  0.3403
   81MOL   C37145331   4.892   7.816   5.124  0.6278  0.7520 -0.6531
   81MOL   N37245332   4.954   7.847   5.007 -0.0235  0.0684  0.5983
   81MOL   C37345333   4.966   7.765   4.892 -0.3551 -0.2380  0.1543
   81MOL   C37445334   4.970   7.624   4.893 -0.7870  0.0242 -0.4849
   81MOL   C37545335   4.989   7.553   4.766  0.3058 -0.2195 -0.5905
   81MOL   C37645336   4.993   7.624   4.644 -0.0299  0.9378 -0.0564
   81MOL   N37745337   4.978   7.561   4.512  0.1048  0.6865 -0.3310
   81MOL   C37845338   4.980   7.767   4.647 -0.3336  0.2354  0.1020
   81MOL   C37945339   4.966   7.832   4.769  0.3880  0.1617 -0.3623
   81MOL   O38045340   4.818   7.721   5.134 -0.7554 -0.0176  0.1119
   81MOL   C38145341   5.009   8.008   5.239  0.1950 -0.1117 -0.0679
   81MOL   C38245342   5.017   8.107   5.333  0.2060 -0.2207  0.7541
   81MOL   O38345343   5.029   0.110   5.577  0.4612 -0.3726 -0.3970
   81MOL   H38445344   4.725   8.035   5.502  1.2707  0.3581  0.8844
   81MOL   H38545345   4.720   7.844   5.342  1.2845 -2.4775 -0.6506
   81MOL   H38645346   4.990   7.941   5.000  0.2173 -0.0646  0.0474
   81MOL   H38745347   4.980   7.559   4.978 -0.2480 -0.0073 -0.5680
   81MOL   H38845348   4.997   7.446   4.766 -2.7422 -0.5047  0.3867
   81MOL   H38945349   4.932   7.614   4.439  0.5888 -0.4632 -1.4811
   81MOL   H39045350   4.967   7.825   4.557  1.6220  0.0637 -0.3235
   81MOL   H39145351   4.948   7.938   4.761  0.0491  0.1316  0.0368
   81MOL   H39245352   5.085   7.995   5.164  0.4659 -2.1883  0.5281
   81MOL   H39345353   5.102   0.027   5.338  1.6441 -1.9981  0.2284
   81MOL   C39445354   5.008   7.435   4.472  0.1213 -0.4221 -0.2679
   81MOL   C39545355   4.978   7.405   4.327  0.9671 -0.5703 -0.7956
   81MOL   C39645356   4.898   7.294   4.287  0.0802  0.6657  0.0609
   81MOL   C39745357   4.872   7.259   4.150 -0.5884 -0.2268 -0.6481
   81MOL   C39845358   4.920   7.342   4.051 -0.3621 -0.1058 -0.2841
   81MOL   C39945359   4.893   7.298   3.909 -0.1509  0.5483 -0.1318
   81MOL   N40045360   4.999   7.256   3.838  0.4924  0.1183 -0.1892
   81MOL   C40145361   5.138   7.258   3.877 -0.4243 -0.4928  0.7680
   81MOL   C40245362   5.233   7.267   3.768 -0.5014 -0.3848 -0.2638
   81MOL   C40345363   5.373   7.279   3.796  0.3539  0.0155  0.2756
   81MOL   C40445364   5.423   7.295   3.922 -0.6722  0.3539 -0.3395
   81MOL   N40545365   5.570   7.306   3.929  0.1391  0.5817  1.0310
   81MOL   C40645366   5.340   7.279   4.030 -0.4654 -0.4165 -0.1357
   81MOL   C40745367   5.201   7.258   4.005 -0.4060 -0.7379  0.1031
   81MOL   O40845368   4.784   7.324   3.864 -0.2541  0.2910 -0.0599
   81MOL   C40945369   4.994   7.457   4.088 -0.3453  0.5231  0.1932
   81MOL   C41045370   5.022   7.489   4.221  0.5966 -0.4482  0.3968
   81MOL   O41145371   5.070   7.352   4.538  0.1746 -0.1414  0.1151
   81MOL   H41245372   4.868   7.215   4.356 -1.4785  0.5811 -0.6874
   81MOL   H41345373   4.809   7.176   4.121  0.0114 -0.7775 -0.4059
   81MOL   H41445374   4.967   7.231   3.746  0.8420 -1.7822  0.1993
   81MOL   H41545375   5.201   7.276   3.665  0.8061 -1.0297 -0.7345
   81MOL   H41645376   5.439   7.287   3.711  2.1317  0.8593  1.6977
   81MOL   H41745377   5.622   7.244   3.869 -1.6674  0.1158 -0.1027
   81MOL   H41845378   5.382   7.301   4.128  2.1521  2.6181 -1.8506
   81MOL   H41945379   5.133   7.246   4.089  0.5000 -1.0207  0.8132
   81MOL   H42045380   5.046   7.506   4.008 -1.6753 -2.7334 -2.7855
   81MOL   H42145381   5.076   7.580   4.241  1.0380 -0.8202  0.9262
   81MOL   C42245382   5.648   7.336   4.033  0.5629  0.7518 -0.0794
   81MOL   C42345383   5.604   7.441   4.126  0.2268 -0.2194 -0.6284
   81MOL   C42445384   5.526   7.549   4.081 -0.2515 -0.1152  0.6624
   81MOL   C42545385   5.499   7.650   4.170 -0.3013  0.1971 -0.1982
   81MOL   C42645386   5.531   7.646   4.306  0.5162 -0.6083 -0.3896
   81MOL   C42745387   5.501   7.764   4.390 -0.0390 -0.6006  0.7501
   81MOL   N42845388   5.483   7.739   4.518 -0.8088  0.2113 -0.1454
   81MOL   C42945389   5.458   7.824   4.628 -0.5320  0.5433 -0.2531
   81MOL   C43045390   5.490   7.772   4.753  0.1485  0.3210 -0.3753
   81MOL   C43145391   5.467   7.852   4.872 -0.5234  0.2449  0.2718
   81MOL   C43245392   5.402   7.974   4.868 -0.4008 -0.1734 -0.1374
   81MOL   N43345393   5.386   8.063   4.985  0.2998 -0.0691  0.7477
   81MOL   C43445394   5.365   8.018   4.740  0.3015  0.3737  0.2523
   81MOL   C43545395   5.396   7.946   4.624  0.5288  0.2700 -0.0454
   81MOL   O43645396   5.486   7.877   4.345 -0.1588  0.1063  0.1790
   81MOL   C43745397   5.598   7.529   4.354  0.5562 -0.5402 -0.1655
   81MOL   C43845398   5.636   7.430   4.262 -0.2233 -0.6252  0.1804
   81MOL   O43945399   5.756   7.278   4.056  0.3854 -0.1248 -1.0143
   81MOL   H44045400   5.486   7.553   3.981 -1.8002  2.1095  1.3378
   81MOL   H44145401   5.438   7.731   4.133  0.0423  0.9789  0.9085
   81MOL   H44245402   5.474   7.640   4.536 -1.3592  0.2776 -0.0306
   81MOL   H44345403   5.538   7.675   4.758 -4.1339 -1.8774 -0.1928
   81MOL   H44445404   5.502   7.818   4.969 -0.2774  0.4036  0.2406
   81MOL   H44545405   5.385   0.016   4.967 -0.1865  0.1010  1.6569
   81MOL   H44645406   5.318   8.114   4.727 -1.3536 -0.7199 -2.0820
   81MOL   H44745407   5.356   7.984   4.531 -0.4188  0.3727  0.3884
   81MOL   H44845408   5.616   7.512   4.459 -2.6162 -0.6870  0.4110
   81MOL   H44945409   5.695   7.348   4.300 -1.3614 -1.7712 -0.5178
   81MOL   C45045410   5.374   8.033   5.117  1.3792 -0.6975  1.2003
   81MOL   C45145411   5.369   0.006   5.208  0.3583 -0.5407  0.4644
   81MOL   C45245412   5.375   8.135   5.349 -0.0304  0.0598  0.4325
   81MOL   C45345413   5.363   0.104   5.429 -0.1943 -0.5261  0.5609
   81MOL   C45445414   5.326   0.230   5.378  0.8217  0.2992  0.1689
   81MOL   C45545415   5.295   0.344   5.470  0.4039  0.0810 -0.0277
   81MOL   N45645416   5.245   0.312   5.591 -0.2439 -0.2175 -0.8043
   81MOL   C45745417   5.233   0.393   5.704 -0.2188  0.5961 -0.9804
   81MOL   C45845418   5.194   0.327   5.824  0.3446  0.2639 -0.9686
   81MOL   C45945419   5.165   0.400   5.942  0.2979 -0.8342  0.2985
   81MOL   C46045420   5.177   0.542   5.934  0.8068  0.5129 -0.0539
   81MOL   N46145421   5.150   0.621   6.051 -0.6036  0.1669  0.5879
   81MOL   C46245422   5.232   0.606   5.826  0.0268 -0.7990  0.0885
   81MOL   C46345423   5.258   0.532   5.708 -0.4223  0.4210 -0.5309
   81MOL   O46445424   5.325   0.456   5.429 -0.2040 -0.1639 -0.4088
   81MOL   C46545425   5.307   0.238   5.242 -0.2228  0.2476 -0.2458
   81MOL   C46645426   5.336   0.133   5.156 -0.3140 -0.1309 -0.0871
   81MOL   O46745427   5.359   7.919   5.160 -0.3421 -0.3813 -0.4548
   81MOL   H46845428   5.408   8.041   5.393  0.4176 -0.2234 -0.5019
   81MOL   H46945429   5.396   0.101   5.532  0.7601 -2.7252  0.2240
   81MOL   H47045430   5.224   0.214   5.597  0.4486 -0.3815 -1.0068
   81MOL   H47145431   5.182   0.220   5.812 -0.8406  0.3012 -0.1906
   81MOL   H47245432   5.125   0.362   6.035  0.5818 -3.7396 -0.7217
   81MOL   H47345433   5.214   0.694   6.079  1.2879 -1.3040  0.2129
   81MOL   H47445434   5.235   0.714   5.829 -0.1424 -0.8113  1.0161
   81MOL   H47545435   5.287   0.588   5.621  1.5399 -0.2505 -0.3342
   81MOL   H47645436   5.276   0.333   5.200 -2.1287 -1.3462 -2.5603
   81MOL   H47745437   5.311   0.149   5.053  1.1633  1.3427 -0.2445
   81MOL   C47845438   5.023   0.632   6.097 -0.0291  0.0574 -0.1229
   81MOL   C47945439   5.015   0.730   6.210  0.8310  0.4773  0.8419
   81MOL   C48045440   5.102   0.839   6.225 -0.0283 -0.0378 -0.0951
   81MOL   C48145441   5.093   0.924   6.334  0.5613 -0.0380 -0.4534
   81MOL   C48245442   4.990   0.916   6.421  0.5104  0.4263 -0.3425
   81MOL   C48345443   4.973   1.018   6.533 -0.3175  0.2815  0.3249
   81MOL   N48445444   4.899   0.974   6.637  0.0069 -0.4548 -0.5771
   81MOL   C48545445   4.870   1.029   6.759  0.0128 -0.3415  1.0588
   81MOL   C48645446   4.942   1.139   6.815 -0.0202  0.2968  0.0443
   81MOL   C48745447   4.896   1.206   6.935 -0.1592  0.6509  1.5869
   81MOL   C48845448   4.780   1.165   6.992  0.3120  0.0654  0.0912
   81MOL   N48945449   4.725   1.242   7.099  0.4840 -0.1528  0.5347
   81MOL   C49045450   4.704   1.057   6.939 -0.5237 -0.0634  0.4525
   81MOL   C49145451   4.761   0.986   6.832  0.4793 -0.0241  0.3735
   81MOL   O49245452   5.033   1.123   6.526 -0.0906  0.1011  0.0681
   81MOL   C49345453   4.891   0.811   6.402  0.2673 -0.5080 -0.4472
   81MOL   C49445454   4.912   0.713   6.300 -0.2731 -0.3449 -0.2242
   81MOL   O49545455   4.927   0.568   6.058  0.4292 -0.9161 -0.1754
   81MOL   H49645456   5.193   0.845   6.167 -0.6913 -0.1979 -1.1601
   81MOL   H49745457   5.178   0.988   6.354  1.2647 -0.6985 -1.2585
   81MOL   H49845458   4.853   0.885   6.623  0.5167 -0.9770  0.9700
   81MOL   H49945459   5.035   1.168   6.768  1.8394 -1.3149  2.6324
   81MOL   H50045460   4.960   1.277   6.986 -1.5380  0.4302  3.6459
   81MOL   H50145461   4.794   1.301   7.145  1.0775 -1.2141  1.0330
   81MOL   H50245462   4.617   1.017   6.990 -0.6341  0.4774  0.6931
   81MOL   H50345463   4.712   0.896   6.797  0.8921 -0.2770  0.4530
   81MOL   H50445464   4.807   0.795   6.469  0.1109 -2.1109 -0.9979
   81MOL   H50545465   4.849   0.625   6.295  0.0431 -0.6806  1.4626
   81MOL   C50645466   4.601   1.237   7.156  0.1415  0.2529 -0.2463
   81MOL   C50745467   4.597   1.296   7.299 -0.9611 -0.3003 -0.3313
   81MOL   C50845468   4.476   1.347   7.354 -0.0905  0.0688 -0.6446
   81MOL   C50945469   4.474   1.402   7.489 -0.7773  0.5248  0.3940
   81MOL   C51045470   4.600   1.405   7.555 -0.3696  0.3159  0.0442
   81MOL   C51145471   4.609   1.472   7.687 -0.1618  0.3593 -0.3789
   81MOL   N51245472   4.699   1.570   7.705  0.2119  0.1874  0.0933
   81MOL   C51345473   4.792   1.641   7.620  0.1147 -0.6785  0.2926
   81MOL   C51445474   4.760   1.662   7.483 -0.4879  0.1569  0.5936
   81MOL   C51545475   4.855   1.729   7.398 -0.0026 -0.5022  0.2444
   81MOL   C51645476   4.978   1.785   7.452  0.3089 -0.0614  1.1024
   81MOL   N51745477   5.066   1.864   7.377  0.4379  0.0815 -0.2125
   81MOL   C51845478   5.000   1.757   7.589 -0.1431 -0.0386 -0.0019
   81MOL   C51945479   4.913   1.685   7.671 -1.0266 -0.2087 -0.6092
   81MOL   O52045480   4.540   1.432   7.784 -0.2996 -0.5259  0.0005
   81MOL   C52145481   4.716   1.351   7.500  0.4473 -0.1318  0.4118
   81MOL   C52245482   4.715   1.298   7.374 -0.1330 -0.7195  0.7027
   81MOL   O52345483   4.498   1.197   7.102 -0.3409  0.3005 -0.4902
   81MOL   H52445484   4.385   1.341   7.296  0.2635 -1.2734 -1.0693
   81MOL   H52545485   4.391   1.457   7.529 -0.2542 -0.5304  3.0378
   81MOL   H52645486   4.698   1.607   7.799 -0.4297  2.7022 -0.8718
   81MOL   H52745487   4.668   1.621   7.444  0.4931  0.3004 -2.0161
   81MOL   H52845488   4.825   1.753   7.297  2.5240 -0.6987 -0.5922
   81MOL   H52945489   5.156   1.880   7.420 -0.4183  3.3280  0.4596
   81MOL   H53045490   5.082   1.787   7.652 -0.2780 -0.1445  0.2239
   81MOL   H53145491   4.946   1.673   7.774 -0.2816 -0.0391 -0.8260
   81MOL   H53245492   4.808   1.364   7.554  0.9765 -0.1875 -0.4791
   81MOL   H53345493   4.805   1.259   7.328  0.4417  0.5101  0.7518
   81MOL   C53445494   5.053   1.925   7.260  0.0328  0.5646 -0.2597
   81MOL   C53545495   5.177   1.979   7.188  0.2189 -0.0442  0.1724
   81MOL   C53645496   5.172   2.088   7.103  0.1595 -0.0719  0.6361
   81MOL   C53745497   5.283   2.124   7.024 -0.1992  0.0017  0.3464
   81MOL   C53845498   5.403   2.060   7.029 -0.3768  0.2518 -0.8348
   81MOL   C53945499   5.513   2.109   6.942 -0.3036 -0.3140  0.4581
   81MOL   N54045500   5.634   2.043   6.962  0.0013 -0.0069 -0.3100
   81MOL   C54145501   5.746   2.040   6.875  0.4480  0.7658 -0.3482
   81MOL   C54245502   5.776   2.140   6.777 -0.1371  0.1587  0.4532
   81MOL   C54345503   5.866   2.120   6.678 -0.1485  0.3959  0.3130
   81MOL   C54445504   5.948   1.998   6.679 -0.4347 -0.0018  0.2735
   81MOL   N54545505   6.059   1.981   6.596  0.0943 -0.0989 -0.0536
   81MOL   C54645506   5.931   1.908   6.782  0.2227  0.0364 -0.9077
   81MOL   C54745507   5.827   1.928   6.881 -0.7006 -0.3258 -0.0391
   81MOL   O54845508   5.491   2.201   6.862  0.4706 -0.1902  0.0794
   81MOL   C54945509   5.421   1.954   7.120  0.2354  0.1727  0.4168
   81MOL   C55045510   5.307   1.912   7.191  0.0386 -0.0759 -0.3051
   81MOL   O55145511   4.944   1.949   7.214  0.3478 -0.4286 -0.0062
   81MOL   H55245512   5.074   2.134   7.092  0.5543  0.7018  0.2941
   81MOL   H55345513   5.283   2.214   6.964  1.5599  0.0426  0.3911
   81MOL   H55445514   5.633   1.979   7.040  0.7404  1.1929  0.7179
   81MOL   H55545515   5.711   2.227   6.774 -2.7660 -1.7351  0.6390
   81MOL   H55645516   5.880   2.196   6.602 -2.8314 -1.2346 -1.9419
   81MOL   H55745517   6.077   2.047   6.523  0.0823 -0.4949 -0.4137
   81MOL   H55845518   6.004   1.829   6.792  2.6010  1.7658 -3.7442
   81MOL   H55945519   5.808   1.851   6.955  1.7257  0.2978  1.2664
   81MOL   H56045520   5.516   1.908   7.145  0.3010  0.4553  0.6887
   81MOL   H56145521   5.318   1.832   7.263 -2.4980  1.0993  1.4897
   81MOL   H56245522   6.070   1.892   6.550 -1.0751 -0.3446  0.1047
   82MOL     C145523   8.141   6.642   4.113  0.0703  0.5018 -0.4263
   82MOL     C245524   8.082   6.508   4.167 -0.5256  0.0340 -0.1395
   82MOL     C345525   0.011   6.438   4.264  0.6552 -0.5179  1.1535
   82MOL     C445526   8.102   6.313   4.316  0.1844 -0.0792  0.2600
   82MOL     C545527   7.974   6.268   4.268  0.1112  0.4225  0.2011
   82MOL     C645528   7.918   6.142   4.317 -0.4527  1.1545  0.1944
   82MOL     N745529   7.802   6.132   4.374  0.1255  0.6911  0.2617
   82MOL     C845530   7.718   6.235   4.412 -0.4254 -0.0682  0.0693
   82MOL     C945531   7.578   6.200   4.405  0.2245 -0.6009  0.3716
   82MOL    C1045532   7.485   6.299   4.440  0.6683 -0.0960 -0.3567
   82MOL    C1145533   7.533   6.427   4.483  0.3129  0.5362  0.1449
   82MOL    N1245534   7.437   6.528   4.520  0.1560  0.4667 -0.2522
   82MOL    C1345535   7.664   6.460   4.485  0.0649 -0.4447  0.1898
   82MOL    C1445536   7.762   6.363   4.461  0.0648 -0.7392  0.4592
   82MOL    O1545537   7.985   6.043   4.296 -0.4168  0.2482 -0.3489
   82MOL    C1645538   7.903   6.349   4.173  1.3264 -0.7751  0.1073
   82MOL    C1745539   7.958   6.467   4.115  0.0329  0.6675 -0.3616
   82MOL    O1845540   8.113   6.681   3.998  0.4592 -0.9051 -0.0817
   82MOL    H1945541   0.110   6.469   4.295  0.9157  1.6587 -1.6107
   82MOL    H2045542   0.014   6.254   4.386 -0.4862 -0.6737  0.3121
   82MOL    H2145543   7.768   6.038   4.390 -0.6938  1.0771  0.8119
   82MOL    H2245544   7.537   6.104   4.378 -0.5725 -0.0598 -0.3686
   82MOL    H2345545   7.380   6.279   4.428  0.8460 -2.0536  1.0788
   82MOL    H2445546   7.465   6.622   4.497 -1.1248  0.9393  0.0976
   82MOL    H2545547   7.696   6.560   4.509  0.0708 -0.2991 -0.4155
   82MOL    H2645548   7.868   6.382   4.463 -0.2897  1.2355  0.9092
   82MOL    H2745549   7.806   6.317   4.138  0.4986  0.8674  0.8659
   82MOL    H2845550   7.901   6.522   4.043 -1.3825 -0.1515  0.1027
   82MOL    H2945551   0.057   6.694   4.187  1.1917  1.8712 -2.2821
   82MOL    C3045552   7.345   6.525   4.621 -0.0083 -0.1935  0.5769
   82MOL    C3145553   7.266   6.650   4.648  0.1501 -0.5552  0.7156
   82MOL    C3245554   7.208   6.724   4.543  0.5685  0.1114 -0.9140
   82MOL    C3345555   7.162   6.853   4.560  0.3842  0.6280  0.0408
   82MOL    C3445556   7.159   6.911   4.690 -0.1185 -0.1602  0.9463
   82MOL    C3545557   7.100   7.051   4.711 -0.1524 -0.4426 -0.8489
   82MOL    N3645558   7.011   7.091   4.619 -0.5603  0.4095 -0.4992
   82MOL    C3745559   6.946   7.211   4.606 -0.0630 -0.8400 -0.0876
   82MOL    C3845560   6.825   7.214   4.530  0.2227 -0.3152  0.3391
   82MOL    C3945561   6.759   7.331   4.503  0.2152 -0.2482  0.1667
   82MOL    C4045562   6.824   7.453   4.527  0.1637  0.1863 -0.0666
   82MOL    N4145563   6.766   7.575   4.481  0.0702  0.4664  0.2951
   82MOL    C4245564   6.950   7.450   4.585  0.8655  0.2976  0.2471
   82MOL    C4345565   7.015   7.338   4.625 -0.4076  1.1014 -0.5306
   82MOL    O4445566   7.126   7.126   4.802 -0.3434  0.1875 -0.0158
   82MOL    C4545567   7.218   6.838   4.795  0.4137 -0.2031  0.3520
   82MOL    C4645568   7.276   6.713   4.777 -0.0057  0.6435 -0.5832
   82MOL    O4745569   7.333   6.424   4.689  0.0841 -0.7117  0.0458
   82MOL    H4845570   7.202   6.682   4.444  1.3429 -0.4072 -0.7501
   82MOL    H4945571   7.121   6.906   4.475  1.7786  4.0715  1.4124
   82MOL    H5045572   6.985   7.016   4.557 -1.4929 -0.5159  0.9887
   82MOL    H5145573   6.785   7.126   4.481 -0.3168 -0.2283  0.6240
   82MOL    H5245574   6.675   7.318   4.437  0.4293  1.6263 -0.4958
   82MOL    H5345575   6.743   7.643   4.553  0.1016  0.5902  0.1893
   82MOL    H5445576   7.003   7.542   4.601  1.0190  0.4185 -0.8921
   82MOL    H5545577   7.121   7.343   4.646 -0.6018 -0.3528  0.8793
   82MOL    H5645578   7.207   6.883   4.892  0.6580 -1.0142  0.7605
   82MOL    H5745579   7.336   6.661   4.850 -2.4672 -1.8127 -0.2306
   82MOL    C5845580   6.746   7.607   4.353  0.1930  0.6031 -0.1091
   82MOL    C5945581   6.653   7.721   4.315 -0.0889  0.3038  0.0470
   82MOL    C6045582   6.683   7.799   4.200  0.6658  0.0329  0.8254
   82MOL    C6145583   6.609   7.908   4.161 -0.0675  0.5306  0.3604
   82MOL    C6245584   6.493   7.943   4.239  0.5928 -0.2561 -0.1254
   82MOL    C6345585   6.404   8.055   4.193  0.5772 -0.1195  0.0720
   82MOL    N6445586   6.459   0.019   4.140 -0.0269 -0.1332 -0.4973
   82MOL    C6545587   6.587   0.061   4.164 -0.3916  0.2663  0.2717
   82MOL    C6645588   6.648   0.074   4.294  1.0224 -0.1049  0.2033
   82MOL    C6745589   6.788   0.114   4.307  1.1345  0.2557  0.3480
   82MOL    C6845590   6.856   0.147   4.190 -0.0614  1.2164 -0.3090
   82MOL    N6945591   6.999   0.182   4.195 -0.0447 -0.1570 -0.8736
   82MOL    C7045592   6.796   0.133   4.064 -0.1102  0.4875  0.8952
   82MOL    C7145593   6.657   0.103   4.050 -0.1059 -0.3226 -0.2427
   82MOL    O7245594   6.281   8.035   4.189  0.3186 -0.2972 -0.0981
   82MOL    C7345595   6.466   7.875   4.360 -0.5533  0.0843 -0.3428
   82MOL    C7445596   6.548   7.762   4.398  0.2185 -0.1117 -0.3005
   82MOL    O7545597   6.797   7.540   4.264  0.4897  0.3779 -0.0591
   82MOL    H7645598   6.752   7.751   4.132  1.1338  2.6341 -0.5879
   82MOL    H7745599   6.625   7.956   4.065 -0.2204  0.7992  0.4672
   82MOL    H7845600   6.402   0.069   4.074  0.4394  3.0377  1.4102
   82MOL    H7945601   6.601   0.049   4.388 -1.1206 -0.4158 -0.9223
   82MOL    H8045602   6.828   0.117   4.407  0.0246  0.5606  0.7802
   82MOL    H8145603   7.056   0.141   4.122 -0.1123 -1.0223 -0.4429
   82MOL    H8245604   6.849   0.154   3.972 -2.4927 -0.4438 -0.7523
   82MOL    H8345605   6.611   0.112   3.953 -1.7162  0.2199  0.5556
   82MOL    H8445606   6.386   7.909   4.423 -1.8430  0.2783 -2.0466
   82MOL    H8545607   6.525   7.718   4.494  2.8890  1.2213  0.9961
   82MOL    C8645608   7.065   0.241   4.287  0.2353  0.0280 -0.8421
   82MOL    C8745609   7.207   0.245   4.266  0.6119  0.6754 -0.1444
   82MOL    C8845610   7.281   0.127   4.294  0.4253  0.3091  0.4555
   82MOL    C8945611   7.420   0.124   4.269 -0.1511 -0.0705  0.1849
   82MOL    C9045612   7.479   0.235   4.204  0.3882 -0.2912  0.2692
   82MOL    C9145613   7.626   0.231   4.166  0.1996 -0.9985 -0.2867
   82MOL    N9245614   7.685   0.351   4.151 -0.6803  0.2908  0.0965
   82MOL    C9345615   7.825   0.369   4.119  0.1952  0.8453 -0.3122
   82MOL    C9445616   7.924   0.285   4.164 -0.3059 -0.0486  0.5401
   82MOL    C9545617   8.060   0.315   4.141  0.1454  0.4708  0.8068
   82MOL    C9645618   8.092   0.416   4.050 -0.1085 -0.3521  0.1821
   82MOL    N9745619   0.082   0.435   4.030 -0.6211  0.4559 -0.9483
   82MOL    C9845620   7.996   0.506   4.004  1.0005  0.3662  0.1121
   82MOL    C9945621   7.858   0.477   4.035 -0.2371 -0.0133 -0.1303
   82MOL   O10045622   7.684   0.121   4.142  0.5453  0.2292 -0.0755
   82MOL   C10145623   7.402   0.351   4.173 -0.4593 -0.4199  0.5967
   82MOL   C10245624   7.268   0.355   4.210 -0.2936  0.0650  0.2019
   82MOL   O10345625   7.022   0.309   4.382 -0.5602 -0.7693 -0.1882
   82MOL   H10445626   7.235   0.040   4.338  0.5205 -0.5780 -1.1403
   82MOL   H10545627   7.484   0.043   4.301  1.2127  0.9521  0.0866
   82MOL   H10645628   7.624   0.430   4.163 -2.1923 -0.8580  0.1014
   82MOL   H10745629   7.905   0.200   4.229 -1.3284 -0.9196 -0.8776
   82MOL   H10845630   8.145   0.266   4.184 -0.1703  0.8059  1.8248
   82MOL   H10945631   0.136   0.407   4.110 -1.5751  0.4718 -0.2919
   82MOL   H11045632   8.022   0.586   3.936 -3.8318  2.0859  0.0854
   82MOL   H11145633   7.775   0.529   3.989 -1.2104 -0.7759  0.7456
   82MOL   H11245634   7.451   0.434   4.125 -0.6648 -0.1039  0.9342
   82MOL   H11345635   7.212   0.446   4.198  1.0631  0.9844  0.7336
   82MOL   C11445636   0.144   0.482   3.921  0.0841 -1.0355 -0.1378
   82MOL   C11545637   0.293   0.509   3.951 -0.6609  0.6208  0.9118
   82MOL   C11645638   0.363   0.610   3.885 -0.2300 -0.0453  0.5481
   82MOL   C11745639   0.501   0.624   3.914 -0.3951  0.1365  0.5608
   82MOL   C11845640   0.572   0.532   3.991 -0.3067  0.0133 -0.8110
   82MOL   C11945641   0.718   0.550   4.023 -1.0182  0.0222 -0.0746
   82MOL   N12045642   0.796   0.573   3.916  0.2926 -0.2098 -0.6647
   82MOL   C12145643   0.941   0.589   3.912 -0.1918  0.2434  0.4574
   82MOL   C12245644   1.016   0.528   3.809 -0.1907  0.1883 -0.7887
   82MOL   C12345645   1.156   0.546   3.808 -0.2289  0.4142  0.0073
   82MOL   C12445646   1.220   0.621   3.908  0.5387 -0.3778 -0.5933
   82MOL   N12545647   1.364   0.634   3.922 -0.0197  0.1593 -0.4962
   82MOL   C12645648   1.141   0.693   4.004 -1.3658  0.2683  0.1444
   82MOL   C12745649   1.004   0.668   4.013  0.1891  0.0780  0.1266
   82MOL   O12845650   0.758   0.521   4.141 -0.2830 -0.4168  0.1032
   82MOL   C12945651   0.496   0.428   4.054 -0.2120  0.1332  0.6551
   82MOL   C13045652   0.359   0.416   4.040 -0.1579  0.3236  0.0106
   82MOL   O13145653   0.093   0.504   3.810 -0.6738 -0.0921 -0.7376
   82MOL   H13245654   0.306   0.671   3.817  1.7073  0.1376 -0.9523
   82MOL   H13345655   0.550   0.709   3.868  1.9648 -1.9818 -0.9498
   82MOL   H13445656   0.739   0.550   3.836 -1.7476 -0.2772  0.7952
   82MOL   H13545657   0.973   0.455   3.741 -2.1964  1.3569 -0.8267
   82MOL   H13645658   1.212   0.497   3.730  0.9311  0.1118  1.0295
   82MOL   H13745659   1.413   0.718   3.893  0.5140 -0.4062 -1.2519
   82MOL   H13845660   1.192   0.744   4.084  0.3770  1.6656 -1.8033
   82MOL   H13945661   0.953   0.710   4.099 -0.1877 -0.5217  0.1924
   82MOL   H14045662   0.549   0.349   4.104  1.1750 -0.5511 -1.8217
   82MOL   H14145663   0.310   0.332   4.086 -0.8796  0.2758 -0.8427
   82MOL   C14245664   1.451   0.557   3.988 -0.0189 -0.6531 -0.0931
   82MOL   C14345665   1.417   0.417   4.026  0.0104  0.2889  0.3078
   82MOL   C14445666   1.293   0.387   4.086 -0.0603  1.1715 -0.7776
   82MOL   C14545667   1.243   0.254   4.096 -0.2542 -0.6884  0.1673
   82MOL   C14645668   1.324   0.143   4.052  0.4154  0.2947  0.0906
   82MOL   C14745669   1.268   0.001   4.054 -0.6313  0.2007  0.0243
   82MOL   N14845670   1.137   8.126   4.079 -0.4962  0.5920 -0.3674
   82MOL   C14945671   1.063   8.002   4.065 -1.0189  0.0856  0.5452
   82MOL   C15045672   0.924   8.027   4.053  0.3488 -0.7013 -0.2914
   82MOL   C15145673   0.833   7.921   4.045  0.1364  0.3119 -0.4803
   82MOL   C15245674   0.884   7.785   4.044  0.1628 -0.8061  0.2247
   82MOL   N15345675   0.789   7.684   4.016  0.2173  0.8711 -0.0090
   82MOL   C15445676   1.023   7.764   4.047 -0.4619 -0.0038  0.8873
   82MOL   C15545677   1.109   7.867   4.059 -0.5811 -0.7357 -0.3274
   82MOL   O15645678   1.342   8.057   4.026  0.0135  0.0361  0.8911
   82MOL   C15745679   1.451   0.175   4.000 -0.8610 -0.7518 -0.5396
   82MOL   C15845680   1.495   0.307   3.984  0.2124 -0.7335 -0.5817
   82MOL   O15945681   1.563   0.609   4.002 -0.2481  0.2278  0.0786
   82MOL   H16045682   1.228   0.466   4.121 -1.5256 -0.7602  0.9746
   82MOL   H16145683   1.143   0.228   4.130  0.1368  0.0192  1.8808
   82MOL   H16245684   1.082   0.064   4.090  0.1195  0.9046  0.3850
   82MOL   H16345685   0.887   8.128   4.041 -0.1909 -0.8371  0.1982
   82MOL   H16445686   0.727   7.939   4.045  0.2497  1.1493  1.9361
   82MOL   H16545687   0.693   7.702   4.041  0.7223  0.6991  2.1688
   82MOL   H16645688   1.065   7.664   4.040 -0.7374 -0.0297 -0.5955
   82MOL   H16745689   1.214   7.855   4.082 -1.4441 -1.7218  3.4426
   82MOL   H16845690   1.510   0.093   3.964 -0.2009 -0.0549 -1.0603
   82MOL   H16945691   1.592   0.329   3.942  0.5166  1.2716  1.0824
   82MOL   C17045692   0.805   7.577   3.933 -0.1661  0.2628 -0.5939
   82MOL   C17145693   0.676   7.504   3.903 -0.1287 -0.2393 -0.8706
   82MOL   C17245694   0.571   7.498   3.995 -0.5610 -0.3425  0.0973
   82MOL   C17345695   0.448   7.438   3.962 -0.6522  0.0605 -0.7794
   82MOL   C17445696   0.435   7.374   3.836 -0.6985 -0.6234  0.2619
   82MOL   C17545697   0.314   7.286   3.813 -0.7817  0.7653  0.3285
   82MOL   N17645698   0.327   7.185   3.728 -0.5197 -0.3466  0.1480
   82MOL   C17745699   0.255   7.064   3.720 -0.8403 -0.5242 -0.0058
   82MOL   C17845700   0.150   7.024   3.810  0.2842  0.4282 -0.3880
   82MOL   C17945701   0.083   6.896   3.799 -0.1427 -0.6279  0.1469
   82MOL   C18045702   0.124   6.803   3.703  0.0754 -0.3294  0.3831
   82MOL   N18145703   0.087   6.671   3.715  0.2586  0.7743  0.2337
   82MOL   C18245704   0.222   6.848   3.613  0.2178  0.4053 -0.7110
   82MOL   C18345705   0.293   6.969   3.623 -0.2486  0.5044 -0.4079
   82MOL   O18445706   0.206   7.314   3.870 -0.7003 -0.0146  0.7196
   82MOL   C18545707   0.545   7.368   3.752 -0.5117 -0.3281  0.5462
   82MOL   C18645708   0.658   7.447   3.778 -0.3622  0.3067  0.8289
   82MOL   O18745709   0.907   7.549   3.878  0.0021  0.8496  0.0125
   82MOL   H18845710   0.589   7.541   4.093  1.5765  0.6534 -0.6967
   82MOL   H18945711   0.371   7.450   4.037  0.0538  2.3831 -0.3619
   82MOL   H19045712   0.417   7.191   3.682 -0.4523  1.3672  0.4775
   82MOL   H19145713   0.110   7.081   3.892  1.0446 -0.8264  0.8688
   82MOL   H19245714   0.003   6.873   3.867  0.8983 -1.6448  1.0482
   82MOL   H19345715   0.079   6.636   3.810  0.1134 -1.1105 -0.4550
   82MOL   H19445716   0.264   6.777   3.543 -0.5297 -1.0969  0.3523
   82MOL   H19545717   0.362   6.989   3.543 -0.8061  0.4417 -0.9083
   82MOL   H19645718   0.542   7.316   3.658 -0.4186  1.4085 -0.4551
   82MOL   H19745719   0.744   7.442   3.712  0.0334 -0.5106  1.3967
   82MOL   C19845720   0.055   6.583   3.615 -0.7146  0.2965 -0.0061
   82MOL   C19945721   0.027   6.441   3.657 -0.0756 -0.0999  0.3112
   82MOL   C20045722   8.120   6.344   3.571  0.1727  0.1986  0.0836
   82MOL   C20145723   8.107   6.212   3.614  0.3578 -0.6660 -0.2283
   82MOL   C20245724   8.139   6.178   3.743 -0.4185 -0.3178  0.2662
   82MOL   C20345725   0.002   6.036   3.791 -0.7211 -0.7549  0.5903
   82MOL   N20445726   0.025   5.952   3.692  0.4896 -0.7350  0.2534
   82MOL   C20545727   0.020   5.807   3.694  0.0764 -0.9087 -0.2983
   82MOL   C20645728   8.140   5.750   3.565  0.5691 -0.1145  0.7189
   82MOL   C20745729   8.128   5.612   3.560  0.0485  0.2114  0.4964
   82MOL   C20845730   0.003   5.531   3.674 -0.7793 -0.3684  0.3946
   82MOL   N20945731   8.132   5.389   3.665  0.5895  0.0382  0.2149
   82MOL   C21045732   0.030   5.588   3.804 -0.0049  0.2287  0.2902
   82MOL   C21145733   0.036   5.730   3.810 -0.0122  0.5787 -0.7581
   82MOL   O21245734   8.145   6.005   3.911 -0.1432  0.7015  0.2070
   82MOL   C21345735   0.043   6.273   3.830  0.2321  0.0205  0.2802
   82MOL   C21445736   0.058   6.403   3.789 -0.1808  0.1159  0.3907
   82MOL   O21545737   0.028   6.625   3.500  0.3668  0.0050  0.4437
   82MOL   H21645738   8.101   6.359   3.465 -0.2106  2.5471  0.4461
   82MOL   H21745739   8.070   6.143   3.539 -4.5341  0.3228  1.1323
   82MOL   H21845740   0.016   5.992   3.600  0.8203  0.1882  0.6246
   82MOL   H21945741   8.135   5.794   3.467 -2.8317 -0.6845  0.6090
   82MOL   H22045742   8.115   5.568   3.463 -2.9303  2.0105  0.0259
   82MOL   H22145743   0.009   5.341   3.751 -1.4464 -0.4723  0.4742
   82MOL   H22245744   0.052   5.531   3.893  2.6649 -0.8007 -0.9669
   82MOL   H22345745   0.045   5.772   3.909 -0.6990  0.6867 -0.7349
   82MOL   H22445746   0.076   6.242   3.928  0.4099 -1.2540 -0.1717
   82MOL   H22545747   0.083   6.473   3.867 -0.6299  0.3472  0.3273
   82MOL   C22645748   8.086   5.308   3.565  0.2210 -0.2781 -0.1735
   82MOL   C22745749   8.074   5.163   3.599  0.2117 -0.1083 -0.7446
   82MOL   C22845750   8.042   5.129   3.733 -0.1038 -0.5577  0.3394
   82MOL   C22945751   8.020   4.997   3.769 -0.2809  0.3482 -0.1166
   82MOL   C23045752   8.012   4.903   3.674 -0.8037  0.2448 -0.3388
   82MOL   C23145753   7.986   4.756   3.712  0.3972  0.0793  0.1281
   82MOL   N23245754   8.019   4.710   3.834  0.0342 -0.5040 -0.2598
   82MOL   C23345755   7.998   4.576   3.885 -0.2035  0.4826  0.2687
   82MOL   C23445756   7.949   4.572   4.013 -0.3410  0.3759 -0.1128
   82MOL   C23545757   7.928   4.444   4.080 -0.3694  0.4162 -0.1954
   82MOL   C23645758   7.950   4.326   4.008 -0.7487 -0.2756  0.0270
   82MOL   N23745759   7.905   4.204   4.065 -0.7481 -0.5266 -0.4434
   82MOL   C23845760   7.993   4.323   3.876 -0.2577  0.1462 -0.0065
   82MOL   C23945761   8.013   4.449   3.814 -0.3181 -0.5355  0.4085
   82MOL   O24045762   7.935   4.678   3.630 -0.5721  0.2272  0.2568
   82MOL   C24145763   8.031   4.935   3.534  0.5931 -0.9332  0.6123
   82MOL   C24245764   8.065   5.067   3.494  0.1030 -0.1383  0.3781
   82MOL   O24345765   8.067   5.349   3.451 -0.0991  0.2009  0.4929
   82MOL   H24445766   8.032   5.208   3.806 -1.8808  0.8525 -1.3955
   82MOL   H24545767   8.000   4.974   3.873  1.6526  0.0940  0.2169
   82MOL   H24645768   8.046   4.781   3.901 -1.2342  2.1058 -2.3670
   82MOL   H24745769   7.928   4.660   4.072 -0.3792  0.3259 -0.0514
   82MOL   H24845770   7.887   4.449   4.180 -1.7854  2.1878 -0.8354
   82MOL   H24945771   7.821   4.222   4.119  0.0941  1.1681  0.3346
   82MOL   H25045772   7.998   4.236   3.812  0.0106  0.7074 -0.7458
   82MOL   H25145773   8.039   4.450   3.710 -0.0329  1.3227  0.4729
   82MOL   H25245774   8.029   4.864   3.453  2.2986 -1.6222  1.1388
   82MOL   H25345775   8.078   5.092   3.390 -1.0086 -0.1775  0.2260
   82MOL   C25445776   7.955   4.076   4.065  0.7133 -0.4870 -0.0904
   82MOL   C25545777   7.876   3.985   4.154 -0.2747  0.3201  0.0204
   82MOL   C25645778   7.913   3.849   4.157  0.0494 -0.6137 -0.4114
   82MOL   C25745779   7.866   3.773   4.269  0.5945  0.2820  0.0934
   82MOL   C25845780   7.771   3.823   4.361 -0.0814  0.0121 -0.9155
   82MOL   C25945781   7.722   3.741   4.476  0.3619  0.1477  0.6444
   82MOL   N26045782   7.664   3.810   4.573  0.5076  0.1858 -0.6989
   82MOL   C26145783   7.602   3.757   4.693 -0.4844  0.5272 -0.1095
   82MOL   C26245784   7.600   3.835   4.808 -0.5190  0.1414  0.0290
   82MOL   C26345785   7.513   3.805   4.915  0.6596 -0.2320  0.4142
   82MOL   C26445786   7.457   3.677   4.926 -0.3289 -0.5628  0.0460
   82MOL   N26545787   7.380   3.640   5.037  0.3671 -0.0559  0.4254
   82MOL   C26645788   7.457   3.590   4.810  0.9716  0.1843  0.1931
   82MOL   C26745789   7.527   3.639   4.692  0.2062 -0.6322 -0.4887
   82MOL   O26845790   7.727   3.621   4.469 -0.1676 -0.2119 -0.3030
   82MOL   C26945791   7.729   3.956   4.345 -0.3915  0.2020 -0.7403
   82MOL   C27045792   7.785   4.034   4.249 -0.2445 -1.0487  0.1665
   82MOL   O27145793   8.061   4.039   4.012  0.1640  0.6094  0.6511
   82MOL   H27245794   7.978   3.793   4.091 -3.1714 -3.3363 -1.3800
   82MOL   H27345795   7.899   3.670   4.271  1.5833  0.6046  2.0159
   82MOL   H27445796   7.680   3.909   4.565  0.4165  0.4278  1.7262
   82MOL   H27545797   7.654   3.928   4.818 -0.1984 -0.2265  1.9457
   82MOL   H27645798   7.505   3.878   4.994  0.1966  1.5956 -1.2921
   82MOL   H27745799   7.348   3.715   5.097  0.4830 -1.0536  1.7666
   82MOL   H27845800   7.401   3.498   4.800 -0.4689  0.9013  1.4683
   82MOL   H27945801   7.518   3.577   4.604 -2.4801 -0.2411 -0.5246
   82MOL   H28045802   7.656   3.997   4.414  1.0011  2.1178 -0.3453
   82MOL   H28145803   7.756   4.138   4.252 -1.8416 -1.4870  0.2072
   82MOL   C28245804   7.355   3.518   5.092 -0.1691  0.0429 -0.0246
   82MOL   C28345805   7.254   3.534   5.203  0.0571 -0.3276 -0.0293
   82MOL   C28445806   7.179   3.427   5.247  0.4611  0.4588  0.5532
   82MOL   C28545807   7.079   3.438   5.353 -0.2295 -0.6211  0.0744
   82MOL   C28645808   7.079   3.560   5.427 -0.0278  0.5389 -0.1607
   82MOL   C28745809   6.987   3.569   5.546  0.9343  0.0273 -0.4690
   82MOL   N28845810   7.008   3.664   5.639  0.7199  0.8273 -0.2996
   82MOL   C28945811   6.921   3.707   5.742  0.4095 -0.0444 -0.2764
   82MOL   C29045812   6.781   3.711   5.724 -1.0009  0.9004  0.1254
   82MOL   C29145813   6.696   3.774   5.818  0.8309 -0.5278  0.4836
   82MOL   C29245814   6.752   3.834   5.927  0.8020 -0.0881  0.1251
   82MOL   N29345815   6.661   3.905   6.012 -0.4690 -0.2356 -0.0013
   82MOL   C29445816   6.889   3.822   5.958 -0.0727  0.0741  0.3155
   82MOL   C29545817   6.976   3.753   5.863  0.0753  0.0933 -0.1675
   82MOL   O29645818   6.896   3.487   5.557  0.2676  0.1433 -0.0757
   82MOL   C29745819   7.170   3.668   5.395  0.0036 -0.1711  0.1375
   82MOL   C29845820   7.249   3.658   5.280  0.0766 -0.0224 -0.2217
   82MOL   O29945821   7.398   3.414   5.045  0.2106  0.5326 -0.4575
   82MOL   H30045822   7.204   3.334   5.198  2.0013  0.8001  0.6584
   82MOL   H30145823   7.015   3.354   5.376 -0.8350  0.3850  2.1971
   82MOL   H30245824   7.094   3.717   5.631 -1.5049  4.6353 -0.0565
   82MOL   H30345825   6.736   3.672   5.635 -0.8472 -2.0771  1.3126
   82MOL   H30445826   6.591   3.780   5.792  1.2912 -0.3554 -1.4201
   82MOL   H30545827   6.573   3.858   6.030  0.0860 -0.3973  2.3653
   82MOL   H30645828   6.933   3.868   6.045 -1.5521  0.3414  0.9285
   82MOL   H30745829   7.080   3.771   5.886  0.8570 -2.7465 -1.2204
   82MOL   H30845830   7.174   3.758   5.453 -0.2379 -0.2477  0.2758
   82MOL   H30945831   7.317   3.740   5.262  0.3593 -0.5699 -1.7130
   82MOL   C31045832   6.682   4.023   6.076  0.3585  0.7862 -0.3084
   82MOL   C31145833   6.789   4.113   6.039 -0.0251 -0.7122  0.3265
   82MOL   C31245834   6.819   4.146   5.905 -0.4071  0.0424  0.1641
   82MOL   C31345835   6.931   4.225   5.867  0.9063  0.4123 -0.4552
   82MOL   C31445836   7.018   4.273   5.970  0.0110  0.1573 -0.0694
   82MOL   C31545837   7.148   4.353   5.939 -0.1413 -0.5672 -0.9273
   82MOL   N31645838   7.152   4.400   5.810 -0.3418  1.0934 -0.3254
   82MOL   C31745839   7.260   4.430   5.721 -0.4677 -0.2388 -0.8183
   82MOL   C31845840   7.258   4.369   5.596  0.0932 -1.0102  0.0534
   82MOL   C31945841   7.360   4.400   5.499 -0.2009 -0.2654  0.0194
   82MOL   C32045842   7.461   4.498   5.529  0.4435  0.3871 -0.3497
   82MOL   N32145843   7.557   4.533   5.433  0.5020 -0.1421 -0.0975
   82MOL   C32245844   7.462   4.558   5.657 -0.1458 -0.7507  0.0873
   82MOL   C32345845   7.362   4.522   5.748 -0.6078  0.2207  0.4163
   82MOL   O32445846   7.234   4.377   6.021  0.2863  0.2943  0.1464
   82MOL   C32545847   6.986   4.237   6.100 -0.1718  0.1173 -0.3915
   82MOL   C32645848   6.869   4.168   6.139 -1.0119 -0.1406  0.7459
   82MOL   O32745849   6.607   4.060   6.165  0.1270  0.1473 -0.1573
   82MOL   H32845850   6.766   4.097   5.824 -0.1373  1.6595 -1.0130
   82MOL   H32945851   6.963   4.249   5.767 -1.0902  0.0706 -1.2066
   82MOL   H33045852   7.059   4.391   5.773 -1.4564 -1.1864  2.8260
   82MOL   H33145853   7.181   4.303   5.558  0.7574 -1.4300 -0.6045
   82MOL   H33245854   7.355   4.365   5.397 -0.5126 -3.3020  1.0484
   82MOL   H33345855   7.584   4.631   5.434 -1.9795  0.5688  0.3038
   82MOL   H33445856   7.527   4.643   5.674  0.9851 -1.7296  0.7505
   82MOL   H33545857   7.349   4.584   5.836 -0.4182  0.0337  0.5750
   82MOL   H33645858   7.044   4.277   6.182 -1.4460  2.0784 -0.4095
   82MOL   H33745859   6.847   4.162   6.245  1.6957  1.6831  1.4608
   82MOL   C33845860   7.617   4.460   5.335  0.1669  0.0684 -0.8993
   82MOL   C33945861   7.734   4.520   5.260  0.1700  0.2932 -0.2169
   82MOL   C34045862   7.754   4.656   5.251 -0.0281  0.0296  0.5714
   82MOL   C34145863   7.846   4.706   5.155 -1.0198  0.0618 -0.1627
   82MOL   C34245864   7.930   4.623   5.077  0.4613  0.3660  0.1830
   82MOL   C34345865   8.030   4.676   4.977 -0.2405  0.8725 -0.3011
   82MOL   N34445866   7.986   4.766   4.891  0.1491 -0.5119 -0.0613
   82MOL   C34545867   7.844   4.793   4.867  0.2177 -0.2149  0.1618
   82MOL   C34645868   7.777   4.900   4.933 -0.3995  0.5344 -0.3709
   82MOL   C34745869   7.642   4.931   4.900  0.0312 -0.2533 -0.2249
   82MOL   C34845870   7.576   4.857   4.799 -0.3944 -0.2482  0.0685
   82MOL   N34945871   7.448   4.878   4.755 -0.6065  0.5909  0.1514
   82MOL   C35045872   7.647   4.759   4.735  0.1620  0.7029  0.0372
   82MOL   C35145873   7.779   4.725   4.763 -0.7658 -0.2467 -0.0429
   82MOL   O35245874   8.145   4.633   4.961 -0.0782 -0.5031  0.2871
   82MOL   C35345875   7.919   4.482   5.098 -0.0320 -0.1326 -0.7595
   82MOL   C35445876   7.813   4.435   5.182 -0.6349  0.5273  0.1737
   82MOL   O35545877   7.583   4.345   5.306 -0.2093 -0.5195 -0.1713
   82MOL   H35645878   7.705   4.730   5.313 -0.1224  1.0154 -0.6671
   82MOL   H35745879   7.875   4.810   5.167  2.8537 -0.9940  0.2661
   82MOL   H35845880   8.054   4.801   4.826 -2.0538  0.6619 -1.8058
   82MOL   H35945881   7.834   4.957   5.006  0.8377 -0.2630 -0.7152
   82MOL   H36045882   7.582   5.014   4.934  0.4813  0.8347 -1.9989
   82MOL   H36145883   7.420   4.860   4.659 -3.6246 -2.5415  1.5235
   82MOL   H36245884   7.585   4.720   4.656 -0.5008  2.2112 -0.1868
   82MOL   H36345885   7.828   4.650   4.703 -2.7665  0.0611 -2.1117
   82MOL   H36445886   7.970   4.412   5.034 -0.4268 -0.4615 -0.7164
   82MOL   H36545887   7.808   4.327   5.177 -2.6217  0.6790 -1.5020
   82MOL   C36645888   7.341   4.913   4.827  0.0956 -0.0048  0.7528
   82MOL   C36745889   7.222   4.959   4.745 -0.4576  0.8970  0.4466
   82MOL   C36845890   7.092   4.935   4.799 -0.3794 -0.8887 -0.4786
   82MOL   C36945891   6.981   4.986   4.729  0.2238 -0.4621 -0.0994
   82MOL   C37045892   6.999   5.071   4.616  0.0642 -0.0603  0.0261
   82MOL   C37145893   6.874   5.128   4.548  0.5908 -0.2984 -0.1101
   82MOL   N37245894   6.845   5.077   4.432  0.0745  0.0965  0.1094
   82MOL   C37345895   6.872   4.949   4.381 -0.3604  0.8706 -0.1861
   82MOL   C37445896   6.863   4.831   4.458 -0.0527  0.5184 -0.6490
   82MOL   C37545897   6.877   4.707   4.391 -0.5034  0.0616 -0.8657
   82MOL   C37645898   6.900   4.701   4.252  0.6483 -0.0203  0.6938
   82MOL   N37745899   6.910   4.574   4.191 -0.1146 -0.2875  0.2797
   82MOL   C37845900   6.916   4.823   4.178 -0.2953 -0.7382 -0.1181
   82MOL   C37945901   6.910   4.951   4.241 -0.2002  0.8602  0.2581
   82MOL   O38045902   6.807   5.220   4.598  0.2078 -0.0217  0.0918
   82MOL   C38145903   7.132   5.087   4.564  0.4750  0.8481  0.2153
   82MOL   C38245904   7.246   5.032   4.626 -0.4810 -0.1721  1.3448
   82MOL   O38345905   7.330   4.914   4.946  0.2406 -0.6027  0.2210
   82MOL   H38445906   7.077   4.890   4.896  0.0937  0.1662  0.0875
   82MOL   H38545907   6.879   4.973   4.763 -0.9301  0.7809 -2.9137
   82MOL   H38645908   6.811   5.144   4.364 -1.8041 -0.6412  0.2896
   82MOL   H38745909   6.841   4.832   4.564  0.4751 -2.0629 -0.4818
   82MOL   H38845910   6.856   4.617   4.448 -1.8343 -0.4088 -2.0648
   82MOL   H38945911   6.950   4.504   4.251  2.7665  1.3133  0.3200
   82MOL   H39045912   6.944   4.815   4.074  0.7654 -1.6470  0.2256
   82MOL   H39145913   6.929   5.039   4.181 -0.6366 -0.8451 -2.5165
   82MOL   H39245914   7.131   5.145   4.472  4.6255  1.5309  0.4965
   82MOL   H39345915   7.339   5.058   4.576 -0.1113 -0.5308  1.8351
   82MOL   C39445916   6.862   4.537   4.067  0.0459 -0.3843  0.0841
   82MOL   C39545917   6.894   4.397   4.024  0.1407  0.4313  0.5250
   82MOL   C39645918   6.800   4.331   3.941 -1.1043  0.2443 -0.2094
   82MOL   C39745919   6.832   4.196   3.903 -0.3663 -0.2935  0.8099
   82MOL   C39845920   6.950   4.135   3.936 -0.8337 -0.6946  0.4007
   82MOL   C39945921   6.975   3.993   3.907  0.3815  0.1242 -0.2497
   82MOL   N40045922   6.931   3.957   3.784 -0.2839  0.1264 -0.1175
   82MOL   C40145923   6.925   3.834   3.719  0.0537  0.4967  0.0504
   82MOL   C40245924   7.013   3.736   3.751  0.7610  0.2509  0.9234
   82MOL   C40345925   7.017   3.616   3.677 -0.0094  0.1294 -0.4569
   82MOL   C40445926   6.929   3.588   3.574  0.0136  0.1054  0.8590
   82MOL   N40545927   6.934   3.466   3.500 -0.4980 -0.6485  0.6577
   82MOL   C40645928   6.840   3.689   3.534 -0.3845  0.1310  0.5641
   82MOL   C40745929   6.839   3.814   3.607  0.2815  1.0587  0.0583
   82MOL   O40845930   7.025   3.923   3.991 -0.1698 -0.3367  0.1520
   82MOL   C40945931   7.040   4.201   4.027 -0.2187  0.0435  0.9695
   82MOL   C41045932   7.013   4.334   4.069 -0.2454  0.2966  0.0419
   82MOL   O41145933   6.806   4.611   3.986 -0.5052 -0.3854 -0.1160
   82MOL   H41245934   6.706   4.367   3.902 -0.6116 -0.0325 -1.6789
   82MOL   H41345935   6.753   4.142   3.852  0.1938 -0.8776  0.5506
   82MOL   H41445936   6.900   4.028   3.720  0.1347  0.4021 -0.0179
   82MOL   H41545937   7.089   3.747   3.827  1.0901 -1.7372  0.9242
   82MOL   H41645938   7.097   3.550   3.707 -0.1389 -0.7518 -2.0389
   82MOL   H41745939   6.999   3.453   3.424 -0.1827 -1.1263  1.0067
   82MOL   H41845940   6.777   3.663   3.451 -1.5684  2.0295  0.8277
   82MOL   H41945941   6.780   3.892   3.561 -0.7962 -0.3069 -0.9557
   82MOL   H42045942   7.131   4.149   4.051  0.6486  1.7563  1.4920
   82MOL   H42145943   7.087   4.375   4.136  0.8974 -2.4823  0.5518
   82MOL   C42245944   6.883   3.352   3.548  0.4445 -0.7622 -0.2238
   82MOL   C42345945   6.916   3.236   3.454  0.4306 -0.5605 -0.1406
   82MOL   C42445946   6.859   3.109   3.482 -0.3794 -0.2851  0.7155
   82MOL   C42545947   6.906   2.998   3.407  0.4267 -0.2098 -0.3631
   82MOL   C42645948   7.001   3.013   3.306 -0.4992  0.1683  0.8629
   82MOL   C42745949   7.062   2.889   3.244  0.6892 -0.2404  0.3092
   82MOL   N42845950   7.141   2.911   3.136 -0.1709 -0.5246  0.0479
   82MOL   C42945951   7.206   2.812   3.050  0.3928  0.0604 -0.3538
   82MOL   C43045952   7.288   2.868   2.947 -0.0300 -0.2972  0.9109
   82MOL   C43145953   7.371   2.790   2.863 -0.0327 -0.6229 -0.6166
   82MOL   C43245954   7.349   2.653   2.868 -0.0316 -0.1531 -0.7349
   82MOL   N43345955   7.433   2.573   2.781  0.9230 -0.3736 -0.2288
   82MOL   C43445956   7.253   2.595   2.956  0.7055  0.0562  0.1118
   82MOL   C43545957   7.188   2.673   3.052 -0.3032  0.2135  0.0845
   82MOL   O43645958   7.027   2.776   3.279 -0.7516  0.0366  0.0051
   82MOL   C43745959   7.049   3.140   3.273 -0.2130 -0.2620 -0.8701
   82MOL   C43845960   7.006   3.252   3.348 -0.1199 -0.3641  0.0835
   82MOL   O43945961   6.806   3.340   3.645  0.1735  0.7091  0.8221
   82MOL   H44045962   6.788   3.096   3.562 -1.5138 -0.3885 -0.2849
   82MOL   H44145963   6.872   2.900   3.439  0.8199 -0.6408 -1.2242
   82MOL   H44245964   7.152   3.009   3.113 -2.6623  0.0900  1.2196
   82MOL   H44345965   7.303   2.975   2.940 -0.4876 -0.3489 -1.2346
   82MOL   H44445966   7.456   2.828   2.808 -1.2365 -0.7531 -2.6100
   82MOL   H44545967   7.486   2.622   2.711  3.0954  0.7776  2.1577
   82MOL   H44645968   7.246   2.487   2.961  0.0006  0.0338 -1.0677
   82MOL   H44745969   7.137   2.616   3.129 -1.7961  0.4760 -0.6933
   82MOL   H44845970   7.118   3.161   3.192  0.1018 -0.5716 -0.6860
   82MOL   H44945971   7.054   3.343   3.316  1.7948 -1.9214 -1.6303
   82MOL   C45045972   7.478   2.444   2.797  0.3275 -0.1966 -0.0974
   82MOL   C45145973   7.570   2.404   2.685 -1.0075  0.0096 -0.5460
   82MOL   C45245974   7.628   2.499   2.602  0.1918  0.2518 -0.4927
   82MOL   C45345975   7.713   2.458   2.508 -0.3524 -0.1146  0.8238
   82MOL   C45445976   7.741   2.323   2.485 -0.0626 -0.5560  0.2473
   82MOL   C45545977   7.834   2.282   2.370 -0.7944  0.3509 -0.0204
   82MOL   N45645978   7.852   2.367   2.263  1.1438  0.1338  0.1454
   82MOL   C45745979   7.959   2.360   2.174  0.3268  0.5670 -0.0203
   82MOL   C45845980   8.091   2.314   2.211  0.1604 -0.5127  0.8028
   82MOL   C45945981   0.053   2.290   2.123  0.8047 -0.2088  0.4798
   82MOL   C46045982   0.028   2.304   1.986 -0.3896  0.7733 -0.6985
   82MOL   N46145983   0.138   2.260   1.909  0.1231  0.2405  0.3853
   82MOL   C46245984   8.049   2.349   1.937  0.2494  0.5946  0.1358
   82MOL   C46345985   7.941   2.379   2.033 -0.2575 -0.1411 -0.0776
   82MOL   O46445986   7.893   2.174   2.379  0.3615 -0.0443 -0.4894
   82MOL   C46545987   7.689   2.226   2.577 -0.0003  0.1292  0.2503
   82MOL   C46645988   7.597   2.269   2.674  0.4567 -0.7015  0.2598
   82MOL   O46745989   7.455   2.367   2.891  0.2862 -0.1651 -0.5073
   82MOL   H46845990   7.609   2.604   2.622 -0.6928  0.0137 -0.0317
   82MOL   H46945991   7.758   2.526   2.436 -0.9865 -1.8502 -1.2881
   82MOL   H47045992   7.786   2.441   2.244  0.1184 -0.7792  0.0957
   82MOL   H47145993   8.112   2.298   2.316  1.1736 -3.4676  0.2014
   82MOL   H47245994   0.153   2.262   2.154  1.2954  2.3369  1.3240
   82MOL   H47345995   0.227   2.233   1.950  0.2813  1.0812  0.5968
   82MOL   H47445996   8.032   2.360   1.831  2.3596  2.7142 -0.0147
   82MOL   H47545997   7.847   2.417   1.997  0.0680 -0.6778 -1.5313
   82MOL   H47645998   7.722   2.123   2.571 -2.8651 -0.7584 -1.2055
   82MOL   H47745999   7.556   2.191   2.736  2.3987 -2.9765 -1.1971
   82MOL   C47846000   0.127   2.192   1.790 -0.7479  0.7513 -0.0381
   82MOL   C47946001   0.241   2.103   1.768  0.0492  0.4627 -0.1992
   82MOL   C48046002   0.379   2.146   1.769 -0.0439  0.4989 -0.9892
   82MOL   C48146003   0.483   2.058   1.793 -0.0278  0.2315  0.2715
   82MOL   C48246004   0.453   1.918   1.810  0.6758 -1.1293  0.3328
   82MOL   C48346005   0.557   1.824   1.854  1.2017 -0.1136 -0.0115
   82MOL   N48446006   0.525   1.729   1.946 -1.0405  0.3635  0.2135
   82MOL   C48546007   0.425   1.738   2.042  0.0535  0.0942 -0.2696
   82MOL   C48646008   0.397   1.855   2.116 -0.5033  0.1624  0.8286
   82MOL   C48746009   0.284   1.857   2.203 -0.2729 -0.2644 -0.1802
   82MOL   C48846010   0.215   1.740   2.237  0.1466 -0.2219 -0.0897
   82MOL   N48946011   0.101   1.746   2.318 -0.0700  0.0160  0.6787
   82MOL   C49046012   0.245   1.623   2.161 -0.5008  0.3376  0.3562
   82MOL   C49146013   0.344   1.625   2.065 -0.0076  0.2646  0.3932
   82MOL   O49246014   0.662   1.812   1.797 -0.3030  0.2776  0.0692
   82MOL   C49346015   0.320   1.871   1.783  0.0035 -1.0074 -0.4217
   82MOL   C49446016   0.215   1.962   1.766 -0.3408 -0.2033 -0.3611
   82MOL   O49546017   0.031   2.203   1.716  0.3364  0.3195 -0.0001
   82MOL   H49646018   0.386   2.254   1.769  2.3414  0.3639 -1.2880
   82MOL   H49746019   0.582   2.097   1.810  0.5970 -1.0450 -0.3096
   82MOL   H49846020   0.595   1.656   1.951 -2.2198 -0.7541  0.9273
   82MOL   H49946021   0.451   1.944   2.086  0.3995 -0.8091 -0.4305
   82MOL   H50046022   0.259   1.949   2.254  2.1333 -0.5486  1.5573
   82MOL   H50146023   0.060   1.837   2.334 -0.7925  0.4610 -3.2213
   82MOL   H50246024   0.188   1.532   2.173 -0.4644  0.5477  2.2250
   82MOL   H50346025   0.367   1.531   2.017  1.0557  0.9971 -0.5503
   82MOL   H50446026   0.288   1.768   1.781  3.0252 -2.0953  1.9050
   82MOL   H50546027   0.112   1.931   1.771  0.5044 -3.0148  0.5262
   82MOL   C50646028   0.053   1.645   2.395  0.0031  0.3830 -0.8047
   82MOL   C50746029   8.082   1.674   2.489 -0.4085 -0.1245 -0.2745
   82MOL   C50846030   8.043   1.578   2.592 -0.0268  0.0626 -0.2803
   82MOL   C50946031   7.942   1.603   2.682  0.2813 -0.2702 -0.8901
   82MOL   C51046032   7.872   1.725   2.676  0.6107  0.0450  0.3345
   82MOL   C51146033   7.767   1.757   2.784  0.6522 -0.3255  0.1795
   82MOL   N51246034   7.698   1.654   2.832  0.6760  0.4891  0.4250
   82MOL   C51346035   7.622   1.640   2.954  0.6730 -0.2851 -0.2123
   82MOL   C51446036   7.542   1.744   3.000 -1.0254 -0.2293 -0.2737
   82MOL   C51546037   7.475   1.735   3.124 -0.1502  0.0164  0.5398
   82MOL   C51646038   7.482   1.615   3.198 -0.5784 -0.0084 -0.7079
   82MOL   N51746039   7.400   1.604   3.319  0.0184  0.0689  0.1635
   82MOL   C51846040   7.563   1.515   3.152  0.1406 -0.3287  0.6553
   82MOL   C51946041   7.646   1.526   3.035  0.3063  0.7023  0.3732
   82MOL   O52046042   7.756   1.873   2.817 -0.6953 -0.2636  0.4284
   82MOL   C52146043   7.907   1.818   2.574 -0.3514  0.5002  0.6459
   82MOL   C52246044   8.006   1.790   2.476 -0.4145  0.3618 -0.0481
   82MOL   O52346045   0.092   1.530   2.390 -0.7654  0.2093 -0.4076
   82MOL   H52446046   8.098   1.487   2.605  2.6645  1.7183  0.2712
   82MOL   H52546047   7.925   1.541   2.769 -1.6638 -1.0410 -1.7915
   82MOL   H52646048   7.730   1.569   2.788  0.2347  0.3797  0.3093
   82MOL   H52746049   7.527   1.831   2.938  4.8176 -0.9041 -2.9903
   82MOL   H52846050   7.416   1.817   3.161 -1.9487  0.4264 -2.9484
   82MOL   H52946051   7.439   1.652   3.399 -0.6535 -0.7855  1.0250
   82MOL   H53046052   7.570   1.421   3.205  1.0641 -1.7194 -1.8282
   82MOL   H53146053   7.715   1.448   3.006 -2.8618 -2.4400  0.8853
   82MOL   H53246054   7.859   1.914   2.565 -1.3581 -0.1201 -0.6786
   82MOL   H53346055   8.018   1.864   2.399 -0.9159 -0.0495 -0.5279
   82MOL   C53446056   7.273   1.565   3.316  0.1132 -0.5289 -0.0490
   82MOL   C53546057   7.192   1.583   3.438 -0.3050 -0.0995  0.6588
   82MOL   C53646058   7.254   1.572   3.563  0.4157  0.4414  0.0525
   82MOL   C53746059   7.177   1.604   3.678  0.7921 -0.8378 -0.0776
   82MOL   C53846060   7.036   1.647   3.667 -0.0981  0.1037 -0.1698
   82MOL   C53946061   6.961   1.674   3.788  0.0936  0.5658  0.3331
   82MOL   N54046062   6.832   1.658   3.781  0.3324  0.5613  1.0802
   82MOL   C54146063   6.732   1.709   3.870  0.4811 -0.0153 -0.2765
   82MOL   C54246064   6.609   1.639   3.904 -0.0352 -0.0404 -0.7291
   82MOL   C54346065   6.526   1.690   3.999 -0.0498  0.8718  1.0261
   82MOL   C54446066   6.548   1.815   4.055 -0.3821  0.5470  0.1852
   82MOL   N54546067   6.464   1.851   4.165  0.2538 -0.0999  0.0575
   82MOL   C54646068   6.647   1.900   4.000 -0.2491 -0.2554  0.2348
   82MOL   C54746069   6.737   1.849   3.909 -0.1437  0.1018 -0.3320
   82MOL   O54846070   7.021   1.711   3.892 -0.4198  0.5912 -0.0736
   82MOL   C54946071   6.979   1.655   3.536 -0.0490  0.2542 -0.1641
   82MOL   C55046072   7.061   1.629   3.425  0.8085 -0.2275 -0.0970
   82MOL   O55146073   7.220   1.522   3.211 -0.2667  0.0256 -0.3040
   82MOL   H55246074   7.353   1.531   3.579  0.7126  1.4266  0.7634
   82MOL   H55346075   7.226   1.595   3.774 -1.1970  1.1797  1.1657
   82MOL   H55446076   6.796   1.606   3.702  0.4976  2.0853 -0.0391
   82MOL   H55546077   6.603   1.535   3.873 -0.0872 -0.2162 -0.1352
   82MOL   H55646078   6.464   1.614   4.045 -0.7407 -0.7445 -2.4241
   82MOL   H55746079   6.460   1.777   4.234 -0.9317  1.4890  1.7304
   82MOL   H55846080   6.670   1.987   4.059 -0.7059  0.8177 -1.1521
   82MOL   H55946081   6.816   1.920   3.887 -1.6626  2.5545  1.8525
   82MOL   H56046082   6.878   1.691   3.523 -0.1690 -0.5298 -1.4951
   82MOL   H56146083   7.025   1.643   3.324  0.5278 -1.7158 -0.2126
   82MOL   H56246084   6.485   1.941   4.205 -1.6569 -0.0668  1.0823
   83MOL     C146085   2.424   0.881   1.396 -1.0281 -0.8067  0.3591
   83MOL     C246086   2.469   0.867   1.534  0.3684  0.1758  1.1668
   83MOL     C346087   2.458   0.738   1.590  0.3228 -0.3607 -0.1850
   83MOL     C446088   2.504   0.724   1.730  0.0740  0.9740 -0.4616
   83MOL     C546089   2.557   0.831   1.806  0.4923 -0.4377  0.3778
   83MOL     C646090   2.596   0.820   1.954 -0.2104  0.4030 -0.0122
   83MOL     N746091   2.657   0.922   2.014  0.1190  0.2409 -0.3195
   83MOL     C846092   2.700   0.919   2.148  0.0149  0.8542  0.6844
   83MOL     C946093   2.727   0.801   2.230  0.6977 -0.2725 -0.2834
   83MOL    C1046094   2.777   0.816   2.361  0.0005 -0.5809 -0.0158
   83MOL    C1146095   2.817   0.944   2.410  0.2108 -0.2784  0.8242
   83MOL    N1246096   2.884   0.970   2.532  0.2575 -0.2318 -0.4033
   83MOL    C1346097   2.787   1.059   2.330  0.3508  0.0317  0.7208
   83MOL    C1446098   2.725   1.038   2.206  0.3236  0.4013  0.3575
   83MOL    O1546099   2.551   0.722   2.016  0.2882 -0.3394 -0.1988
   83MOL    C1646100   2.570   0.956   1.736  0.8597  0.6079 -1.0239
   83MOL    C1746101   2.525   0.970   1.604 -0.1458  0.4011  0.1990
   83MOL    O1846102   2.435   0.981   1.330 -0.4756  0.0144  0.6062
   83MOL    H1946103   2.417   0.654   1.537  0.1484 -1.1595  1.1882
   83MOL    H2046104   2.489   0.635   1.789  1.5224  0.9394 -0.1176
   83MOL    H2146105   2.658   1.011   1.966 -1.7841  1.1221  1.1866
   83MOL    H2246106   2.694   0.701   2.204 -0.0469 -0.4224  1.2077
   83MOL    H2346107   2.789   0.734   2.429  4.1393 -1.6673 -1.9368
   83MOL    H2446108   2.882   1.065   2.567 -2.0223 -1.2231  2.3656
   83MOL    H2546109   2.822   1.160   2.343 -1.2819  0.6203  0.6024
   83MOL    H2646110   2.715   1.126   2.145  0.0868 -0.5819 -1.0288
   83MOL    H2746111   2.600   1.046   1.789 -1.7500  0.9331 -0.0206
   83MOL    H2846112   2.530   1.065   1.553  0.7053  0.0752 -0.3434
   83MOL    H2946113   2.391   0.784   1.358 -2.2720 -1.2401  2.4988
   83MOL    C3046114   2.940   0.884   2.618 -0.2254  0.6699 -0.2354
   83MOL    C3146115   2.982   0.946   2.751  0.1833  0.0382  0.0748
   83MOL    C3246116   2.937   1.073   2.783 -0.0254 -0.5488  0.0251
   83MOL    C3346117   2.968   1.143   2.898 -1.1535 -0.6663  0.9518
   83MOL    C3446118   3.056   1.073   2.991 -0.0072 -0.0011 -0.2394
   83MOL    C3546119   3.083   1.141   3.119 -0.7255  0.7442  0.3165
   83MOL    N3646120   3.064   1.062   3.226  0.6145  0.4616  0.1733
   83MOL    C3746121   3.050   1.093   3.362 -1.0006  0.4772 -0.1050
   83MOL    C3846122   3.066   0.984   3.447 -0.1570  0.3108  0.5043
   83MOL    C3946123   3.051   1.006   3.586 -0.3117  0.3438 -0.2137
   83MOL    C4046124   3.008   1.125   3.635 -0.6192  0.1729 -0.5416
   83MOL    N4146125   2.978   1.141   3.779 -0.0617  0.2647  0.4513
   83MOL    C4246126   2.996   1.237   3.550  0.4190 -0.3995 -0.0141
   83MOL    C4346127   3.030   1.224   3.419  0.2681 -0.0343  0.2213
   83MOL    O4446128   3.110   1.257   3.127  0.1589  0.6849 -0.5600
   83MOL    C4546129   3.110   0.948   2.963  0.3406 -0.3518  0.6548
   83MOL    C4646130   3.081   0.891   2.836 -0.6859  0.2877  0.3057
   83MOL    O4746131   2.961   0.764   2.589  0.2543  0.4877  0.7221
   83MOL    H4846132   2.872   1.130   2.718 -2.6266 -1.7747  1.4736
   83MOL    H4946133   2.938   1.245   2.915  0.9532 -0.1345  1.6425
   83MOL    H5046134   3.045   0.966   3.200 -1.2164  0.7573  0.3460
   83MOL    H5146135   3.091   0.888   3.405 -2.7924  0.0209 -0.4994
   83MOL    H5246136   3.069   0.923   3.654  2.1526  1.7395  0.8924
   83MOL    H5346137   3.044   1.187   3.839 -0.2773 -1.7501  2.2705
   83MOL    H5446138   2.963   1.331   3.591  0.2348 -0.5075  0.0840
   83MOL    H5546139   3.030   1.306   3.348  1.4097  0.3830  0.7009
   83MOL    H5646140   3.183   0.911   3.033  0.0795  0.5325  1.3983
   83MOL    H5746141   3.128   0.797   2.815 -0.9743 -0.0778  1.2858
   83MOL    C5846142   2.856   1.109   3.829  0.2599  0.5505 -0.3042
   83MOL    C5946143   2.749   1.074   3.733 -0.1562 -0.2573  0.6838
   83MOL    C6046144   2.751   0.963   3.644 -0.0563  0.6863 -0.4237
   83MOL    C6146145   2.657   0.956   3.536  0.0661  0.4393  0.3363
   83MOL    C6246146   2.572   1.067   3.511 -0.6578 -0.6495 -0.5327
   83MOL    C6346147   2.484   1.074   3.388 -0.1357  0.2924 -1.0836
   83MOL    N6446148   2.408   1.185   3.374 -0.7754  0.6570 -0.4551
   83MOL    C6546149   2.322   1.231   3.267 -0.3477  0.5767  0.3794
   83MOL    C6646150   2.226   1.326   3.296  0.2508  0.3474 -0.2368
   83MOL    C6746151   2.136   1.369   3.201 -0.6980 -0.3730 -0.4096
   83MOL    C6846152   2.152   1.325   3.067  0.2400 -0.2193 -0.3158
   83MOL    N6946153   2.083   1.383   2.961 -0.4784 -0.0295  0.4758
   83MOL    C7046154   2.251   1.237   3.029 -1.3222 -0.1213 -0.0411
   83MOL    C7146155   2.330   1.185   3.134  0.1328 -0.4725  0.1449
   83MOL    O7246156   2.488   0.978   3.308  0.2284 -0.2890 -0.3124
   83MOL    C7346157   2.575   1.171   3.598 -0.6015 -0.4547 -0.6685
   83MOL    C7446158   2.653   1.173   3.719 -0.2135 -0.1284  0.2095
   83MOL    O7546159   2.837   1.116   3.953  0.1116 -0.2979  0.7682
   83MOL    H7646160   2.812   0.874   3.656 -0.2638  0.5542 -0.3513
   83MOL    H7746161   2.647   0.863   3.482 -0.7987  0.2803  0.7478
   83MOL    H7846162   2.419   1.250   3.451  0.2769 -1.6865  1.4638
   83MOL    H7946163   2.216   1.371   3.394  2.2757 -1.4550  0.8320
   83MOL    H8046164   2.058   1.437   3.232 -1.7282 -0.9707 -1.6222
   83MOL    H8146165   2.135   1.394   2.876 -0.9262  2.3922  0.4797
   83MOL    H8246166   2.269   1.201   2.929 -0.7332  0.6309 -0.2141
   83MOL    H8346167   2.400   1.107   3.110  1.3215  0.6626 -0.1800
   83MOL    H8446168   2.512   1.255   3.575  0.3822  0.2241 -0.8916
   83MOL    H8546169   2.642   1.257   3.787 -0.6697 -1.1181  1.3807
   83MOL    C8646170   1.963   1.329   2.941  0.6245 -0.5372  0.0487
   83MOL    C8746171   1.926   1.290   2.803  0.5592 -0.2053 -0.4071
   83MOL    C8846172   1.807   1.223   2.773  0.3833  0.2566  0.0333
   83MOL    C8946173   1.782   1.171   2.638  0.5292 -0.1548  0.1159
   83MOL    C9046174   1.887   1.182   2.542 -0.9199  0.1612  0.0086
   83MOL    C9146175   1.878   1.127   2.403  0.4374 -0.0066  0.7163
   83MOL    N9246176   1.754   1.100   2.355  0.4245  0.1816 -0.6174
   83MOL    C9346177   1.715   1.032   2.235  0.8951 -0.3252  0.1316
   83MOL    C9446178   1.590   1.078   2.175  0.0237  0.3042 -0.1518
   83MOL    C9546179   1.534   1.025   2.057  0.1586  1.2941  0.2510
   83MOL    C9646180   1.610   0.922   1.996 -0.5060  0.6942 -0.2536
   83MOL    N9746181   1.576   0.863   1.871  0.0562 -0.3128 -0.2533
   83MOL    C9846182   1.732   0.880   2.051  0.6412  0.4234  0.0582
   83MOL    C9946183   1.793   0.938   2.166  0.5168  0.5887 -0.4360
   83MOL   O10046184   1.982   1.094   2.342  0.0343  0.0827  0.0885
   83MOL   C10146185   2.001   1.244   2.576 -0.5779  0.0771 -0.2895
   83MOL   C10246186   2.025   1.293   2.706  0.3535  0.2676 -0.1261
   83MOL   O10346187   1.885   1.305   3.033  0.0955 -0.2019  0.1929
   83MOL   H10446188   1.740   1.201   2.855  1.0136  0.3608  0.5903
   83MOL   H10546189   1.691   1.115   2.620 -0.6425  1.1555  1.8194
   83MOL   H10646190   1.679   1.139   2.410 -1.2195 -0.4984 -2.3177
   83MOL   H10746191   1.528   1.143   2.235  0.6091 -0.0413  0.8453
   83MOL   H10846192   1.439   1.058   2.018  0.2418 -0.4628 -1.5406
   83MOL   H10946193   1.655   0.847   1.811 -0.9327  3.6235 -2.8402
   83MOL   H11046194   1.789   0.806   1.997 -2.1091  0.0496 -2.4526
   83MOL   H11146195   1.891   0.917   2.205 -0.2321 -1.4773  0.3960
   83MOL   H11246196   2.091   1.259   2.518  0.9750  1.2520  2.3353
   83MOL   H11346197   2.119   1.345   2.721 -0.6623  1.9951  0.3979
   83MOL   C11446198   1.457   0.814   1.842  0.1700  0.2982 -0.6209
   83MOL   C11546199   1.448   0.732   1.718  0.5343 -0.0506  0.5342
   83MOL   C11646200   1.567   0.676   1.657 -0.0204  0.1795 -0.2792
   83MOL   C11746201   1.549   0.593   1.543  0.4311  0.3947  0.2786
   83MOL   C11846202   1.419   0.579   1.487  0.1402  0.3858  0.2671
   83MOL   C11946203   1.388   0.495   1.365  0.0595  0.3938 -0.8905
   83MOL   N12046204   1.493   0.426   1.319 -0.1819 -0.1383 -0.2857
   83MOL   C12146205   1.488   0.322   1.225  0.0922  0.0504 -0.2967
   83MOL   C12246206   1.589   0.331   1.127 -0.4874  0.1794  0.2275
   83MOL   C12346207   1.595   0.225   1.031  0.7890 -0.3056  0.2816
   83MOL   C12446208   1.512   0.112   1.035 -0.7248  0.1001 -0.2725
   83MOL   N12546209   1.530   0.002   0.946  0.0732 -0.0981  0.0667
   83MOL   C12646210   1.422   0.101   1.143 -0.0853  0.0682 -0.5149
   83MOL   C12746211   1.406   0.210   1.231  0.4438 -0.1378 -0.4356
   83MOL   O12846212   1.272   0.472   1.328  0.1496 -0.2077  0.7421
   83MOL   C12946213   1.305   0.640   1.543 -0.7133 -0.2603  0.7460
   83MOL   C13046214   1.323   0.724   1.651  0.1719  0.2168  0.7812
   83MOL   O13146215   1.353   0.846   1.910 -0.5843 -0.3179  0.2661
   83MOL   H13246216   1.666   0.689   1.699 -0.2830  0.0878  0.3697
   83MOL   H13346217   1.641   0.558   1.498 -0.3404  0.1080 -1.1267
   83MOL   H13446218   1.588   0.437   1.352  0.0028  0.0455 -0.8735
   83MOL   H13546219   1.659   0.411   1.114  0.5202 -0.8807 -0.9295
   83MOL   H13646220   1.677   0.232   0.961  0.8420  0.5226  0.4217
   83MOL   H13746221   1.494   8.057   0.971 -3.4140  1.1178 -0.2559
   83MOL   H13846222   1.364   0.013   1.165 -0.5061 -0.2333 -2.6684
   83MOL   H13946223   1.321   0.208   1.298  2.7835 -1.4839  2.6023
   83MOL   H14046224   1.210   0.619   1.497 -0.3964 -0.0341 -0.0312
   83MOL   H14146225   1.233   0.763   1.697  0.4093  1.2786  0.3569
   83MOL   C14246226   1.585   0.003   0.821  0.0301 -0.4304 -0.6660
   83MOL   C14346227   1.584   8.015   0.754  0.1091  0.1051  0.2167
   83MOL   C14446228   1.667   8.000   0.642  0.5538  0.4367 -0.2224
   83MOL   C14546229   1.657   7.890   0.562 -0.0236  0.6405  0.6889
   83MOL   C14646230   1.565   7.783   0.593 -0.1865  0.2302  0.3651
   83MOL   C14746231   1.571   7.650   0.524  0.0551  0.1943 -0.5418
   83MOL   N14846232   1.600   7.653   0.391 -0.2145 -0.5311  0.9673
   83MOL   C14946233   1.618   7.535   0.309  0.3649 -0.0048 -0.1234
   83MOL   C15046234   1.540   7.420   0.313 -0.5320 -0.0506 -0.6748
   83MOL   C15146235   1.568   7.307   0.230 -0.1273  0.6866  0.3611
   83MOL   C15246236   1.671   7.319   0.137 -0.5225  0.4634  0.6926
   83MOL   N15346237   1.706   7.203   0.071  0.2870  0.2305  0.4191
   83MOL   C15446238   1.757   7.433   0.126 -0.4536  0.9186  0.3617
   83MOL   C15546239   1.722   7.541   0.209  0.4404 -0.1036 -0.2838
   83MOL   O15646240   1.540   7.548   0.585  0.3253 -0.3804  0.6040
   83MOL   C15746241   1.478   7.803   0.704  0.2692  0.0397 -0.6619
   83MOL   C15846242   1.493   7.913   0.788  0.1742  0.3346  0.1671
   83MOL   O15946243   1.621   0.110   0.769 -0.4150  0.2486 -0.2991
   83MOL   H16046244   1.745   8.068   0.613  1.6225 -0.8712 -0.4624
   83MOL   H16146245   1.728   7.878   0.481 -1.3681  3.3116 -0.9597
   83MOL   H16246246   1.606   7.743   0.344  1.7238 -0.8080  0.6745
   83MOL   H16346247   1.461   7.411   0.386 -0.1052 -2.3028 -0.4521
   83MOL   H16446248   1.506   7.218   0.232 -2.6216  2.3333 -0.2012
   83MOL   H16546249   1.718   7.122   0.129  2.4972  0.4814  0.3632
   83MOL   H16646250   1.843   7.437   0.062 -0.0661 -1.3052  0.7105
   83MOL   H16746251   1.777   7.632   0.190 -0.9772  0.2887 -2.7648
   83MOL   H16846252   1.420   7.718   0.739  0.5790  0.4755  0.9473
   83MOL   H16946253   1.427   7.915   0.873  0.4238  0.4706  0.3595
   83MOL   C17046254   1.722   7.186   8.085 -0.0969 -0.9719  0.6569
   83MOL   C17146255   1.752   7.043   8.030  0.1457  0.0699  0.2642
   83MOL   C17246256   1.794   6.945   8.127  0.1600  0.2559 -0.7483
   83MOL   C17346257   1.812   6.814   8.086  0.1900 -0.1086 -0.8581
   83MOL   C17446258   1.785   6.776   7.950  0.4678 -0.6944  0.1881
   83MOL   C17546259   1.785   6.636   7.899 -0.1800  0.1462 -1.1252
   83MOL   N17646260   1.687   6.606   7.811  0.5834 -0.9276 -0.0846
   83MOL   C17746261   1.674   6.500   7.726 -0.1634  0.0168 -0.1845
   83MOL   C17846262   1.553   6.498   7.653  0.1640 -0.3167 -0.2704
   83MOL   C17946263   1.531   6.402   7.554 -0.8246 -0.0712  0.6912
   83MOL   C18046264   1.621   6.294   7.532  0.1974 -0.1250  0.0102
   83MOL   N18146265   1.605   6.187   7.439  0.5273  0.8199  0.3073
   83MOL   C18246266   1.735   6.294   7.609  0.4135 -0.3124  0.0903
   83MOL   C18346267   1.774   6.395   7.705 -0.6176  0.5741  0.4810
   83MOL   O18446268   1.859   6.548   7.945  0.2472  0.0620 -0.4416
   83MOL   C18546269   1.756   6.876   7.855 -0.2047 -0.4951  0.1182
   83MOL   C18646270   1.740   7.012   7.896  0.0742  0.7547 -0.3487
   83MOL   O18746271   1.722   7.279   8.004  0.0211 -0.3669 -0.2303
   83MOL   H18846272   1.819   6.975   0.082  0.2620 -1.4137 -0.2537
   83MOL   H18946273   1.841   6.739   0.012 -1.7995  0.4901  0.5950
   83MOL   H19046274   1.617   6.679   7.807  2.5887  1.0631 -0.4569
   83MOL   H19146275   1.473   6.567   7.676  1.4610  1.6517 -1.4797
   83MOL   H19246276   1.432   6.407   7.511  0.4489  1.8892 -2.2179
   83MOL   H19346277   1.657   6.103   7.458  0.0513  1.1461  3.3933
   83MOL   H19446278   1.811   6.217   7.602  3.1220  2.2305  0.4520
   83MOL   H19546279   1.864   6.400   7.764  0.9848 -1.3403 -1.7417
   83MOL   H19646280   1.748   6.854   7.750 -0.7143  0.5218 -0.0594
   83MOL   H19746281   1.715   7.084   7.819 -2.0788 -0.8286 -1.1801
   83MOL   C19846282   1.522   6.179   7.339 -0.1254  0.0601  0.6632
   83MOL   C19946283   1.527   6.052   7.264  0.2700  0.5656  0.1251
   83MOL   C20046284   1.522   6.049   7.123  0.4448  0.0423 -0.4434
   83MOL   C20146285   1.552   5.936   7.054  0.4610 -0.0274  0.0350
   83MOL   C20246286   1.572   5.813   7.124  0.2040 -0.6854 -0.6365
   83MOL   C20346287   1.578   5.691   7.040  0.3756 -0.2500 -0.4878
   83MOL   N20446288   1.561   5.578   7.105 -0.0313  0.4690  0.1544
   83MOL   C20546289   1.587   5.450   7.048 -0.0101 -0.8403 -0.5481
   83MOL   C20646290   1.488   5.352   7.040 -0.1482 -0.2801  0.7471
   83MOL   C20746291   1.518   5.226   6.978 -0.2108 -0.0275 -0.3443
   83MOL   C20846292   1.652   5.195   6.940  0.5267  0.1026 -0.3361
   83MOL   N20946293   1.671   5.066   6.885  0.0415  0.7991 -0.0371
   83MOL   C21046294   1.754   5.294   6.959 -1.5215  0.5139 -0.1233
   83MOL   C21146295   1.717   5.424   7.006 -0.0334 -0.5767 -0.6359
   83MOL   O21246296   1.617   5.692   6.924 -0.0317 -0.0007 -0.7786
   83MOL   C21346297   1.566   5.816   7.265  0.2696  0.1430  0.0670
   83MOL   C21446298   1.538   5.933   7.336 -0.2122 -0.5881  0.1042
   83MOL   O21546299   1.469   6.277   7.285  0.2273  0.1824 -0.4460
   83MOL   H21646300   1.509   6.137   7.061  0.6866 -1.6828 -3.0389
   83MOL   H21746301   1.553   5.939   6.946 -1.6461 -0.0460 -0.0146
   83MOL   H21846302   1.502   5.573   7.187  1.2323  0.1799  1.0434
   83MOL   H21946303   1.383   5.373   7.056 -0.5882 -1.6597 -0.2146
   83MOL   H22046304   1.435   5.160   6.958 -0.6320  0.5765 -0.6030
   83MOL   H22146305   1.741   5.006   6.926 -1.6562 -1.1562  0.1340
   83MOL   H22246306   1.856   5.270   6.934 -0.9854  1.3283  1.1978
   83MOL   H22346307   1.794   5.498   7.010 -1.0764  0.5562 -1.1770
   83MOL   H22446308   1.588   5.724   7.317  1.5870 -0.6713 -1.8686
   83MOL   H22546309   1.559   5.917   7.441 -1.2409  0.1048  0.4293
   83MOL   C22646310   1.593   5.017   6.789 -0.2349  0.2118 -0.1496
   83MOL   C22746311   1.608   4.871   6.755 -0.7011 -0.3281  0.1082
   83MOL   C22846312   1.500   4.803   6.706  0.7247  0.1675  0.4391
   83MOL   C22946313   1.520   4.665   6.679  0.2333 -0.1444  0.6576
   83MOL   C23046314   1.637   4.598   6.713 -0.5315 -0.4472  0.3282
   83MOL   C23146315   1.636   4.450   6.705 -0.2489 -0.0280  0.4552
   83MOL   N23246316   1.727   4.377   6.775  0.3962 -0.3527  0.1777
   83MOL   C23346317   1.724   4.233   6.792  0.6080 -0.1451  0.6445
   83MOL   C23446318   1.640   4.139   6.721  0.2661 -0.1360  0.7267
   83MOL   C23546319   1.635   4.004   6.752  0.2161 -0.1186 -0.3643
   83MOL   C23646320   1.724   3.951   6.849 -0.7786 -0.4487  0.1915
   83MOL   N23746321   1.721   3.820   6.897 -0.1020  0.3280 -0.6004
   83MOL   C23846322   1.818   4.038   6.917  0.1387  0.5485  0.4373
   83MOL   C23946323   1.811   4.177   6.890 -0.0398  0.4953  0.5376
   83MOL   O24046324   1.541   4.398   6.644 -0.0737 -0.2077 -0.6577
   83MOL   C24146325   1.744   4.665   6.762  0.2659 -0.2048  0.6013
   83MOL   C24246326   1.731   4.804   6.782  0.0315  0.0881  0.1910
   83MOL   O24346327   1.521   5.085   6.717 -0.2030  0.0838 -0.3851
   83MOL   H24446328   1.402   4.849   6.697  0.7993 -0.1208 -2.3130
   83MOL   H24546329   1.432   4.610   6.649 -0.3272  0.7111  0.7185
   83MOL   H24646330   1.774   4.436   6.843  1.1672  0.3447 -0.9345
   83MOL   H24746331   1.574   4.179   6.645  0.9874 -2.9510 -1.4493
   83MOL   H24846332   1.568   3.933   6.705 -1.2268  0.5114  0.7331
   83MOL   H24946333   1.765   3.798   6.986 -1.6513  0.1815  0.1379
   83MOL   H25046334   1.890   4.003   6.989  1.6113 -0.2269 -1.3656
   83MOL   H25146335   1.875   4.239   6.951  1.3258  0.7051 -1.0932
   83MOL   H25246336   1.841   4.620   6.778  1.0973  1.4347  0.2896
   83MOL   H25346337   1.809   4.857   6.833  1.5267 -1.4572 -0.4378
   83MOL   C25446338   1.673   3.710   6.840 -0.3409 -0.6313 -0.3900
   83MOL   C25546339   1.705   3.584   6.914  0.0499  0.3330 -0.0962
   83MOL   C25646340   1.811   3.587   7.007  0.3483 -0.0970  0.2969
   83MOL   C25746341   1.819   3.471   7.093  0.3327  0.0312  0.0812
   83MOL   C25846342   1.732   3.362   7.082 -0.9385  0.1750  0.0956
   83MOL   C25946343   1.727   3.252   7.183 -0.2647 -0.1608  0.6654
   83MOL   N26046344   1.597   3.224   7.213 -0.0084 -0.7918 -0.4807
   83MOL   C26146345   1.552   3.123   7.298  0.3313  0.6350  0.5596
   83MOL   C26246346   1.415   3.122   7.344  0.2118  0.0734  0.1292
   83MOL   C26346347   1.363   3.019   7.423 -0.6186  0.5188  0.6496
   83MOL   C26446348   1.442   2.904   7.453 -0.0679 -0.4528 -0.2336
   83MOL   N26546349   1.388   2.800   7.538  0.2825  0.0179  0.5968
   83MOL   C26646350   1.574   2.899   7.407  0.1469 -0.0933 -0.4998
   83MOL   C26746351   1.628   3.005   7.324  0.6663  0.2747  0.8133
   83MOL   O26846352   1.829   3.214   7.238  0.2469  0.1109 -0.4576
   83MOL   C26946353   1.643   3.362   6.975 -0.1569  0.2882 -0.0335
   83MOL   C27046354   1.630   3.470   6.889  0.2357 -0.5352 -0.1158
   83MOL   O27146355   1.610   3.705   6.731 -0.1188  0.4660  0.0095
   83MOL   H27246356   1.877   3.672   7.014  0.7342 -0.3519 -0.3599
   83MOL   H27346357   1.888   3.451   7.173 -0.9107 -2.8844  0.4693
   83MOL   H27446358   1.528   3.277   7.163  0.7663  1.4405  0.7487
   83MOL   H27546359   1.355   3.209   7.319  1.8070  0.8693 -1.0555
   83MOL   H27646360   1.265   3.030   7.468 -0.5411 -2.0329  1.5367
   83MOL   H27746361   1.455   2.752   7.596  1.9588  1.8263  0.2011
   83MOL   H27846362   1.634   2.810   7.421 -2.7991 -2.0475  0.0602
   83MOL   H27946363   1.725   2.999   7.276 -0.6785 -0.2999 -1.9558
   83MOL   H28046364   1.574   3.280   6.958  2.6682 -1.6084 -2.7861
   83MOL   H28146365   1.559   3.456   6.808  0.1269 -1.2359  0.0999
   83MOL   C28246366   1.258   2.756   7.535 -0.4169 -0.2273 -0.2969
   83MOL   C28346367   1.225   2.663   7.650 -0.9058  0.5940 -0.7003
   83MOL   C28446368   1.104   2.686   7.712  0.1831  0.3500 -0.1740
   83MOL   C28546369   1.059   2.596   7.816  0.4886 -0.1644 -0.8610
   83MOL   C28646370   1.140   2.491   7.851 -0.4854 -0.4197 -0.9290
   83MOL   C28746371   1.091   2.397   7.965  0.6091  0.4975  0.1360
   83MOL   N28846372   1.184   2.348   8.051 -0.0633 -0.5293  0.2356
   83MOL   C28946373   1.311   2.392   8.083  1.1061  0.1392 -0.7492
   83MOL   C29046374   1.395   2.286   8.093  0.3910 -0.8093  0.3508
   83MOL   C29146375   1.531   2.300   8.127 -0.2006  0.1195  0.3681
   83MOL   C29246376   1.577   2.433   0.009  0.1258 -0.1328  0.3457
   83MOL   N29346377   1.712   2.444   0.047  0.6459  0.0835  0.1032
   83MOL   C29446378   1.488   2.545   8.143  0.1656 -0.5061 -0.0461
   83MOL   C29546379   1.355   2.525   8.105 -0.2110  0.1691  0.3311
   83MOL   O29646380   0.969   2.381   7.976  0.3684  0.4089  0.0784
   83MOL   C29746381   1.270   2.473   7.786  0.3044  0.2346 -1.0610
   83MOL   C29846382   1.308   2.557   7.684  0.1570 -0.2652  0.0937
   83MOL   O29946383   1.172   2.792   7.456 -0.1902  0.4460  0.3968
   83MOL   H30046384   1.053   2.779   7.693  0.9404  1.2734  2.1952
   83MOL   H30146385   0.973   2.619   7.877  1.0801  0.7311 -0.3522
   83MOL   H30246386   1.146   2.280   8.115  0.1660 -0.2936  0.6334
   83MOL   H30346387   1.366   2.187   8.061 -2.7944  0.5377 -1.1437
   83MOL   H30446388   1.593   2.212   8.126 -1.0246 -0.4474 -0.9080
   83MOL   H30546389   1.779   2.394   8.136 -0.9907 -2.8134  0.6510
   83MOL   H30646390   1.527   2.645   0.007 -0.4156 -0.2335 -0.5309
   83MOL   H30746391   1.290   2.610   8.087  1.0241  0.8587 -1.0991
   83MOL   H30846392   1.335   2.393   7.817 -0.7951  0.6965  2.6567
   83MOL   H30946393   1.393   2.547   7.618 -2.3979 -0.4988 -3.3079
   83MOL   C31046394   1.754   2.535   0.134 -0.0562 -0.0235 -0.4863
   83MOL   C31146395   1.900   2.566   0.113  0.3284  0.2900 -0.2081
   83MOL   C31246396   1.988   2.468   0.066  0.5006 -0.0154 -0.1957
   83MOL   C31346397   2.119   2.500   0.042  0.5137 -0.2605  0.0261
   83MOL   C31446398   2.163   2.638   0.054  0.2699 -0.5934  0.2063
   83MOL   C31546399   2.300   2.680   0.016 -0.5181 -0.3006 -0.1366
   83MOL   N31646400   2.335   2.667   8.033  0.3476 -0.3120 -0.2110
   83MOL   C31746401   2.439   2.719   7.959  0.5154  0.0812  0.1571
   83MOL   C31846402   2.534   2.816   8.010  0.2370  0.0491 -0.2248
   83MOL   C31946403   2.644   2.837   7.925  0.2366 -0.3759  0.7623
   83MOL   C32046404   2.651   2.795   7.796 -0.9890 -0.1300 -0.3330
   83MOL   N32146405   2.756   2.824   7.709  0.4907  0.6554 -0.4977
   83MOL   C32246406   2.552   2.715   7.747  0.3019  0.1321 -0.0873
   83MOL   C32346407   2.447   2.671   7.832  0.5658 -0.0859 -0.6910
   83MOL   O32446408   2.371   2.721   0.111 -0.3962  0.1706 -0.5204
   83MOL   C32546409   2.077   2.734   0.106 -0.0349  0.3863  0.1161
   83MOL   C32646410   1.949   2.699   0.144 -0.0087  0.0066 -0.0421
   83MOL   O32746411   1.685   2.589   0.220 -0.0697 -0.4400 -0.2222
   83MOL   H32846412   1.948   2.370   0.045  0.2822 -0.1525  0.7972
   83MOL   H32946413   2.186   2.426   0.002 -0.8386 -0.8553 -1.2165
   83MOL   H33046414   2.263   2.621   7.979  1.2489 -0.8041 -1.0135
   83MOL   H33146415   2.526   2.862   8.107 -0.8803 -2.8390  1.0975
   83MOL   H33246416   2.724   2.899   7.963  1.3307  0.4090 -2.6254
   83MOL   H33346417   2.726   2.839   7.614 -0.0106 -0.5728 -0.5454
   83MOL   H33446418   2.549   2.687   7.643  0.4513 -2.9652  0.6745
   83MOL   H33546419   2.376   2.600   7.792  0.4126  0.1943 -0.9215
   83MOL   H33646420   2.113   2.835   0.116  0.3106  0.0458  2.7497
   83MOL   H33746421   1.885   2.768   0.196 -1.9761 -2.6812  1.2439
   83MOL   C33846422   2.881   2.848   7.734 -0.6022 -0.3622  1.3269
   83MOL   C33946423   2.953   2.909   7.618  0.1205 -0.1060 -0.1606
   83MOL   C34046424   2.900   2.915   7.488 -0.3220  0.8605  0.1838
   83MOL   C34146425   2.964   2.989   7.388 -0.4423  0.3375 -0.0304
   83MOL   C34246426   3.091   3.054   7.414  0.2695  0.5447 -0.2618
   83MOL   C34346427   3.162   3.118   7.299  0.4366 -0.1969 -0.2119
   83MOL   N34446428   3.191   3.249   7.319 -0.5854  0.3028 -0.2927
   83MOL   C34546429   3.256   3.345   7.234  0.5290 -0.0919  0.7666
   83MOL   C34646430   3.325   3.310   7.117 -0.1208 -0.4182 -0.0789
   83MOL   C34746431   3.392   3.410   7.047  0.0292  0.0078  0.3859
   83MOL   C34846432   3.383   3.549   7.083 -0.4340  0.1843  0.0970
   83MOL   N34946433   3.438   3.641   6.988 -0.0577  0.0050 -0.5198
   83MOL   C35046434   3.317   3.587   7.203  0.3249  0.5324  0.0550
   83MOL   C35146435   3.252   3.485   7.276 -0.6793  0.2293  0.2150
   83MOL   O35246436   3.166   3.074   7.186 -0.0525  0.4230  0.1890
   83MOL   C35346437   3.145   3.046   7.543  0.1757 -0.1159  0.3729
   83MOL   C35446438   3.072   2.978   7.646 -0.6062  0.4182  0.7111
   83MOL   O35546439   2.933   2.834   7.838  0.0957 -0.1534  0.3316
   83MOL   H35646440   2.808   2.870   7.454  0.6760 -0.7771 -0.4238
   83MOL   H35746441   2.914   2.987   7.292 -0.8132  0.8713  0.1470
   83MOL   H35846442   3.172   3.278   7.414 -0.4944  0.3890 -0.3007
   83MOL   H35946443   3.316   3.217   7.063  1.0455 -0.0964 -0.8488
   83MOL   H36046444   3.444   3.387   6.956 -0.9388  0.3638 -0.2588
   83MOL   H36146445   3.486   3.593   6.913  2.3445 -1.5787  1.9351
   83MOL   H36246446   3.305   3.689   7.236 -0.7749  0.0629  1.1390
   83MOL   H36346447   3.206   3.519   7.368 -0.7596  0.7300 -0.0061
   83MOL   H36446448   3.242   3.089   7.561 -1.2827  2.4407  2.5354
   83MOL   H36546449   3.124   2.968   7.741 -1.7879  0.2957  1.3477
   83MOL   C36646450   3.465   3.773   6.994 -0.4818  0.0686 -0.2634
   83MOL   C36746451   3.527   3.843   6.871  0.4834  0.6553 -0.7779
   83MOL   C36846452   3.579   3.969   6.886 -0.0059 -0.4865  0.5751
   83MOL   C36946453   3.646   4.033   6.776  0.2474 -0.2129 -0.1667
   83MOL   C37046454   3.649   3.972   6.644  0.6394 -0.0595  0.2059
   83MOL   C37146455   3.715   4.031   6.520  1.0141 -0.2819  0.6549
   83MOL   N37246456   3.739   4.161   6.541 -0.6613  0.4435  0.4164
   83MOL   C37346457   3.712   4.254   6.437 -0.1518 -0.0994 -0.7563
   83MOL   C37446458   3.767   4.249   6.308  0.0221 -0.5289  0.5067
   83MOL   C37546459   3.721   4.334   6.208  0.4843  0.1776 -0.7541
   83MOL   C37646460   3.621   4.428   6.232  0.3197  0.5207  0.0159
   83MOL   N37746461   3.558   4.508   6.135 -0.0350 -0.3298  0.1853
   83MOL   C37846462   3.584   4.445   6.368 -0.4315  0.1182  0.1382
   83MOL   C37946463   3.630   4.357   6.468 -0.9079  0.2094 -0.6172
   83MOL   O38046464   3.749   3.968   6.421  0.4807  0.9939 -0.5503
   83MOL   C38146465   3.599   3.839   6.633 -0.0181  0.7861 -0.1086
   83MOL   C38246466   3.544   3.777   6.746  0.2860  0.3953 -0.7539
   83MOL   O38346467   3.446   3.842   7.088 -0.0812 -0.3313 -0.1936
   83MOL   H38446468   3.573   4.025   6.978  0.6329  1.7314 -0.6860
   83MOL   H38546469   3.700   4.125   6.793 -2.2453  1.3116 -0.3981
   83MOL   H38646470   3.710   4.197   6.631  2.3341 -0.6005  1.8836
   83MOL   H38746471   3.845   4.181   6.277 -1.0215 -1.4555 -0.0936
   83MOL   H38846472   3.762   4.323   6.108 -1.8585 -1.5566 -1.5549
   83MOL   H38946473   3.465   4.540   6.163  0.1057  2.4941 -2.3254
   83MOL   H39046474   3.513   4.520   6.400 -2.6180 -2.0723  0.5580
   83MOL   H39146475   3.584   4.352   6.566 -0.1376  0.5449 -0.2312
   83MOL   H39246476   3.598   3.793   6.536 -1.1989  1.9273 -0.6592
   83MOL   H39346477   3.507   3.676   6.737  1.1383 -0.2873  2.6998
   83MOL   C39446478   3.625   4.590   6.055 -0.1830  0.0002 -0.4619
   83MOL   C39546479   3.549   4.718   6.036  0.4527  0.1615  0.8096
   83MOL   C39646480   3.584   4.806   5.938 -0.5986  0.4313  0.3023
   83MOL   C39746481   3.516   4.929   5.928 -0.0257  0.1119  0.4035
   83MOL   C39846482   3.403   4.963   6.002 -0.1011  0.0976 -0.7103
   83MOL   C39946483   3.315   5.085   5.969 -0.9686 -0.1649 -0.0999
   83MOL   N40046484   3.204   5.098   6.040  0.1760 -0.8757 -0.0520
   83MOL   C40146485   3.083   5.155   5.991 -1.1936  0.4435  0.7413
   83MOL   C40246486   2.994   5.202   6.085  0.3806 -0.1668 -0.1474
   83MOL   C40346487   2.873   5.260   6.049 -0.3977 -0.4384 -0.3187
   83MOL   C40446488   2.847   5.278   5.915  0.3848 -0.1073  0.0281
   83MOL   N40546489   2.731   5.341   5.862 -0.4833  0.2636  0.4075
   83MOL   C40646490   2.937   5.238   5.815  0.6127  0.2439 -0.5550
   83MOL   C40746491   3.052   5.163   5.857  0.7323  0.3166 -0.0461
   83MOL   O40846492   3.344   5.154   5.871  0.2370 -0.1025 -0.7362
   83MOL   C40946493   3.371   4.874   6.108  0.6194 -0.6912  0.5936
   83MOL   C41046494   3.446   4.758   6.124 -0.0878 -0.2116 -0.8943
   83MOL   O41146495   3.736   4.565   6.009  0.2806 -0.3218  0.1678
   83MOL   H41246496   3.672   4.795   5.876 -0.5033 -0.8215  0.6473
   83MOL   H41346497   3.548   4.995   5.848 -0.8592 -0.2061 -0.1967
   83MOL   H41446498   3.200   5.055   6.131 -0.3050  0.1072  0.4017
   83MOL   H41546499   3.025   5.195   6.188  0.2018  0.2589 -0.0626
   83MOL   H41646500   2.808   5.304   6.124 -2.4669 -0.9505 -1.7686
   83MOL   H41746501   2.741   5.364   5.765  0.3752 -0.7474  0.2531
   83MOL   H41846502   2.918   5.252   5.709  0.1010  1.2694 -0.3434
   83MOL   H41946503   3.122   5.132   5.781  0.1866 -2.1571  0.4118
   83MOL   H42046504   3.287   4.890   6.174  0.5558 -0.0719  0.3622
   83MOL   H42146505   3.414   4.704   6.212 -0.2737  1.6782  0.2152
   83MOL   C42246506   2.601   5.356   5.906 -0.2288  0.6398  1.1393
   83MOL   C42346507   2.508   5.402   5.791 -0.2536 -0.4102  0.3054
   83MOL   C42446508   2.526   5.351   5.664  0.3602  0.1872 -0.4577
   83MOL   C42546509   2.450   5.397   5.556 -0.2744  0.4388  0.5282
   83MOL   C42646510   2.335   5.473   5.573  0.0871  0.1001  1.3564
   83MOL   C42746511   2.260   5.522   5.450  0.6407 -0.0086 -0.4767
   83MOL   N42846512   2.248   5.436   5.348  0.4342  0.1856  0.8228
   83MOL   C42946513   2.203   5.472   5.216 -0.0685  0.3817  0.2782
   83MOL   C43046514   2.166   5.367   5.130 -0.3666  0.3303 -0.1471
   83MOL   C43146515   2.108   5.390   5.003  0.2665  0.3282  0.5296
   83MOL   C43246516   2.080   5.525   4.966  0.0450  0.0902  0.3323
   83MOL   N43346517   2.018   5.559   4.840 -0.3157 -0.6444  0.4560
   83MOL   C43446518   2.125   5.630   5.046  0.2130 -0.2554 -0.0470
   83MOL   C43546519   2.188   5.605   5.168 -0.6258 -0.1975 -0.2563
   83MOL   O43646520   2.206   5.633   5.450  0.1114  0.8182  0.4295
   83MOL   C43746521   2.313   5.515   5.700  0.5036 -0.2808 -0.3906
   83MOL   C43846522   2.401   5.494   5.809  0.0085 -0.2159 -0.0242
   83MOL   O43946523   2.568   5.371   6.021 -0.1488 -0.0062 -0.1554
   83MOL   H44046524   2.604   5.278   5.648 -0.4947 -0.9989  0.6991
   83MOL   H44146525   2.470   5.359   5.457  1.2200  1.3426  0.4697
   83MOL   H44246526   2.271   5.340   5.367  3.1106  0.6389  0.0790
   83MOL   H44346527   2.180   5.262   5.150  0.2120  0.5000  0.3481
   83MOL   H44446528   2.081   5.305   4.943  0.9965  0.5043 -0.0510
   83MOL   H44546529   1.994   5.657   4.839 -0.3209 -0.6473 -0.1924
   83MOL   H44646530   2.113   5.730   5.008 -1.1070  0.2799  1.6829
   83MOL   H44746531   2.229   5.690   5.221 -1.7636  0.1081  0.1393
   83MOL   H44846532   2.235   5.589   5.712  0.2327 -0.6655  0.2196
   83MOL   H44946533   2.379   5.540   5.904 -1.3573 -2.6850  0.9002
   83MOL   C45046534   2.018   5.486   4.724  0.1341 -1.0183  0.0059
   83MOL   C45146535   1.961   5.564   4.603 -0.5789 -0.1644 -0.6449
   83MOL   C45246536   1.884   5.678   4.613 -0.6419 -0.1937  0.1156
   83MOL   C45346537   1.833   5.749   4.504 -0.0066  0.3204 -0.3956
   83MOL   C45446538   1.846   5.696   4.373  0.0371  0.1037  0.0150
   83MOL   C45546539   1.787   5.752   4.247  0.0216  0.1517 -0.0217
   83MOL   N45646540   1.861   5.736   4.137 -0.0495  0.0934 -0.9082
   83MOL   C45746541   1.854   5.783   4.005 -0.4839 -0.1058  0.1817
   83MOL   C45846542   1.729   5.807   3.939 -0.2587  0.3473 -0.0135
   83MOL   C45946543   1.728   5.831   3.797  0.9336  0.0545 -0.3079
   83MOL   C46046544   1.853   5.840   3.734 -0.5440 -0.2293 -0.4995
   83MOL   N46146545   1.875   5.868   3.596  0.1219 -0.5174 -0.2787
   83MOL   C46246546   1.979   5.822   3.798  0.1276  0.1110 -0.2296
   83MOL   C46346547   1.977   5.791   3.935 -0.1920 -0.0624 -0.5355
   83MOL   O46446548   1.686   5.824   4.243  0.1275 -0.1098  1.0597
   83MOL   C46546549   1.921   5.579   4.361  0.1350 -0.3422  0.0026
   83MOL   C46646550   1.976   5.515   4.471 -0.0628  0.6685  0.1116
   83MOL   O46746551   2.063   5.370   4.709 -0.3805  0.2072 -0.0710
   83MOL   H46846552   1.872   5.725   4.709 -1.2533 -0.7458  0.3159
   83MOL   H46946553   1.789   5.847   4.518  1.0553  0.8791 -0.9285
   83MOL   H47046554   1.947   5.689   4.162  0.1564 -0.4337 -2.5427
   83MOL   H47146555   1.633   5.810   3.989 -1.3287 -1.8213 -1.8505
   83MOL   H47246556   1.633   5.837   3.745  1.3029  0.6624 -0.9158
   83MOL   H47346557   1.957   5.833   3.549 -0.4279 -0.3237 -1.3945
   83MOL   H47446558   2.074   5.829   3.747 -0.0113  1.3930 -0.3355
   83MOL   H47546559   2.067   5.770   3.990 -0.7676 -1.0496  0.0530
   83MOL   H47646560   1.925   5.522   4.269 -2.0801 -0.4931 -0.0353
   83MOL   H47746561   2.029   5.422   4.454 -0.5891  0.5037 -0.6944
   83MOL   C47846562   1.820   5.961   3.520  0.0914  0.1913 -0.4110
   83MOL   C47946563   1.851   5.944   3.373 -0.4343  0.2690  0.4314
   83MOL   C48046564   1.772   6.004   3.274  0.3555 -0.6862  0.1921
   83MOL   C48146565   1.798   5.993   3.138 -0.8067  0.3742 -0.2400
   83MOL   C48246566   1.908   5.912   3.097  0.0976  0.9510 -0.4028
   83MOL   C48346567   1.925   5.883   2.948  0.2308  0.0113 -1.2708
   83MOL   N48446568   2.045   5.902   2.887  0.3816 -0.0450  0.0585
   83MOL   C48546569   2.159   5.966   2.943 -0.2332  0.4600 -0.5175
   83MOL   C48646570   2.283   5.900   2.949  0.1567  0.1145 -0.3414
   83MOL   C48746571   2.396   5.954   3.015  0.0149  0.0756  0.0914
   83MOL   C48846572   2.398   6.090   3.060  0.5736 -0.6486 -0.0097
   83MOL   N48946573   2.510   6.131   3.133 -0.1572  0.2269  0.3516
   83MOL   C49046574   2.274   6.158   3.052  0.1436 -0.5194 -0.1116
   83MOL   C49146575   2.157   6.096   3.003 -0.4414 -0.7906 -0.4707
   83MOL   O49246576   1.824   5.845   2.888  0.2956 -0.1704 -0.0495
   83MOL   C49346577   1.992   5.861   3.194  0.6446 -0.2488 -0.2490
   83MOL   C49446578   1.963   5.875   3.328  0.2841 -0.0781  0.3186
   83MOL   O49546579   1.740   6.043   3.560 -0.1493  0.1144 -0.3714
   83MOL   H49646580   1.678   6.054   3.292 -0.3601 -0.9014 -2.6981
   83MOL   H49746581   1.730   6.024   3.059 -0.2572  1.2328 -0.3810
   83MOL   H49846582   2.044   5.861   2.795 -1.4167 -2.2622  1.0131
   83MOL   H49946583   2.302   5.802   2.910  3.7272  2.1305 -4.0308
   83MOL   H50046584   2.487   5.897   3.028  0.7735  1.2354 -0.0017
   83MOL   H50146585   2.570   6.054   3.159 -0.1028  1.1232  3.1171
   83MOL   H50246586   2.269   6.260   3.087  2.6849 -0.8566  1.3731
   83MOL   H50346587   2.064   6.149   3.016  0.1678  0.9510 -2.8160
   83MOL   H50446588   2.076   5.806   3.154 -0.3021 -0.7428 -1.5872
   83MOL   H50546589   2.042   5.830   3.386  0.4934 -1.3299 -0.8754
   83MOL   C50646590   2.535   6.262   3.169 -0.2013  0.6536 -0.2620
   83MOL   C50746591   2.657   6.284   3.259  0.7114 -0.2785  0.3991
   83MOL   C50846592   2.770   6.204   3.263 -0.3872  0.0595 -0.5122
   83MOL   C50946593   2.871   6.214   3.363  0.7412  0.5193 -0.3003
   83MOL   C51046594   2.868   6.323   3.447 -0.3854 -0.0043  0.5177
   83MOL   C51146595   2.990   6.345   3.540  0.6433 -0.9583  1.0982
   83MOL   N51246596   3.003   6.476   3.579  0.1034  0.3281 -0.0493
   83MOL   C51346597   3.107   6.545   3.646 -0.1498  0.6389  0.1247
   83MOL   C51446598   3.214   6.473   3.703  0.1796  0.4478 -0.0004
   83MOL   C51546599   3.302   6.551   3.782 -1.0567 -0.2666 -0.1764
   83MOL   C51646600   3.285   6.688   3.811  0.0109  0.2393 -0.5872
   83MOL   N51746601   3.394   6.755   3.873 -0.1109  0.3827 -0.2972
   83MOL   C51846602   3.184   6.756   3.742 -0.3851  0.5863  0.0204
   83MOL   C51946603   3.094   6.684   3.660 -0.4023 -0.0772  0.8222
   83MOL   O52046604   3.065   6.258   3.565  0.7619 -0.2625 -0.3203
   83MOL   C52146605   2.750   6.407   3.447 -0.0633  0.5807  0.3862
   83MOL   C52246606   2.647   6.389   3.352 -0.2480  0.8820 -0.4428
   83MOL   O52346607   2.475   6.356   3.125 -0.7057 -0.3730  0.5860
   83MOL   H52446608   2.775   6.120   3.196 -1.9715  0.5433 -1.2581
   83MOL   H52546609   2.951   6.142   3.363  1.8877  1.7887  0.1328
   83MOL   H52646610   2.925   6.529   3.544  0.3843  0.0300 -1.1323
   83MOL   H52746611   3.235   6.371   3.675  1.5662  0.6135  0.4100
   83MOL   H52846612   3.393   6.504   3.816 -1.1013  0.7189  1.3198
   83MOL   H52946613   3.489   6.729   3.854  0.2784  0.7095  1.1687
   83MOL   H53046614   3.175   6.864   3.740 -0.2191  0.5803 -1.9816
   83MOL   H53146615   3.014   6.747   3.622 -1.0724 -0.3231  1.7981
   83MOL   H53246616   2.744   6.494   3.511 -1.3232  1.7647 -1.2948
   83MOL   H53346617   2.559   6.453   3.353  0.9675  2.5779 -0.1561
   83MOL   C53446618   3.382   6.850   3.969 -0.2440 -0.2487  0.2546
   83MOL   C53546619   3.513   6.899   4.025 -0.1675  0.0419  0.3228
   83MOL   C53646620   3.511   7.007   4.116 -0.1072  0.5909 -0.0930
   83MOL   C53746621   3.627   7.066   4.168 -0.1239  0.0730  0.2220
   83MOL   C53846622   3.749   6.997   4.143  0.4967 -0.5749  0.3923
   83MOL   C53946623   3.875   7.021   4.230  0.1937 -0.1711  0.1472
   83MOL   N54046624   3.871   7.114   4.327 -0.2846  0.0068  0.2847
   83MOL   C54146625   3.968   7.138   4.430  0.3092 -0.2672  0.1766
   83MOL   C54246626   4.104   7.111   4.411 -0.5335 -0.0390 -0.2688
   83MOL   C54346627   4.187   7.093   4.523 -0.5387 -0.6243 -0.3348
   83MOL   C54446628   4.135   7.124   4.653  0.3004  0.2467  0.3165
   83MOL   N54546629   4.211   7.100   4.764 -0.5065 -0.1843 -0.4019
   83MOL   C54646630   4.004   7.178   4.664  0.3067  0.0778 -0.3715
   83MOL   C54746631   3.924   7.187   4.553 -0.1459  0.1326  0.3821
   83MOL   O54846632   3.968   6.944   4.217  0.0330  0.4065  0.0475
   83MOL   C54946633   3.753   6.892   4.047 -0.2668 -1.0689 -0.2153
   83MOL   C55046634   3.635   6.844   3.986  0.3963 -0.4990  0.5207
   83MOL   O55146635   3.273   6.884   4.018  0.1055  0.3740 -0.3722
   83MOL   H55246636   3.415   7.039   4.153 -0.5031  0.2482 -0.8058
   83MOL   H55346637   3.618   7.138   4.247  0.2456 -0.6940  0.9706
   83MOL   H55446638   3.787   7.170   4.334 -0.6971 -0.4378 -0.9657
   83MOL   H55546639   4.141   7.083   4.313 -0.2397  1.1221 -0.4960
   83MOL   H55646640   4.287   7.055   4.508  1.2133  2.6087  2.7947
   83MOL   H55746641   4.147   7.086   4.841  0.8374 -0.4629  0.6857
   83MOL   H55846642   3.966   7.215   4.758  0.1632 -1.9632  0.4185
   83MOL   H55946643   3.819   7.202   4.570 -0.6036 -0.0203 -2.1212
   83MOL   H56046644   3.852   6.857   4.021 -1.3758 -3.4419 -1.3810
   83MOL   H56146645   3.639   6.775   3.903  0.7992  1.2329 -0.9372
   83MOL   H56246646   4.250   7.008   4.747  1.2767  0.1531  1.5318
   84MOL     C146647   0.140   3.764   1.129 -0.2986  0.8690  0.3772
   84MOL     C246648   0.216   3.707   1.239 -0.1051  0.4860 -0.1794
   84MOL     C346649   0.360   3.707   1.238  0.3157  0.6343 -1.0143
   84MOL     C446650   0.422   3.649   1.353 -0.3113 -0.4470 -0.0848
   84MOL     C546651   0.345   3.582   1.453  0.3996 -0.7166 -0.1894
   84MOL     C646652   0.415   3.497   1.554  1.2021  0.3418  0.6124
   84MOL     N746653   0.392   3.542   1.681 -0.6546  0.8743  0.0397
   84MOL     C846654   0.421   3.467   1.806  0.3403 -0.1981  0.4535
   84MOL     C946655   0.443   3.329   1.805  1.0864  0.3749  0.2115
   84MOL    C1046656   0.472   3.267   1.927  0.2092  0.5202  0.0568
   84MOL    C1146657   0.495   3.332   2.044 -0.1560 -0.0556 -0.2950
   84MOL    N1246658   0.546   3.256   2.149  0.2319 -0.7140  0.4884
   84MOL    C1346659   0.489   3.475   2.038  0.4325 -0.1532  0.5896
   84MOL    C1446660   0.437   3.544   1.925  0.6144 -0.2500  0.3929
   84MOL    O1546661   0.484   3.411   1.511  0.1398  0.0701  0.3265
   84MOL    C1646662   0.205   3.580   1.445 -0.2990 -0.5432 -0.3475
   84MOL    C1746663   0.142   3.654   1.346  0.3323  0.2004  0.3012
   84MOL    O1846664   0.189   3.781   1.013  0.7503 -0.6390 -0.0253
   84MOL    H1946665   0.413   3.754   1.156  1.8826 -0.7497 -0.8206
   84MOL    H2046666   0.528   3.628   1.351 -0.2068 -0.0707  1.1382
   84MOL    H2146667   0.350   3.633   1.687  0.8519  1.6396 -0.6832
   84MOL    H2246668   0.424   3.274   1.714  1.1007  0.2553  0.2806
   84MOL    H2346669   0.477   3.159   1.925 -0.9011  0.4484  0.7757
   84MOL    H2446670   0.586   3.166   2.128  1.1278  0.0065 -1.0077
   84MOL    H2546671   0.530   3.534   2.118  0.5077  0.3997  0.1465
   84MOL    H2646672   0.423   3.651   1.919  0.4613 -0.3210 -0.5925
   84MOL    H2746673   0.138   3.530   1.514 -0.2093  1.2734  1.1054
   84MOL    H2846674   0.035   3.664   1.344  0.3803  1.0167  1.0802
   84MOL    H2946675   0.034   3.789   1.131  0.1029  2.8873 -1.5657
   84MOL    C3046676   0.551   3.288   2.279 -0.4586 -1.0042 -0.0246
   84MOL    C3146677   0.605   3.180   2.361 -0.1398 -0.3695 -0.2544
   84MOL    C3246678   0.630   3.200   2.497 -0.5914 -0.7383  0.1088
   84MOL    C3346679   0.698   3.102   2.576 -0.8137 -0.3383  0.2293
   84MOL    C3446680   0.740   2.983   2.512 -0.2536 -0.1297 -0.6107
   84MOL    C3546681   0.794   2.872   2.595 -0.6385  0.0454 -0.3100
   84MOL    N3646682   0.844   2.918   2.709  0.1125  0.6494  0.8391
   84MOL    C3746683   0.873   2.850   2.827 -0.0631 -0.1917  0.0925
   84MOL    C3846684   0.958   2.912   2.926  0.1132 -0.0161 -0.6780
   84MOL    C3946685   0.992   2.846   3.044  0.3561  0.4223  0.0520
   84MOL    C4046686   0.941   2.718   3.070  0.3534 -0.0199  0.6520
   84MOL    N4146687   0.981   2.660   3.190 -0.3115 -0.0805  0.2947
   84MOL    C4246688   0.852   2.653   2.975 -0.1914 -0.1281 -0.0228
   84MOL    C4346689   0.827   2.720   2.848  0.7867  0.2505 -0.3662
   84MOL    O4446690   0.804   2.757   2.555 -0.1385 -0.3317 -0.6399
   84MOL    C4546691   0.718   2.963   2.372  0.1890 -0.1646 -0.3649
   84MOL    C4646692   0.646   3.055   2.299  0.7252 -0.0307  0.2470
   84MOL    O4746693   0.516   3.397   2.325  0.1632 -0.0472  0.2810
   84MOL    H4846694   0.607   3.294   2.545 -0.4488 -0.0857 -1.0737
   84MOL    H4946695   0.709   3.117   2.683 -1.2894 -1.0713  0.3830
   84MOL    H5046696   0.855   3.018   2.706  1.1990  0.4863 -1.8134
   84MOL    H5146697   0.988   3.012   2.900  0.4483 -0.0071 -0.2616
   84MOL    H5246698   1.044   2.904   3.119 -0.3255 -0.5223  1.2734
   84MOL    H5346699   1.033   2.715   3.256 -1.2943 -1.6773  2.4293
   84MOL    H5446700   0.817   2.552   2.990  2.3094 -0.9235  0.6955
   84MOL    H5546701   0.764   2.673   2.774  0.3422  1.7807 -0.9824
   84MOL    H5646702   0.732   2.861   2.341  0.2731 -0.6259  1.1197
   84MOL    H5746703   0.628   3.027   2.197  1.9029 -0.8663  0.2554
   84MOL    C5846704   0.928   2.558   3.270  0.0659 -0.4253  0.2584
   84MOL    C5946705   0.981   2.549   3.406  0.2400 -0.9434  0.4342
   84MOL    C6046706   1.123   2.576   3.436 -0.3559 -0.1612 -0.1134
   84MOL    C6146707   1.173   2.583   3.566  0.8382 -0.3024  0.0345
   84MOL    C6246708   1.081   2.553   3.674  0.7171 -0.6988  0.0071
   84MOL    C6346709   1.130   2.552   3.819  1.2172 -0.6357 -0.0946
   84MOL    N6446710   1.257   2.580   3.842 -0.3123  0.1353 -0.5955
   84MOL    C6546711   1.322   2.599   3.967  0.1650 -0.2544  0.6048
   84MOL    C6646712   1.256   2.664   4.065 -0.5819 -0.0713  0.1809
   84MOL    C6746713   1.311   2.688   4.186 -0.4121 -0.2392  0.3495
   84MOL    C6846714   1.449   2.651   4.204 -0.2344 -0.0508 -0.7714
   84MOL    N6946715   1.515   2.684   4.325  0.7494 -0.1651  0.4189
   84MOL    C7046716   1.516   2.596   4.101  0.0169 -0.0078  0.1833
   84MOL    C7146717   1.454   2.565   3.982 -0.4198 -0.2945 -0.1251
   84MOL    O7246718   1.038   2.541   3.902  0.2205 -0.2259 -0.2204
   84MOL    C7346719   0.954   2.504   3.644  0.3145  0.7104 -0.2560
   84MOL    C7446720   0.905   2.503   3.515  0.1204  0.1738  0.3183
   84MOL    O7546721   0.833   2.492   3.234  0.3594 -0.3918  0.3060
   84MOL    H7646722   1.188   2.610   3.357 -1.0363  1.1363 -0.1283
   84MOL    H7746723   1.277   2.611   3.575  0.4079  1.8678 -1.2618
   84MOL    H7846724   1.321   2.575   3.764 -0.5057  0.4203 -0.7722
   84MOL    H7946725   1.162   2.715   4.046  0.2968  1.7975  0.7094
   84MOL    H8046726   1.256   2.746   4.258  1.5555  1.9301  0.1591
   84MOL    H8146727   1.615   2.678   4.313  0.4569 -2.5448 -1.2569
   84MOL    H8246728   1.618   2.564   4.117 -0.0334  0.2677  1.1047
   84MOL    H8346729   1.494   2.515   3.895 -0.5803  1.7144 -1.3817
   84MOL    H8446730   0.886   2.465   3.719  1.1615  1.5928  1.0015
   84MOL    H8546731   0.803   2.476   3.489  0.1356  0.3566  0.0634
   84MOL    C8646732   1.467   2.712   4.447  0.3907  0.3560  0.0301
   84MOL    C8746733   1.580   2.747   4.544  0.5330  0.4495 -0.6772
   84MOL    C8846734   1.572   2.864   4.611 -0.4592  0.2033  0.4311
   84MOL    C8946735   1.670   2.908   4.699 -0.4614 -0.4904  0.1682
   84MOL    C9046736   1.786   2.829   4.713  0.4162  0.0721  0.1226
   84MOL    C9146737   1.900   2.875   4.799  0.0685  0.3787 -0.2880
   84MOL    N9246738   1.996   2.931   4.725  0.2041  0.0287  0.2883
   84MOL    C9346739   2.114   2.985   4.783  0.5278  0.8132 -0.0326
   84MOL    C9446740   2.234   2.959   4.719 -0.3161 -0.7454 -0.7169
   84MOL    C9546741   2.355   3.009   4.762 -0.2425  0.2990 -0.0068
   84MOL    C9646742   2.360   3.099   4.867 -0.0887 -0.4311  0.0558
   84MOL    N9746743   2.477   3.145   4.933 -1.1905 -0.2354 -0.3067
   84MOL    C9846744   2.239   3.127   4.936  0.2001 -0.3730 -0.1601
   84MOL    C9946745   2.118   3.074   4.894 -0.0515  0.8335  0.1479
   84MOL   O10046746   1.895   2.870   4.921  0.0127  0.0790  0.6362
   84MOL   C10146747   1.797   2.703   4.641  0.4400 -0.2112 -0.0365
   84MOL   C10246748   1.689   2.667   4.559 -0.8258 -0.3537  0.0259
   84MOL   O10346749   1.347   2.716   4.480  0.0285 -0.0850 -0.0618
   84MOL   H10446750   1.485   2.924   4.588  0.5826  1.6258  0.0581
   84MOL   H10546751   1.669   3.006   4.744 -0.5099  0.1998 -1.3107
   84MOL   H10646752   1.991   2.926   4.625 -2.4886 -0.3550  0.4099
   84MOL   H10746753   2.237   2.895   4.632 -0.7547 -1.0212 -0.5280
   84MOL   H10846754   2.449   2.965   4.734 -0.5811 -0.2081 -0.3398
   84MOL   H10946755   2.466   3.186   5.025  1.7973  0.2319 -0.1080
   84MOL   H11046756   2.237   3.195   5.020 -0.3098  0.0673 -0.5269
   84MOL   H11146757   2.029   3.106   4.947 -0.9136 -1.0248 -0.1319
   84MOL   H11246758   1.886   2.645   4.662  0.5888  0.8410  2.3971
   84MOL   H11346759   1.704   2.574   4.507  2.4149 -0.1705  0.5166
   84MOL   C11446760   2.605   3.107   4.911 -0.2481 -0.5745  0.6697
   84MOL   C11546761   2.695   3.094   5.032  0.4028 -0.1766  0.5402
   84MOL   C11646762   2.641   3.076   5.162  0.4144 -0.1018 -0.3267
   84MOL   C11746763   2.727   3.073   5.274 -0.0635 -0.7691 -0.8099
   84MOL   C11846764   2.866   3.076   5.257 -0.6719  0.1794 -0.2558
   84MOL   C11946765   2.957   3.091   5.378 -0.7816  0.0055 -0.3852
   84MOL   N12046766   3.047   3.187   5.392 -0.5239 -0.4183  0.1686
   84MOL   C12146767   3.075   3.286   5.290  0.0308 -0.7483  0.2924
   84MOL   C12246768   2.970   3.353   5.229 -0.1070 -0.2498  0.1116
   84MOL   C12346769   2.994   3.447   5.129 -0.4719 -0.0616  0.4997
   84MOL   C12446770   3.124   3.462   5.078 -0.6539  0.3228 -0.5527
   84MOL   N12546771   3.159   3.539   4.966  0.2878 -0.4493  0.1207
   84MOL   C12646772   3.233   3.405   5.148  0.4566 -0.4313  0.0936
   84MOL   C12746773   3.207   3.310   5.248  0.1170  0.3759  0.5046
   84MOL   O12846774   2.939   3.010   5.466  0.2933  0.0139 -0.1876
   84MOL   C12946775   2.912   3.075   5.129 -0.4904 -0.2183  0.3007
   84MOL   C13046776   2.832   3.088   5.016 -0.7452  0.0340  0.7583
   84MOL   O13146777   2.649   3.098   4.794  0.0946  0.2648 -0.4635
   84MOL   H13246778   2.536   3.071   5.188  0.9688  1.4417  2.3762
   84MOL   H13346779   2.685   3.071   5.373  0.5212 -1.2957 -0.5677
   84MOL   H13446780   3.107   3.170   5.471  0.7381  1.8594 -0.2479
   84MOL   H13546781   2.872   3.341   5.273 -0.3963  0.4357 -0.3496
   84MOL   H13646782   2.914   3.510   5.093  0.5512 -0.4529 -2.6587
   84MOL   H13746783   3.245   3.516   4.918  0.4223  0.2594  0.0161
   84MOL   H13846784   3.332   3.421   5.109  0.5181  1.6692  1.0603
   84MOL   H13946785   3.296   3.264   5.291 -0.8497 -1.9854  0.0689
   84MOL   H14046786   3.018   3.063   5.112 -0.4953  2.0483 -1.5730
   84MOL   H14146787   2.880   3.083   4.919  3.5676 -0.9595  2.7920
   84MOL   C14246788   3.089   3.645   4.910 -0.0464  0.2439  0.5007
   84MOL   C14346789   3.122   3.674   4.763  0.3491  0.4405 -0.1720
   84MOL   C14446790   3.085   3.799   4.706  0.5289 -0.3569  0.6579
   84MOL   C14546791   3.116   3.826   4.570  0.2439 -0.4180 -0.0459
   84MOL   C14646792   3.155   3.719   4.486  0.2882  0.2313  0.4021
   84MOL   C14746793   3.154   3.730   4.335 -0.0996  0.1880 -0.3724
   84MOL   N14846794   3.034   3.696   4.274 -0.0585  0.3234 -0.2105
   84MOL   C14946795   2.992   3.734   4.137 -0.3068  0.2181 -0.3301
   84MOL   C15046796   2.860   3.695   4.099 -0.1460  0.2433 -0.1655
   84MOL   C15146797   2.811   3.742   3.976 -0.1133 -0.8038  0.0110
   84MOL   C15246798   2.887   3.830   3.894  0.5553 -0.5304  0.0320
   84MOL   N15346799   2.835   3.887   3.776  0.0212  0.6493 -0.1206
   84MOL   C15446800   3.019   3.858   3.931  0.2403  0.1706  0.0488
   84MOL   C15546801   3.066   3.821   4.053 -0.4441  0.1504  0.1130
   84MOL   O15646802   3.257   3.773   4.280  0.2393 -0.5045  0.1356
   84MOL   C15746803   3.190   3.601   4.545 -0.6444 -0.1949 -0.2191
   84MOL   C15846804   3.186   3.575   4.684 -0.0549  0.9530  0.3687
   84MOL   O15946805   3.002   3.709   4.972 -0.1673  0.4710 -0.1777
   84MOL   H16046806   3.034   3.875   4.763 -2.8749 -1.8460 -0.2450
   84MOL   H16146807   3.088   3.918   4.521  0.8830 -1.0382 -1.6097
   84MOL   H16246808   2.973   3.653   4.343  0.3087  1.6750  0.9915
   84MOL   H16346809   2.798   3.638   4.166  0.4862 -0.1975  0.0468
   84MOL   H16446810   2.706   3.731   3.954  0.2921  1.6393 -3.6948
   84MOL   H16546811   2.915   3.913   3.720  0.7194  1.0968  1.0691
   84MOL   H16646812   3.088   3.904   3.861  0.7212 -0.1259  0.3298
   84MOL   H16746813   3.153   3.878   4.080  0.2915 -0.6787 -0.4383
   84MOL   H16846814   3.230   3.529   4.476 -0.2282 -1.3815  1.2372
   84MOL   H16946815   3.202   3.472   4.713 -2.7910 -0.3336 -2.4319
   84MOL   C17046816   2.714   3.887   3.715  0.5250  0.0609  0.0483
   84MOL   C17146817   2.691   3.981   3.604  1.0385  0.0964 -0.2987
   84MOL   C17246818   2.778   3.999   3.494 -0.2977 -0.2657 -0.2788
   84MOL   C17346819   2.753   4.106   3.404  0.5085 -0.1212 -0.3843
   84MOL   C17446820   2.641   4.188   3.419  0.6245  0.0539  0.4043
   84MOL   C17546821   2.604   4.284   3.313  0.3151 -0.0923 -0.4887
   84MOL   N17646822   2.702   4.333   3.230  0.0504 -0.1993 -0.2005
   84MOL   C17746823   2.674   4.406   3.109  0.3107 -0.2371 -0.6493
   84MOL   C17846824   2.767   4.507   3.065  0.1941  0.0271 -0.1775
   84MOL   C17946825   2.757   4.573   2.939 -0.0017 -0.1934 -0.0627
   84MOL   C18046826   2.669   4.519   2.847  0.1537  0.0184 -0.2222
   84MOL   N18146827   2.664   4.557   2.714 -0.4615  0.3994 -0.2660
   84MOL   C18246828   2.577   4.416   2.890 -0.2065  0.0823 -0.3922
   84MOL   C18346829   2.583   4.354   3.018 -0.6346  0.7439 -0.0977
   84MOL   O18446830   2.487   4.319   3.300  0.0254  0.4584 -0.4054
   84MOL   C18546831   2.554   4.173   3.525  0.3347  0.8324  0.0910
   84MOL   C18646832   2.577   4.071   3.620 -0.0271 -0.1090 -0.0133
   84MOL   O18746833   2.615   3.830   3.758 -0.1245  0.1047  0.4055
   84MOL   H18846834   2.864   3.935   3.487  0.2620  0.3691  0.6953
   84MOL   H18946835   2.820   4.120   3.320  1.6992 -3.1620 -0.0199
   84MOL   H19046836   2.799   4.317   3.254  0.8843 -0.2723 -3.3484
   84MOL   H19146837   2.848   4.543   3.128  0.1898 -2.9130  1.5631
   84MOL   H19246838   2.825   4.650   2.904  2.2569 -0.7573  2.8657
   84MOL   H19346839   2.594   4.503   2.666 -1.0120  1.3749 -0.5726
   84MOL   H19446840   2.512   4.378   2.813 -1.8298  2.5993 -0.3182
   84MOL   H19546841   2.518   4.271   3.041  0.5369 -0.0386  0.4070
   84MOL   H19646842   2.461   4.227   3.534  0.1696  1.0186 -2.2884
   84MOL   H19746843   2.516   4.071   3.709 -1.1044 -2.4273 -0.7029
   84MOL   C19846844   2.721   4.645   2.635  0.4518 -0.9292  0.1138
   84MOL   C19946845   2.699   4.620   2.490 -0.0515 -0.3883 -0.2814
   84MOL   C20046846   2.747   4.505   2.427  0.9475  0.1052  0.9462
   84MOL   C20146847   2.725   4.481   2.290  0.7070 -0.2962  0.7327
   84MOL   C20246848   2.653   4.574   2.222  0.3232 -0.6033 -0.4962
   84MOL   C20346849   2.628   4.556   2.071 -0.1733  0.9158  0.2862
   84MOL   N20446850   2.735   4.508   2.006 -0.5643 -0.2556 -0.1245
   84MOL   C20546851   2.749   4.455   1.872  0.2462 -0.0266  0.5334
   84MOL   C20646852   2.688   4.511   1.759  0.1162 -0.1323 -0.0391
   84MOL   C20746853   2.710   4.449   1.636 -0.1462 -0.8651  0.0813
   84MOL   C20846854   2.801   4.344   1.619 -0.2598 -0.1213 -0.3462
   84MOL   N20946855   2.843   4.285   1.494  0.1860  0.8737 -0.4892
   84MOL   C21046856   2.868   4.300   1.732 -0.0548  0.2323  0.0742
   84MOL   C21146857   2.838   4.349   1.856  0.2048 -0.1444 -0.0185
   84MOL   O21246858   2.522   4.588   2.014 -0.4345 -0.1474 -0.0029
   84MOL   C21346859   2.593   4.692   2.285  0.1641 -0.2298  0.0878
   84MOL   C21446860   2.623   4.715   2.417  0.4713 -0.4196 -0.3979
   84MOL   O21546861   2.796   4.741   2.665  0.5777  0.2432 -0.5937
   84MOL   H21646862   2.805   4.428   2.477 -0.7186 -1.2900  0.7736
   84MOL   H21746863   2.758   4.391   2.242 -1.1744 -0.4517 -0.3293
   84MOL   H21846864   2.809   4.487   2.071 -0.8396 -2.8937 -0.6397
   84MOL   H21946865   2.615   4.589   1.771 -2.2343 -1.9490 -1.9243
   84MOL   H22046866   2.656   4.493   1.554  1.7320  0.9237 -0.2227
   84MOL   H22146867   2.881   4.191   1.505  1.6399  1.3941 -0.8864
   84MOL   H22246868   2.927   4.211   1.713  0.2903  0.1770  1.3351
   84MOL   H22346869   2.894   4.306   1.938  2.6445  1.3705 -0.8354
   84MOL   H22446870   2.533   4.760   2.226 -0.5533 -1.7884 -1.0070
   84MOL   H22546871   2.587   4.805   2.464  0.6363 -1.1990  1.2253
   84MOL   C22646872   2.796   4.312   1.362  0.4021 -0.7271  0.0824
   84MOL   C22746873   2.791   4.192   1.273 -0.0049 -0.2795  0.4350
   84MOL   C22846874   2.698   4.193   1.160 -0.5301  0.3748  0.5772
   84MOL   C22946875   2.696   4.081   1.072  0.2497 -0.1825  0.4067
   84MOL   C23046876   2.777   3.973   1.103 -0.1685 -0.0183  0.1315
   84MOL   C23146877   2.786   3.859   1.009 -0.4942 -0.3769  0.5435
   84MOL   N23246878   2.893   3.862   0.926 -0.5163  0.5563 -0.2800
   84MOL   C23346879   2.974   3.748   0.898  1.2403  0.4198  0.2446
   84MOL   C23446880   3.082   3.756   0.811  1.2074  0.3712 -0.7350
   84MOL   C23546881   3.187   3.665   0.817 -0.1577 -0.0711 -0.5289
   84MOL   C23646882   3.187   3.552   0.906  0.6306 -0.7730 -0.1138
   84MOL   N23746883   3.289   3.461   0.930  0.1706  1.1926  0.3619
   84MOL   C23846884   3.084   3.549   0.998  0.3449  0.3277  0.0779
   84MOL   C23946885   2.971   3.635   0.990  0.7075  0.1495 -0.2384
   84MOL   O24046886   2.693   3.777   1.013 -0.7383  0.4697 -0.0706
   84MOL   C24146887   2.861   3.968   1.213  0.0297  0.5564 -0.1276
   84MOL   C24246888   2.874   4.079   1.291 -0.4180 -0.7257 -0.1737
   84MOL   O24346889   2.766   4.420   1.318 -0.5663 -0.4782 -0.0679
   84MOL   H24446890   2.630   4.274   1.140 -2.1295 -1.3032 -0.9414
   84MOL   H24546891   2.637   4.079   0.982 -1.2305 -1.6951  1.3815
   84MOL   H24646892   2.932   3.950   0.895  2.3513 -0.8830 -0.9021
   84MOL   H24746893   3.092   3.851   0.761 -1.6550  1.0367 -0.1128
   84MOL   H24846894   3.264   3.694   0.746  0.4772  1.1411  0.6278
   84MOL   H24946895   3.280   3.411   1.017  1.1461  1.9188  0.8903
   84MOL   H25046896   3.088   3.477   1.079  0.5055  0.9263  0.6044
   84MOL   H25146897   2.898   3.625   1.069 -0.4053  1.6441 -1.0543
   84MOL   H25246898   2.929   3.886   1.228 -2.1590 -0.8426  2.6027
   84MOL   H25346899   2.946   4.082   1.372 -1.8895 -0.0726  1.1238
   84MOL   C25446900   3.411   3.453   0.872 -0.2514 -0.2450 -0.0453
   84MOL   C25546901   3.506   3.353   0.927 -0.1147  0.0518  0.1239
   84MOL   C25646902   3.457   3.237   0.989 -0.0996  0.6793  0.1227
   84MOL   C25746903   3.546   3.131   1.030  0.0549  0.4093  0.8734
   84MOL   C25846904   3.683   3.142   1.014 -0.9364  0.7281  0.4299
   84MOL   C25946905   3.785   3.025   1.055 -0.8580 -0.3192 -0.0629
   84MOL   N26046906   3.730   2.916   1.112 -0.2327 -0.0212  0.8078
   84MOL   C26146907   3.781   2.792   1.138 -0.1632  0.0399  0.2650
   84MOL   C26246908   3.908   2.784   1.195 -0.0537 -0.6516  0.3882
   84MOL   C26346909   3.958   2.658   1.217 -0.3283  0.0407  0.2102
   84MOL   C26446910   3.880   2.537   1.210  0.2936  0.7407 -0.3864
   84MOL   N26546911   3.930   2.424   1.271 -0.0182 -0.4415 -0.3029
   84MOL   C26646912   3.753   2.547   1.150  0.3324  1.2082  0.5946
   84MOL   C26746913   3.703   2.677   1.115  0.4538  0.3851  0.4135
   84MOL   O26846914   3.910   3.048   1.050 -0.1511  0.3132  0.4961
   84MOL   C26946915   3.732   3.263   0.949  0.7375 -0.3886  1.1275
   84MOL   C27046916   3.643   3.365   0.904  0.1025 -0.0327  0.8385
   84MOL   O27146917   3.439   3.504   0.763  0.0821 -0.3693  0.1667
   84MOL   H27246918   3.357   3.228   1.029  0.7365 -2.3688  1.7006
   84MOL   H27346919   3.498   3.042   1.069  1.4288 -0.5404  0.4164
   84MOL   H27446920   3.631   2.924   1.096 -0.4599  0.2091  2.2562
   84MOL   H27546921   3.981   2.863   1.192 -1.6695  0.8771  0.5570
   84MOL   H27646922   4.059   2.652   1.255  0.8818 -0.7275 -2.9342
   84MOL   H27746923   4.011   2.445   1.328 -1.4332  3.0923  0.5531
   84MOL   H27846924   3.675   2.472   1.143 -0.6325  2.2626 -0.1981
   84MOL   H27946925   3.599   2.690   1.087  1.0113  0.5718 -1.6827
   84MOL   H28046926   3.839   3.264   0.934  0.7582 -0.4281  1.2786
   84MOL   H28146927   3.678   3.455   0.855 -3.3916  1.4893  0.9575
   84MOL   C28246928   3.876   2.305   1.263  0.3885 -0.1547 -0.3721
   84MOL   C28346929   3.940   2.202   1.351  0.0850 -0.2176 -0.6631
   84MOL   C28446930   3.959   2.066   1.312 -0.2592 -0.0831 -0.0632
   84MOL   C28546931   3.987   1.963   1.403  0.7532 -0.5491  0.0891
   84MOL   C28646932   3.995   1.993   1.539 -0.7449 -0.2516  0.6423
   84MOL   C28746933   4.023   1.881   1.638  0.4205 -0.3087 -0.2237
   84MOL   N28846934   4.145   1.869   1.701  1.0059 -0.2776  0.1489
   84MOL   C28946935   4.272   1.930   1.681 -0.4521 -0.3195  0.5470
   84MOL   C29046936   4.304   1.996   1.563 -0.4578  0.2207  0.3767
   84MOL   C29146937   4.436   2.050   1.559 -0.2736  0.1226 -0.7109
   84MOL   C29246938   4.531   2.032   1.657  0.2095  0.0440  0.0781
   84MOL   N29346939   4.660   2.079   1.649 -0.1848  0.1877 -0.2613
   84MOL   C29446940   4.498   1.960   1.772  0.0308 -0.0241 -0.0074
   84MOL   C29546941   4.371   1.904   1.779 -0.0700 -0.2208 -0.1730
   84MOL   O29646942   3.934   1.795   1.657 -0.4905  0.7773 -0.4835
   84MOL   C29746943   3.989   2.126   1.582 -0.0723 -0.2333 -0.5405
   84MOL   C29846944   3.957   2.229   1.487 -0.4478 -0.0299 -0.0173
   84MOL   O29946945   3.790   2.268   1.180  0.4647  0.2067  0.2637
   84MOL   H30046946   3.955   2.037   1.208  1.7441 -2.9044  0.5672
   84MOL   H30146947   4.012   1.865   1.365  0.3710 -0.8646  0.6525
   84MOL   H30246948   4.148   1.798   1.772 -1.0150  0.2006  0.7395
   84MOL   H30346949   4.233   2.005   1.481 -0.6057  0.2890  0.5122
   84MOL   H30446950   4.464   2.099   1.466 -1.0813  0.3393 -0.8491
   84MOL   H30546951   4.731   2.007   1.644 -1.8788 -1.5630  0.4584
   84MOL   H30646952   4.563   1.947   1.857  0.3413 -0.9486 -0.3768
   84MOL   H30746953   4.353   1.851   1.871 -1.6594 -2.7411 -1.8753
   84MOL   H30846954   3.984   2.143   1.689  3.0154  0.6171 -0.4660
   84MOL   H30946955   3.945   2.327   1.533  3.8373  1.2407 -1.4121
   84MOL   C31046956   4.698   2.195   1.604  0.4474 -0.6556  0.1482
   84MOL   C31146957   4.595   2.310   1.594 -0.1447 -0.0451  0.2055
   84MOL   C31246958   4.496   2.329   1.696 -0.2259 -0.5766 -0.3563
   84MOL   C31346959   4.381   2.407   1.670  0.3718 -0.0641 -0.4997
   84MOL   C31446960   4.365   2.468   1.544  0.3596 -0.3840 -0.3048
   84MOL   C31546961   4.244   2.554   1.524 -0.2192 -0.5160 -0.3929
   84MOL   N31646962   4.240   2.673   1.584  0.4424 -0.7047  0.0308
   84MOL   C31746963   4.136   2.761   1.571  0.3442 -0.7046 -0.6010
   84MOL   C31846964   4.163   2.898   1.557 -0.0423 -0.0075  0.3605
   84MOL   C31946965   4.056   2.988   1.518  0.5605 -0.2731  0.3991
   84MOL   C32046966   3.922   2.944   1.508  0.0541  0.0742  0.2646
   84MOL   N32146967   3.810   3.023   1.475  0.2157 -0.0553 -0.1150
   84MOL   C32246968   3.897   2.808   1.545  0.6356  0.3179  0.0343
   84MOL   C32346969   4.002   2.719   1.573  0.4997 -0.3965  0.2357
   84MOL   O32446970   4.164   2.523   1.437  0.3594 -1.0266  0.3266
   84MOL   C32546971   4.463   2.451   1.438 -0.3029 -0.4411 -0.5153
   84MOL   C32646972   4.573   2.375   1.468 -0.6931  0.8175  0.1348
   84MOL   O32746973   4.805   2.219   1.548 -0.4518 -0.6495 -0.4898
   84MOL   H32846974   4.504   2.269   1.786 -0.4264 -4.1235 -2.6500
   84MOL   H32946975   4.309   2.421   1.749  2.9143  0.9056  1.7481
   84MOL   H33046976   4.324   2.692   1.636  1.5048 -2.6189 -0.9104
   84MOL   H33146977   4.262   2.938   1.564  0.5626 -1.6479  1.5870
   84MOL   H33246978   4.078   3.093   1.505 -1.6855  0.0994 -0.6531
   84MOL   H33346979   3.721   2.981   1.500  0.7103 -0.4884  0.9946
   84MOL   H33446980   3.800   2.763   1.556  0.4146  1.1921  1.8958
   84MOL   H33546981   3.980   2.617   1.601  0.1543 -0.3997 -0.0593
   84MOL   H33646982   4.442   2.490   1.340  0.1458  1.1582  0.0095
   84MOL   H33746983   4.639   2.340   1.390 -0.0859  1.5395  0.3195
   84MOL   C33846984   3.803   3.145   1.419  0.0575  0.3099  0.2030
   84MOL   C33946985   3.665   3.195   1.401  0.0203 -0.2275  0.3496
   84MOL   C34046986   3.650   3.308   1.323  1.3814  0.2035  0.0761
   84MOL   C34146987   3.525   3.366   1.304  0.3468 -0.1384  0.3008
   84MOL   C34246988   3.412   3.308   1.362 -0.2258  0.4593 -0.0463
   84MOL   C34346989   3.282   3.376   1.334 -0.7089 -0.0592 -0.2270
   84MOL   N34446990   3.191   3.351   1.428  0.1119  0.0083 -0.2924
   84MOL   C34546991   3.051   3.381   1.430 -0.1705  0.0418 -0.6061
   84MOL   C34646992   2.966   3.298   1.504  0.7605 -0.3655  0.4146
   84MOL   C34746993   2.823   3.311   1.509 -0.2267  0.0977  0.1104
   84MOL   C34846994   2.759   3.419   1.434 -0.2072 -0.2277  0.1139
   84MOL   N34946995   2.614   3.428   1.427  0.5559  0.6164  0.2039
   84MOL   C35046996   2.846   3.505   1.364  0.4817  0.0674 -0.2792
   84MOL   C35146997   2.989   3.486   1.361 -1.0435  0.0899  0.3614
   84MOL   O35246998   3.273   3.451   1.236  0.3058  0.0288 -0.8583
   84MOL   C35346999   3.426   3.190   1.443 -0.2238 -0.4407  0.2888
   84MOL   C35447000   3.555   3.132   1.464 -0.6203 -0.4719 -0.1457
   84MOL   O35547001   3.904   3.211   1.381 -0.3726 -0.5847  0.2668
   84MOL   H35647002   3.725   3.360   1.264 -0.3103  0.3102 -2.0488
   84MOL   H35747003   3.516   3.452   1.239  1.1173  0.1707  0.5853
   84MOL   H35847004   3.231   3.307   1.510  1.8387  1.1304 -0.4820
   84MOL   H35947005   2.999   3.213   1.563  0.4544  1.2019  2.9040
   84MOL   H36047006   2.773   3.228   1.557  2.8111 -1.1402  1.2138
   84MOL   H36147007   2.575   3.483   1.352 -2.0413 -0.0028  1.0463
   84MOL   H36247008   2.816   3.597   1.315  2.1770  0.2563 -0.9982
   84MOL   H36347009   3.047   3.555   1.303 -0.0541  1.8048  3.2674
   84MOL   H36447010   3.337   3.142   1.481  0.0771 -2.0086 -0.9466
   84MOL   H36547011   3.569   3.046   1.527 -1.6304  0.0688  0.8272
   84MOL   C36647012   2.521   3.372   1.504 -0.4749  1.5723 -0.2608
   84MOL   C36747013   2.376   3.378   1.451 -0.1092 -0.8210 -0.7483
   84MOL   C36847014   2.313   3.257   1.417 -0.5522  0.3529 -0.0125
   84MOL   C36947015   2.190   3.260   1.343 -0.4918  0.3776 -0.1795
   84MOL   C37047016   2.139   3.383   1.303 -0.3867  0.2264 -0.6979
   84MOL   C37147017   2.015   3.386   1.220  0.5104 -0.1081  0.1679
   84MOL   N37247018   2.015   3.293   1.120 -0.1325 -0.0015 -0.0389
   84MOL   C37347019   1.940   3.300   1.002  0.1000  0.2388  0.1312
   84MOL   C37447020   1.896   3.423   0.943  0.4118 -0.6056 -0.4941
   84MOL   C37547021   1.845   3.422   0.810 -0.5076  0.7873 -0.0263
   84MOL   C37647022   1.824   3.301   0.746  0.6585 -0.3374 -0.2489
   84MOL   N37747023   1.761   3.305   0.617 -1.0040 -0.3831  0.1078
   84MOL   C37847024   1.873   3.179   0.801 -0.4223 -0.1990 -0.0784
   84MOL   C37947025   1.927   3.183   0.929  0.3908 -0.0499 -0.1208
   84MOL   O38047026   1.920   3.465   1.244 -0.6340 -0.1302  0.0987
   84MOL   C38147027   2.188   3.503   1.355 -0.3788  0.3132  0.2070
   84MOL   C38247028   2.313   3.500   1.424  0.0473 -0.9603  0.0001
   84MOL   O38347029   2.541   3.297   1.604  0.2259  0.4462 -0.7767
   84MOL   H38447030   2.362   3.170   1.458  1.5668  0.3961 -2.3178
   84MOL   H38547031   2.140   3.169   1.313  0.5785 -0.1625 -0.3505
   84MOL   H38647032   2.092   3.228   1.112  0.0092  0.1410  0.1410
   84MOL   H38747033   1.923   3.513   0.997  1.4202  0.4297 -2.6506
   84MOL   H38847034   1.807   3.512   0.763  1.1335  1.0285 -0.9138
   84MOL   H38947035   1.804   3.252   0.542  0.2122  0.9089 -0.1288
   84MOL   H39047036   1.858   3.085   0.750  0.1145 -0.1495 -0.3278
   84MOL   H39147037   1.967   3.087   0.959  1.1662 -0.0128 -1.0053
   84MOL   H39247038   2.137   3.597   1.339 -0.0466  0.4127 -0.2951
   84MOL   H39347039   2.357   3.595   1.450 -1.1703 -0.3513 -0.1455
   84MOL   C39447040   1.648   3.367   0.584 -0.2741 -0.4821 -0.0087
   84MOL   C39547041   1.626   3.413   0.441  0.2931 -0.6481 -0.0143
   84MOL   C39647042   1.711   3.503   0.381  0.0967  0.5186 -0.2707
   84MOL   C39747043   1.677   3.579   0.263  0.0444  0.1501  0.6797
   84MOL   C39847044   1.548   3.549   0.202  0.2579 -0.2839 -0.7397
   84MOL   C39947045   1.513   3.626   0.074  0.5456  0.5099 -0.3973
   84MOL   N40047046   1.405   3.580   0.013  1.0213  0.2642  0.1093
   84MOL   C40147047   1.347   3.621   8.034  0.1925 -0.3682  0.5780
   84MOL   C40247048   1.336   3.758   7.995  0.8635 -0.0323  1.0837
   84MOL   C40347049   1.272   3.794   7.873  0.1132 -0.0035 -0.1602
   84MOL   C40447050   1.221   3.693   7.788 -0.7773 -0.1243  0.0076
   84MOL   N40547051   1.155   3.727   7.668  0.2583  0.7894 -0.2954
   84MOL   C40647052   1.235   3.555   7.825 -0.2615 -0.0039 -0.3557
   84MOL   C40747053   1.298   3.515   7.945 -0.1840  0.0432 -0.2718
   84MOL   O40847054   1.579   3.721   0.030  0.0207 -0.3167  0.5883
   84MOL   C40947055   1.459   3.467   0.268  0.1954 -0.3607 -0.3178
   84MOL   C41047056   1.497   3.393   0.385  0.4407 -0.4404  0.1055
   84MOL   O41147057   1.568   3.389   0.676  0.3053  0.3562  0.3434
   84MOL   H41247058   1.802   3.525   0.434  0.6809  2.2836 -1.9245
   84MOL   H41347059   1.751   3.639   0.214  0.5277  0.3208  1.6230
   84MOL   H41447060   1.362   3.500   0.058  0.3752  0.6234  0.1352
   84MOL   H41547061   1.372   3.834   8.062  1.6370  0.0214  0.6200
   84MOL   H41647062   1.252   3.897   7.848 -2.7353  0.6573  4.2723
   84MOL   H41747063   1.092   3.658   7.627  0.9563  0.5974 -1.0678
   84MOL   H41847064   1.197   3.479   7.759  2.4400 -2.1249  0.4419
   84MOL   H41947065   1.298   3.410   7.970  0.1626 -0.4737 -2.3269
   84MOL   H42047066   1.355   3.466   0.239 -0.1140 -0.1522  0.7411
   84MOL   H42147067   1.416   3.338   0.431 -0.3606 -1.3574 -2.3474
   84MOL   C42247068   1.174   3.826   7.579 -0.1393 -0.7881  0.7691
   84MOL   C42347069   1.276   3.938   7.605 -0.6148 -0.0448  0.9799
   84MOL   C42447070   1.242   4.071   7.638  0.5293  0.1735  0.3261
   84MOL   C42547071   1.337   4.174   7.635  0.2436 -0.0477  0.1505
   84MOL   C42647072   1.478   4.147   7.600  0.2962  0.2572 -0.4305
   84MOL   C42747073   1.577   4.258   7.595  0.0918  0.6597  0.2950
   84MOL   N42847074   1.689   4.254   7.679  0.5449 -0.4018  0.6038
   84MOL   C42947075   1.717   4.174   7.795 -0.1098 -0.5178 -0.2160
   84MOL   C43047076   1.621   4.091   7.859 -0.7678 -0.0303  0.9434
   84MOL   C43147077   1.657   3.997   7.957 -0.7242 -0.8532 -0.2215
   84MOL   C43247078   1.795   3.996   8.000  0.4715 -0.1008  0.5287
   84MOL   N43347079   1.837   3.906   8.097 -0.1001  0.1998  0.1022
   84MOL   C43447080   1.890   4.088   7.940  0.1944 -0.4634  1.1432
   84MOL   C43547081   1.850   4.177   7.835  0.2320 -0.2326 -0.3077
   84MOL   O43647082   1.552   4.353   7.528  0.0501 -0.2594  0.1077
   84MOL   C43747083   1.514   4.016   7.565  0.6643 -0.0517  0.3097
   84MOL   C43847084   1.411   3.916   7.578  0.0395 -0.0759  0.3821
   84MOL   O43947085   1.105   3.832   7.478  0.5522  0.1747 -0.2254
   84MOL   H44047086   1.140   4.082   7.669  0.6099  0.2125  0.5776
   84MOL   H44147087   1.306   4.276   7.654 -0.4905  0.1244 -1.9070
   84MOL   H44247088   1.766   4.313   7.652  0.8114 -0.4299  1.3036
   84MOL   H44347089   1.516   4.089   7.830 -0.3413 -1.4379 -0.5602
   84MOL   H44447090   1.579   3.945   8.011  0.4619  0.7803  3.1842
   84MOL   H44547091   1.793   3.817   8.114  2.4802 -1.6493 -2.4840
   84MOL   H44647092   1.988   4.105   7.983  0.6003  0.4636 -0.1309
   84MOL   H44747093   1.926   4.243   7.795  0.0451 -0.9766 -1.9207
   84MOL   H44847094   1.617   3.992   7.543  1.0738 -0.1351  2.2331
   84MOL   H44947095   1.438   3.812   7.567  0.8786 -0.0229  1.8189
   84MOL   C45047096   1.937   3.929   0.036  0.0794 -0.2121 -0.3985
   84MOL   C45147097   1.971   3.806   0.119  0.1796  0.9722  0.4080
   84MOL   C45247098   1.965   3.819   0.257  0.4724 -0.1052 -0.2260
   84MOL   C45347099   2.010   3.711   0.337  0.2811 -0.0786  0.3013
   84MOL   C45447100   2.055   3.590   0.277  0.1693  0.0574  0.0949
   84MOL   C45547101   2.092   3.470   0.358 -0.3771 -0.4008  0.2103
   84MOL   N45647102   2.158   3.376   0.291  0.1964 -0.1862 -0.2655
   84MOL   C45747103   2.209   3.254   0.337 -0.1928  0.4027 -0.5240
   84MOL   C45847104   2.180   3.191   0.462  0.4549 -0.0801 -0.6385
   84MOL   C45947105   2.203   3.057   0.491 -0.3033  0.1933 -0.1633
   84MOL   C46047106   2.273   2.979   0.392  0.7435 -0.1841  0.6814
   84MOL   N46147107   2.283   2.840   0.403  0.4436  0.0553  0.0286
   84MOL   C46247108   2.305   3.035   0.267  0.1957 -0.6884 -0.2878
   84MOL   C46347109   2.280   3.172   0.244 -0.1328  0.2373 -0.0987
   84MOL   O46447110   2.068   3.459   0.479 -0.7939 -0.4757 -0.2257
   84MOL   C46547111   2.057   3.581   0.135 -0.3746  0.0765 -0.7304
   84MOL   C46647112   2.013   3.689   0.054 -0.4209  0.1185 -0.3826
   84MOL   O46747113   1.984   4.042   0.053  0.0775 -0.4447  0.0579
   84MOL   H46847114   1.921   3.903   0.308 -1.4700 -1.8650  1.0617
   84MOL   H46947115   1.995   3.728   0.443  0.7529  1.5554  0.1215
   84MOL   H47047116   2.169   3.389   0.192  1.6253 -1.3880 -0.2935
   84MOL   H47147117   2.118   3.240   0.536 -3.0552  0.6093 -3.8918
   84MOL   H47247118   2.155   3.018   0.580  0.5813 -0.7377 -0.0849
   84MOL   H47347119   2.299   2.797   0.313  3.1581 -1.3212  1.1093
   84MOL   H47447120   2.349   2.978   0.187  2.3832  2.5964 -1.5757
   84MOL   H47547121   2.296   3.209   0.144 -2.7323  1.9135  0.0339
   84MOL   H47647122   2.091   3.492   0.084 -0.0662  0.4879 -1.2486
   84MOL   H47747123   2.010   3.681   8.092 -1.6090  0.1873 -0.3654
   84MOL   C47847124   2.274   2.755   0.504  0.2344 -0.5290  0.0419
   84MOL   C47947125   2.277   2.610   0.463  0.3679 -0.4286  0.3344
   84MOL   C48047126   2.170   2.560   0.391  0.1700  0.1415 -0.6764
   84MOL   C48147127   2.178   2.428   0.345  0.5505  0.1734 -0.0732
   84MOL   C48247128   2.282   2.339   0.382 -0.1750 -0.6693 -0.4377
   84MOL   C48347129   2.285   2.194   0.343 -0.8200  0.7292 -0.1077
   84MOL   N48447130   2.211   2.163   0.232  0.6563 -0.4472 -0.4433
   84MOL   C48547131   2.180   2.046   0.157 -0.1732  0.3641  1.1979
   84MOL   C48647132   2.239   1.924   0.181 -0.8401 -0.1286 -0.0960
   84MOL   C48747133   2.215   1.812   0.101 -0.1000  0.3970 -0.6830
   84MOL   C48847134   2.125   1.817   8.133  0.8167 -0.3998 -0.3828
   84MOL   N48947135   2.105   1.703   8.057  0.2136 -0.0567 -0.2176
   84MOL   C49047136   2.060   1.942   8.108 -0.7507  0.1689  0.2555
   84MOL   C49147137   2.090   2.052   0.045 -0.2383 -0.7506 -0.0468
   84MOL   O49247138   2.344   2.113   0.414 -0.3933  0.3330  0.0142
   84MOL   C49347139   2.386   2.394   0.456 -0.5208 -0.2061  0.0589
   84MOL   C49447140   2.387   2.531   0.503 -0.3770  1.3604 -0.4775
   84MOL   O49547141   2.300   2.785   0.619 -0.1687 -0.2335 -0.2778
   84MOL   H49647142   2.095   2.626   0.352 -0.6312 -0.7986 -0.7382
   84MOL   H49747143   2.094   2.386   0.292  0.9637  1.4833 -1.7802
   84MOL   H49847144   2.159   2.243   0.197 -0.8805  0.0525  2.7398
   84MOL   H49947145   2.310   1.921   0.262 -1.7432 -3.5997  0.6389
   84MOL   H50047146   2.256   1.715   0.124 -0.4421  0.0516 -1.5165
   84MOL   H50147147   2.154   1.623   8.095 -0.5194 -0.1100  0.6314
   84MOL   H50247148   1.991   1.952   8.025  0.0040  0.9254 -0.2949
   84MOL   H50347149   2.053   2.146   0.005  1.9154 -1.0415 -2.9194
   84MOL   H50447150   2.478   2.343   0.481 -0.4007  0.1221  0.3018
   84MOL   H50547151   2.468   2.571   0.562 -0.5046 -0.4446  0.9732
   84MOL   C50647152   2.027   1.685   7.947 -0.0925  0.5928  0.3336
   84MOL   C50747153   2.022   1.551   7.876 -0.3781  0.5394  0.9164
   84MOL   C50847154   2.143   1.484   7.832  0.2057  0.3995 -0.2554
   84MOL   C50947155   2.135   1.376   7.740 -0.4046 -0.2173 -0.8973
   84MOL   C51047156   2.011   1.337   7.689 -0.3982 -0.3752  0.0566
   84MOL   C51147157   2.002   1.231   7.586 -0.0492  0.1063  0.5982
   84MOL   N51247158   1.943   1.123   7.638  0.7261  0.1024 -0.0061
   84MOL   C51347159   1.922   1.006   7.563  0.1814  0.2402  0.8074
   84MOL   C51447160   1.900   1.006   7.423 -0.2526 -0.0225  0.1441
   84MOL   C51547161   1.881   0.884   7.349 -0.6633  0.0539  0.7626
   84MOL   C51647162   1.889   0.757   7.418 -0.5335 -0.1710  0.4313
   84MOL   N51747163   1.877   0.635   7.346  0.3992 -0.3326 -0.2106
   84MOL   C51847164   1.927   0.759   7.555 -0.3090 -0.2446  0.4504
   84MOL   C51947165   1.937   0.880   7.628 -0.6070 -0.3979 -0.4614
   84MOL   O52047166   2.046   1.259   7.476  0.3189 -0.0503  0.0805
   84MOL   C52147167   1.895   1.388   7.743 -0.3367 -0.2726  0.5674
   84MOL   C52247168   1.900   1.487   7.837  0.4888  0.2703  0.0810
   84MOL   O52347169   1.953   1.770   7.893 -0.4185  0.2738  0.3958
   84MOL   H52447170   2.243   1.511   7.864  0.3377 -1.2095  0.7761
   84MOL   H52547171   2.230   1.330   7.715  0.1110 -0.6404  1.7540
   84MOL   H52647172   1.956   1.114   7.738  1.1305 -1.6429 -0.1958
   84MOL   H52747173   1.894   1.088   7.354 -1.7049  1.2872  1.7863
   84MOL   H52847174   1.858   0.882   7.244 -0.1045 -0.4908  0.6545
   84MOL   H52947175   1.885   0.553   7.403 -2.9835 -1.2558 -0.9957
   84MOL   H53047176   1.928   0.665   7.609  1.8061 -0.1645  0.5720
   84MOL   H53147177   1.972   0.880   7.730 -0.3140 -0.6758 -0.5607
   84MOL   H53247178   1.797   1.358   7.710 -0.4983  0.8127  0.0410
   84MOL   H53347179   1.809   1.536   7.868 -0.4705 -2.6525  2.0443
   84MOL   C53447180   1.870   0.603   7.218  0.3163  0.4386  0.4351
   84MOL   C53547181   1.912   0.462   7.186 -0.0857  0.3971 -0.2338
   84MOL   C53647182   1.828   0.373   7.118 -0.3087 -0.3020 -0.0909
   84MOL   C53747183   1.868   0.241   7.090  0.1236  0.6091 -0.6759
   84MOL   C53847184   2.004   0.199   7.114 -0.1399 -0.0748 -0.5196
   84MOL   C53947185   2.055   0.064   7.076  0.2300  0.0633  0.3906
   84MOL   N54047186   1.965   8.108   7.085  0.3781  0.1365  0.2104
   84MOL   C54147187   1.999   7.973   7.096 -0.2754  0.1054  0.0376
   84MOL   C54247188   1.940   7.883   7.009 -0.3100 -0.2815  0.2937
   84MOL   C54347189   1.976   7.748   7.009  0.1036 -0.2763 -0.9585
   84MOL   C54447190   2.056   7.700   7.116 -0.0491  0.4275 -0.7952
   84MOL   N54547191   2.080   7.568   7.125  0.6616  0.4593  0.1037
   84MOL   C54647192   2.118   7.788   7.208  0.2339  0.0543 -0.5941
   84MOL   C54747193   2.101   7.927   7.193  0.2673  0.1961 -0.5964
   84MOL   O54847194   2.176   0.046   7.054 -0.2427 -0.5554  0.5842
   84MOL   C54947195   2.089   0.292   7.183 -0.1434  1.3886  0.9133
   84MOL   C55047196   2.039   0.419   7.224 -0.8351  1.0236  0.1531
   84MOL   O55147197   1.816   0.672   7.132 -0.6757  0.1739  0.0025
   84MOL   H55247198   1.727   0.406   7.098  0.2515  1.5828  0.1014
   84MOL   H55347199   1.798   0.177   7.040  1.2631 -1.2049 -0.0104
   84MOL   H55447200   1.867   8.132   7.090  0.4148  0.2057  0.6287
   84MOL   H55547201   1.866   7.910   6.936  1.6850  1.7485 -1.0347
   84MOL   H55647202   1.928   7.680   6.940 -0.6338  0.5133 -1.2269
   84MOL   H55747203   2.116   7.525   7.210 -0.9191 -1.4894 -0.1616
   84MOL   H55847204   2.185   7.753   7.286  1.2618  2.0471 -0.5587
   84MOL   H55947205   2.142   7.997   7.264 -3.3880  2.4923 -0.6038
   84MOL   H56047206   2.184   0.258   7.222 -1.0932 -3.9936 -0.9540
   84MOL   H56147207   2.096   0.488   7.284 -0.2471  1.1562 -0.5522
   84MOL   H56247208   2.010   7.503   7.091  1.6817 -0.3441 -0.4795
   85MOL     C147209   6.604   0.470   1.829 -0.0778  0.0216 -0.7249
   85MOL     C247210   6.639   0.433   1.691  0.0388  0.6924  0.1761
   85MOL     C347211   6.540   0.431   1.588  0.4779  0.1091  0.2944
   85MOL     C447212   6.576   0.381   1.460  0.3459 -0.0176  0.0569
   85MOL     C547213   6.711   0.344   1.427 -0.0250 -0.2529 -0.2512
   85MOL     C647214   6.745   0.292   1.287  0.2073  0.2814 -0.3827
   85MOL     N747215   6.876   0.304   1.254 -0.1579 -0.0297  0.4226
   85MOL     C847216   6.934   0.241   1.144 -0.0101  0.5006  0.3890
   85MOL     C947217   6.889   0.111   1.102 -0.1407 -0.9231  0.1870
   85MOL    C1047218   6.960   0.040   1.001  0.2662 -0.3560 -0.5896
   85MOL    C1147219   7.070   0.099   0.927  0.0240  0.0968 -0.2897
   85MOL    N1247220   7.142   0.034   0.819  0.1892  0.4525 -0.1936
   85MOL    C1347221   7.120   0.222   0.971 -0.0796 -0.5635 -0.0301
   85MOL    C1447222   7.053   0.288   1.075  0.7690  0.0071 -0.0388
   85MOL    O1547223   6.651   0.258   1.211 -0.6434 -0.2423  0.3259
   85MOL    C1647224   6.808   0.360   1.526 -0.0696  0.2954 -0.6521
   85MOL    C1747225   6.771   0.399   1.662 -0.0084  0.6457  0.4926
   85MOL    O1847226   6.691   0.487   1.916  0.3224  0.3776 -0.6716
   85MOL    H1947227   6.441   0.464   1.616  0.7830  0.0531  1.4670
   85MOL    H2047228   6.500   0.364   1.385 -0.6478  0.6110  0.9099
   85MOL    H2147229   6.938   0.356   1.314 -0.0536  0.8658 -0.4492
   85MOL    H2247230   6.803   0.064   1.147 -1.6079 -0.0734 -1.6592
   85MOL    H2347231   6.927   8.087   0.974 -0.2095  0.0731 -1.6008
   85MOL    H2447232   7.240   0.056   0.821 -0.0666  1.6937 -0.9049
   85MOL    H2547233   7.212   0.268   0.936 -1.2212  0.4016 -1.8527
   85MOL    H2647234   7.083   0.385   1.111 -0.8921 -0.6287  3.2382
   85MOL    H2747235   6.910   0.323   1.516 -1.1074 -2.6379 -0.8659
   85MOL    H2847236   6.841   0.395   1.744 -3.3501  0.2056  3.4270
   85MOL    H2947237   6.499   0.478   1.859 -0.2966 -0.8283 -1.2590
   85MOL    C3047238   7.097   8.105   0.716  0.2885 -0.0746 -0.6967
   85MOL    C3147239   7.197   8.053   0.618  0.1038  0.0475 -0.1613
   85MOL    C3247240   7.161   7.947   0.529 -0.3966  0.2240 -0.2102
   85MOL    C3347241   7.249   7.902   0.429 -0.1484  0.2828 -0.1940
   85MOL    C3447242   7.369   7.965   0.412 -0.2432 -0.2126  0.0322
   85MOL    C3547243   7.469   7.921   0.309  0.5459 -0.2781 -0.1980
   85MOL    N3647244   7.415   7.880   0.193 -0.0620  0.2356  0.8655
   85MOL    C3747245   7.482   7.810   0.091 -0.1305 -0.5911 -0.7097
   85MOL    C3847246   7.452   7.848   8.102  0.1810  0.1643  0.2258
   85MOL    C3947247   7.512   7.782   7.992 -0.3127  0.0403  0.1250
   85MOL    C4047248   7.614   7.688   8.009  0.7663 -0.4733 -0.3207
   85MOL    N4147249   7.687   7.647   7.899  0.4739 -0.2810  0.4538
   85MOL    C4247250   7.652   7.662   8.142  0.4168  1.0695 -0.4348
   85MOL    C4347251   7.577   7.707   0.110  0.0699  0.3289  0.8375
   85MOL    O4447252   7.592   7.929   0.331 -0.0113  0.3935 -0.0529
   85MOL    C4547253   7.404   8.070   0.497 -0.0051  0.3218 -0.6752
   85MOL    C4647254   7.324   8.116   0.597 -0.1422  0.2539  0.1833
   85MOL    O4747255   6.983   8.065   0.708  0.1778 -0.2032 -0.0151
   85MOL    H4847256   7.075   7.883   0.545  1.1291 -2.0477 -1.0090
   85MOL    H4947257   7.211   7.819   0.372  1.2280 -1.2624  1.1062
   85MOL    H5047258   7.324   7.915   0.169  0.4873  0.6203 -0.6750
   85MOL    H5147259   7.359   7.900   8.083  1.1395  1.5510 -0.7317
   85MOL    H5247260   7.479   7.814   7.894  4.0542  2.0550 -0.7929
   85MOL    H5347261   7.787   7.657   7.910  0.7419  0.7205 -2.4554
   85MOL    H5447262   7.730   7.588   0.005 -0.3330  0.4391  0.9270
   85MOL    H5547263   7.610   7.678   0.209  0.1052 -1.8187  0.2289
   85MOL    H5647264   7.499   8.120   0.484 -0.4862  0.7880 -2.3954
   85MOL    H5747265   7.352   0.062   0.646 -1.9109  0.9007 -0.0057
   85MOL    C5847266   7.638   7.578   7.792  0.7877  0.4096 -0.1390
   85MOL    C5947267   7.738   7.520   7.705  0.0464 -0.0532 -0.1149
   85MOL    C6047268   7.856   7.589   7.673 -0.4009 -0.5266  0.1053
   85MOL    C6147269   7.951   7.528   7.586  0.7109 -0.4729 -0.3693
   85MOL    C6247270   7.935   7.396   7.530  0.0116  0.0178 -0.1912
   85MOL    C6347271   8.036   7.343   7.435 -0.1959 -0.1159  0.4816
   85MOL    N6447272   7.994   7.255   7.341 -0.0903  0.2827 -0.7817
   85MOL    C6547273   8.076   7.202   7.236 -0.1828 -0.0278 -0.2643
   85MOL    C6647274   8.068   7.071   7.210 -0.4710 -0.4394  0.4879
   85MOL    C6747275   8.142   7.010   7.109 -0.0909 -0.2115 -0.8341
   85MOL    C6847276   0.082   7.085   7.034  0.4148  0.6737  0.4801
   85MOL    N6947277   0.147   7.025   6.924  0.4100 -0.2629 -0.0453
   85MOL    C7047278   0.103   7.223   7.058 -0.5176  0.1011  0.0506
   85MOL    C7147279   0.020   7.287   7.157  0.4962  0.1742 -0.4556
   85MOL    O7247280   0.007   7.381   7.438  0.3678  0.7866 -0.7629
   85MOL    C7347281   7.819   7.322   7.575  0.1652  0.2398  0.0106
   85MOL    C7447282   7.719   7.391   7.654 -0.3224 -0.1676  0.3976
   85MOL    O7547283   7.517   7.568   7.770 -0.1074 -0.8289 -0.3748
   85MOL    H7647284   7.894   7.678   7.722 -1.2643  0.3789 -0.8534
   85MOL    H7747285   8.040   7.583   7.560  0.1353  0.0766 -1.2052
   85MOL    H7847286   7.903   7.211   7.350  0.0407  0.3225  0.8461
   85MOL    H7947287   8.007   6.997   7.261 -1.0985 -1.5353 -1.7882
   85MOL    H8047288   8.130   6.904   7.093  1.2500 -0.8652  2.0790
   85MOL    H8147289   0.129   7.069   6.835 -1.4430 -0.7179  0.1037
   85MOL    H8247290   0.172   7.284   7.002  0.5084  0.2381  1.4364
   85MOL    H8347291   0.020   7.392   7.182 -2.0375  0.0134  0.3261
   85MOL    H8447292   7.797   7.220   7.547  0.4565  0.1999 -0.0680
   85MOL    H8547293   7.630   7.344   7.694 -2.1236  3.8314  1.3561
   85MOL    C8647294   0.217   6.911   6.926  0.0563  0.2415  0.1221
   85MOL    C8747295   0.259   6.855   6.795  0.1290 -0.1701  0.2015
   85MOL    C8847296   0.204   6.897   6.671 -0.2142 -0.5960  0.0156
   85MOL    C8947297   0.253   6.844   6.548  0.1700  0.2558  0.9288
   85MOL    C9047298   0.350   6.747   6.542 -0.0791 -0.3111  0.0347
   85MOL    C9147299   0.381   6.694   6.412  0.2053  0.2915  0.0437
   85MOL    N9247300   0.510   6.659   6.392 -0.7868  0.2210 -0.1870
   85MOL    C9347301   0.586   6.650   6.273 -0.0146 -0.2509 -0.0430
   85MOL    C9447302   0.532   6.623   6.147  0.2604 -0.0571 -0.1204
   85MOL    C9547303   0.619   6.610   6.036 -0.0600  0.3730 -0.6395
   85MOL    C9647304   0.759   6.620   6.053 -1.1761 -1.2606 -0.3169
   85MOL    N9747305   0.850   6.618   5.940 -0.0906 -0.8575  0.1405
   85MOL    C9847306   0.817   6.639   6.182 -0.0607 -0.1753  0.4703
   85MOL    C9947307   0.731   6.651   6.293  0.3080 -0.0972  0.5749
   85MOL   O10047308   0.301   6.700   6.322 -0.1129  0.0081 -0.1059
   85MOL   C10147309   0.401   6.697   6.660  0.5113  0.5931 -0.2091
   85MOL   C10247310   0.357   6.754   6.787  0.3832  0.9690  0.1715
   85MOL   O10347311   0.261   6.865   7.032 -0.4009 -1.0741 -0.1357
   85MOL   H10447312   0.121   6.966   6.664 -0.0322 -0.1738  1.8407
   85MOL   H10547313   0.199   6.871   6.459 -0.2044 -1.3051  0.6578
   85MOL   H10647314   0.579   6.661   6.467  0.7744 -0.4864 -1.5783
   85MOL   H10747315   0.426   6.606   6.139  0.1792 -2.2446  3.8671
   85MOL   H10847316   0.585   6.603   5.934  1.1873  0.8114 -1.1073
   85MOL   H10947317   0.845   6.703   5.886  0.2851  0.2922  1.8714
   85MOL   H11047318   0.924   6.645   6.198  0.7922  0.3986 -4.6393
   85MOL   H11147319   0.761   6.647   6.396 -1.0697  0.1789  1.0039
   85MOL   H11247320   0.469   6.613   6.661  1.7190  1.4511 -3.6112
   85MOL   H11347321   0.393   6.704   6.876  1.5502  0.0608 -0.7880
   85MOL   C11447322   0.962   6.547   5.922  0.5238  0.1082  0.8794
   85MOL   C11547323   0.966   6.416   5.996  0.0521 -0.1002 -0.7683
   85MOL   C11647324   0.861   6.325   5.990 -0.8400 -0.0698  0.4550
   85MOL   C11747325   0.861   6.201   6.056 -0.5071 -0.0972 -0.1465
   85MOL   C11847326   0.971   6.169   6.135 -0.1375  0.0618 -0.6842
   85MOL   C11947327   0.964   6.048   6.220  0.7052  0.5390 -0.1175
   85MOL   N12047328   0.952   6.045   6.354  0.3533 -0.5010  0.4989
   85MOL   C12147329   0.919   6.149   6.440 -0.0967  0.4275  0.0244
   85MOL   C12247330   0.824   6.252   6.407 -0.3136  0.1463  0.0267
   85MOL   C12347331   0.781   6.342   6.503 -0.4052 -0.4887 -0.1423
   85MOL   C12447332   0.826   6.334   6.636 -0.1422  0.6298  0.2770
   85MOL   N12547333   0.791   6.422   6.739 -0.4763 -0.4876  0.0520
   85MOL   C12647334   0.916   6.229   6.667 -0.9942 -0.5605 -0.5905
   85MOL   C12747335   0.966   6.146   6.571 -0.5242  0.1931  0.0840
   85MOL   O12847336   0.973   5.939   6.161 -0.1128 -0.1774 -0.0836
   85MOL   C12947337   1.081   6.260   6.146  0.8131 -0.4061 -0.4287
   85MOL   C13047338   1.075   6.382   6.070  0.4280 -0.4794 -0.3892
   85MOL   O13147339   1.056   6.588   5.852  0.3825  0.3324 -0.5213
   85MOL   H13247340   0.765   6.349   5.946 -1.0437  2.1608  2.0327
   85MOL   H13347341   0.776   6.134   6.059 -0.2253 -0.8609 -4.6902
   85MOL   H13447342   0.942   5.948   6.380  1.1325 -0.0653  2.4793
   85MOL   H13547343   0.773   6.259   6.312  1.1172  4.6277 -0.5155
   85MOL   H13647344   0.705   6.411   6.469 -0.3057 -0.3371 -0.0556
   85MOL   H13747345   0.829   6.396   6.829  3.2944  0.8901 -1.0428
   85MOL   H13847346   0.960   6.223   6.765 -1.3405  1.5742 -0.2731
   85MOL   H13947347   1.041   6.070   6.588  0.6147  0.8221 -2.0243
   85MOL   H14047348   1.165   6.234   6.209  1.1620  1.8281  0.0685
   85MOL   H14147349   1.153   6.457   6.077 -0.8629  0.6539  2.6270
   85MOL   C14247350   0.729   6.539   6.733  0.2218  0.2643 -0.2011
   85MOL   C14347351   0.699   6.608   6.866 -0.0487 -0.1862 -0.3581
   85MOL   C14447352   0.680   6.746   6.872 -0.2694  0.7457 -0.1228
   85MOL   C14547353   0.643   6.807   6.995 -0.0440  0.0154  0.0667
   85MOL   C14647354   0.619   6.729   7.108  0.1106  0.1733 -0.3632
   85MOL   C14747355   0.590   6.796   7.240 -0.1751  0.8801 -0.2972
   85MOL   N14847356   0.481   6.872   7.239 -0.5487  0.1943 -0.3193
   85MOL   C14947357   0.424   6.959   7.338 -0.4162  0.1716  0.1133
   85MOL   C15047358   0.292   6.994   7.330  0.5572 -0.0069  0.3651
   85MOL   C15147359   0.238   7.083   7.427 -0.3111 -0.4009  0.7417
   85MOL   C15247360   0.312   7.124   7.538  0.6634  0.3963 -0.3496
   85MOL   N15347361   0.247   7.214   7.628 -0.1179  0.0304 -0.1161
   85MOL   C15447362   0.450   7.091   7.539  0.4329  0.1812  0.4458
   85MOL   C15547363   0.504   7.001   7.444 -0.5967  0.0314  0.4279
   85MOL   O15647364   0.657   6.766   7.338 -0.3531 -0.3835 -0.6074
   85MOL   C15747365   0.641   6.590   7.092  0.4367  0.7417  0.3121
   85MOL   C15847366   0.673   6.527   6.978  0.0141  0.4354  0.1652
   85MOL   O15947367   0.702   6.593   6.627  0.5243 -0.1180  0.6665
   85MOL   H16047368   0.700   6.798   6.780 -0.3169 -0.1493 -0.6447
   85MOL   H16147369   0.623   6.913   7.002 -0.4083  0.0623 -1.5454
   85MOL   H16247370   0.436   6.875   7.148 -0.1063  0.2586 -0.5371
   85MOL   H16347371   0.230   6.949   7.254  0.3961 -0.5659  0.8275
   85MOL   H16447372   0.135   7.113   7.419 -0.2441 -0.6568 -1.3802
   85MOL   H16547373   0.169   7.271   7.599 -0.6846  0.1258  1.5777
   85MOL   H16647374   0.518   7.118   7.619  2.2535 -0.4915 -0.8591
   85MOL   H16747375   0.608   6.973   7.453  0.0807  1.7424 -1.6322
   85MOL   H16847376   0.623   6.542   7.188  0.2634  1.2699  0.5438
   85MOL   H16947377   0.681   6.419   6.976 -3.1444  0.1189  1.1524
   85MOL   C17047378   0.278   7.237   7.757 -0.3156 -0.1485 -0.0931
   85MOL   C17147379   0.182   7.335   7.822 -0.6901 -0.4561 -0.3470
   85MOL   C17247380   0.041   7.338   7.800 -0.9895 -0.5150 -1.3106
   85MOL   C17347381   8.108   7.433   7.872  0.4117 -0.1614  0.5072
   85MOL   C17447382   0.015   7.513   7.968 -1.1202 -0.7339 -0.0359
   85MOL   C17547383   8.081   7.621   8.034  0.1096  0.1185  0.4916
   85MOL   N17647384   8.133   7.670   8.145 -0.4411 -0.1351 -0.0027
   85MOL   C17747385   8.063   7.750   0.094 -0.3390 -0.4001 -0.6027
   85MOL   C17847386   7.931   7.806   0.074  0.5907  0.3198 -0.4846
   85MOL   C17947387   7.877   7.883   0.181  0.0999  1.2468 -0.2007
   85MOL   C18047388   7.950   7.896   0.304  0.2131  0.6120  0.0545
   85MOL   N18147389   7.881   7.952   0.415 -0.0268 -0.3215  0.1654
   85MOL   C18247390   8.082   7.849   0.315  0.1888  0.0037  0.0150
   85MOL   C18347391   8.136   7.779   0.209  0.0304 -0.1418 -0.1692
   85MOL   O18447392   7.975   7.649   7.983 -0.5070 -0.1240  0.1363
   85MOL   C18547393   0.155   7.512   7.985 -0.2828 -0.1269 -0.5441
   85MOL   C18647394   0.240   7.425   7.910 -0.0951  0.2803 -0.3202
   85MOL   O18747395   0.377   7.197   7.823  0.1700 -0.2539  0.1267
   85MOL   H18847396   8.143   7.275   7.724 -0.6940  2.6023 -4.2132
   85MOL   H18947397   8.001   7.436   7.865  0.4208 -0.4622  0.2519
   85MOL   H19047398   0.075   7.635   0.034  0.4986  2.9794  0.8268
   85MOL   H19147399   7.862   7.792   8.138  0.7990  1.6174 -0.8892
   85MOL   H19247400   7.773   7.911   0.184 -0.9324 -2.4963  0.9047
   85MOL   H19347401   7.797   8.005   0.397  0.7894  0.9178 -0.0746
   85MOL   H19447402   8.138   7.864   0.406  0.0084  2.2039 -0.2019
   85MOL   H19547403   0.092   7.744   0.208  0.3201  0.7175 -1.5386
   85MOL   H19647404   0.206   7.580   8.052  0.1598 -0.4434 -0.5591
   85MOL   H19747405   0.346   7.429   7.932 -0.1537 -0.2762  0.0960
   85MOL   C19847406   7.907   7.931   0.542  0.1363  0.2608 -0.4382
   85MOL   C19947407   7.825   8.012   0.634  0.9376  0.3440  0.1755
   85MOL   C20047408   7.843   7.991   0.777 -0.4982  0.2088 -0.1033
   85MOL   C20147409   7.756   8.064   0.863 -0.5703  0.3923  0.0271
   85MOL   C20247410   7.661   0.011   0.818  0.2639 -0.0942 -0.1832
   85MOL   C20347411   7.559   0.071   0.918 -0.5459  0.3381 -0.7604
   85MOL   N20447412   7.604   0.102   1.041 -0.0862 -0.3443 -0.8689
   85MOL   C20547413   7.543   0.189   1.136 -0.8689  1.3097  0.2655
   85MOL   C20647414   7.595   0.180   1.268  0.0106 -1.0518 -0.2744
   85MOL   C20747415   7.542   0.258   1.370  0.4621 -0.7526  0.2378
   85MOL   C20847416   7.424   0.336   1.345 -0.3910 -0.0228 -0.1860
   85MOL   N20947417   7.356   0.396   1.458  0.4881  0.6661  0.3209
   85MOL   C21047418   7.378   0.350   1.211  0.4339  0.2691 -0.0098
   85MOL   C21147419   7.439   0.279   1.106 -0.3389 -0.9318  0.6190
   85MOL   O21247420   7.440   0.088   0.885  0.0204 -0.2673  0.1661
   85MOL   C21347421   7.651   0.027   0.677  0.2273 -0.0855 -0.2412
   85MOL   C21447422   7.736   8.111   0.589 -0.4832 -0.0132  0.0039
   85MOL   O21547423   8.000   7.860   0.591 -0.0463 -0.4105  0.1545
   85MOL   H21647424   7.906   7.914   0.819  3.9863  1.7794 -3.4798
   85MOL   H21747425   7.767   8.033   0.966  0.2602 -1.7218 -0.6797
   85MOL   H21847426   7.691   0.069   1.080 -1.3287 -0.4229  1.9993
   85MOL   H21947427   7.673   0.108   1.282 -0.9848 -1.8359  1.3494
   85MOL   H22047428   7.575   0.238   1.471  0.6857  0.7573  0.4716
   85MOL   H22147429   7.418   0.414   1.536  0.6802  1.0115  0.0912
   85MOL   H22247430   7.302   0.422   1.184  1.4677  1.8877  1.3254
   85MOL   H22347431   7.394   0.283   1.007  0.9640  1.3315  0.0906
   85MOL   H22447432   7.575   0.093   0.638 -0.1254 -0.7212 -0.6418
   85MOL   H22547433   7.719   8.136   0.485  0.2146 -0.6245 -0.2690
   85MOL   C22647434   7.228   0.441   1.468 -0.2474 -0.6323  0.2426
   85MOL   C22747435   7.186   0.498   1.599 -0.1459 -0.7819  0.1332
   85MOL   C22847436   7.069   0.574   1.608 -0.1127  0.7022 -0.0040
   85MOL   C22947437   7.042   0.654   1.724  0.0219  0.3341  0.4143
   85MOL   C23047438   7.141   0.652   1.828  0.7130  0.3384  0.1498
   85MOL   C23147439   7.119   0.732   1.952 -0.3338  0.1164 -0.2008
   85MOL   N23247440   6.992   0.761   1.987  0.0409 -0.2214 -0.5770
   85MOL   C23347441   6.953   0.855   2.084 -0.8336 -0.1089  0.5235
   85MOL   C23447442   6.815   0.880   2.087 -0.4185  0.3844 -0.2902
   85MOL   C23547443   6.754   0.967   2.171 -0.1084 -0.1161  0.8323
   85MOL   C23647444   6.826   1.037   2.267  0.2366 -0.0255 -0.1552
   85MOL   N23747445   6.760   1.144   2.341  0.1564 -0.0482 -0.2625
   85MOL   C23847446   6.964   1.003   2.280  0.1096  0.0192 -0.2876
   85MOL   C23947447   7.030   0.912   2.190  0.5843 -0.2013  0.2965
   85MOL   O24047448   7.220   0.767   2.020  0.1345 -0.0637 -0.4766
   85MOL   C24147449   7.252   0.571   1.818  0.8659  0.3510 -0.3672
   85MOL   C24247450   7.273   0.493   1.707 -0.5470 -0.1497 -0.3468
   85MOL   O24347451   7.141   0.429   1.382 -0.2045  0.3048  0.4609
   85MOL   H24447452   7.000   0.572   1.524 -0.7632 -1.6915  0.5425
   85MOL   H24547453   6.952   0.713   1.732 -0.1714 -0.1144  1.7740
   85MOL   H24647454   6.913   0.733   1.931 -1.4492  1.9911  0.3821
   85MOL   H24747455   6.751   0.826   2.020  1.3771 -1.3409 -0.6351
   85MOL   H24847456   6.647   0.982   2.160  0.3045  2.6298  0.1215
   85MOL   H24947457   6.660   1.152   2.352  0.5332  0.8444  2.9989
   85MOL   H25047458   7.027   1.067   2.340  0.4975  0.6713 -1.3653
   85MOL   H25147459   7.137   0.904   2.197  0.4036 -3.1039  0.2703
   85MOL   H25247460   7.325   0.570   1.898 -2.0218  1.2370  2.3621
   85MOL   H25347461   7.357   0.427   1.709  0.5916  1.2565 -0.9598
   85MOL   C25447462   6.822   1.247   2.394  0.0651  0.1255  0.8976
   85MOL   C25547463   6.734   1.358   2.438  0.1789  0.1907  0.0013
   85MOL   C25647464   6.772   1.439   2.547 -0.1906 -0.2733  0.5697
   85MOL   C25747465   6.684   1.543   2.588  0.3046  0.2790 -0.1265
   85MOL   C25847466   6.559   1.568   2.527 -0.1580  0.8044  0.7934
   85MOL   C25947467   6.464   1.669   2.578 -0.1037  0.0540 -0.1254
   85MOL   N26047468   6.521   1.768   2.644  0.7039  0.0890 -0.0233
   85MOL   C26147469   6.470   1.857   2.741 -0.3015  0.6167  0.0357
   85MOL   C26247470   6.543   1.857   2.861 -0.4556 -0.6103  0.1490
   85MOL   C26347471   6.490   1.933   2.966  0.2261 -0.2366 -0.2265
   85MOL   C26447472   6.374   2.014   2.952  0.2938 -0.0724 -0.2363
   85MOL   N26547473   6.324   2.075   3.072  0.0952 -0.1905  0.1542
   85MOL   C26647474   6.312   2.022   2.824 -0.6484 -0.7521 -0.3771
   85MOL   C26747475   6.354   1.936   2.723  0.0636 -0.2588 -0.1837
   85MOL   O26847476   6.348   1.659   2.553 -0.2879 -0.2846  0.9424
   85MOL   C26947477   6.525   1.484   2.417 -0.2653 -0.1928 -1.1213
   85MOL   C27047478   6.610   1.381   2.372 -0.5400  0.4885 -0.8144
   85MOL   O27147479   6.944   1.263   2.416 -0.0065  0.0974  0.5824
   85MOL   H27247480   6.862   1.415   2.601  0.9427 -0.9104 -1.5685
   85MOL   H27347481   6.718   1.594   2.676  1.6695 -0.0799 -0.4295
   85MOL   H27447482   6.622   1.761   2.652  0.7217  1.1859  0.9207
   85MOL   H27547483   6.630   1.796   2.880 -1.5914 -2.8771 -1.7013
   85MOL   H27647484   6.541   1.926   3.061 -0.5212  0.0142  0.1933
   85MOL   H27747485   6.358   2.029   3.155 -0.9661  0.4480  0.9667
   85MOL   H27847486   6.226   2.086   2.812 -1.1599 -0.7332  2.9369
   85MOL   H27947487   6.297   1.928   2.632  0.5117 -1.0233 -0.4047
   85MOL   H28047488   6.430   1.501   2.370  0.7681  0.4015 -3.0426
   85MOL   H28147489   6.592   1.323   2.283  1.3381  0.2339 -1.0488
   85MOL   C28247490   6.230   2.168   3.105 -0.0427 -0.1971  0.4028
   85MOL   C28347491   6.195   2.165   3.245  0.1759  0.1530  0.7256
   85MOL   C28447492   6.137   2.277   3.307 -0.3237  0.2571  0.6430
   85MOL   C28547493   6.089   2.281   3.438 -0.8387  0.2433  0.1922
   85MOL   C28647494   6.092   2.162   3.515 -0.7348 -0.3175 -0.9108
   85MOL   C28747495   6.054   2.162   3.659 -0.5201 -0.5311 -0.0698
   85MOL   N28847496   6.022   2.054   3.734  0.1307 -0.2003 -0.4490
   85MOL   C28947497   5.948   1.940   3.698 -0.9017  0.0537 -0.6721
   85MOL   C29047498   5.878   1.932   3.579 -0.1152 -0.1659  0.1559
   85MOL   C29147499   5.795   1.827   3.545 -1.1211 -0.5371  0.2291
   85MOL   C29247500   5.762   1.735   3.650 -0.2779  0.0501  0.1118
   85MOL   N29347501   5.664   1.646   3.616 -0.0691  0.3571 -0.1671
   85MOL   C29447502   5.826   1.741   3.778  0.1666 -0.1035  0.0466
   85MOL   C29547503   5.925   1.841   3.796  1.0585 -0.0282  0.3348
   85MOL   O29647504   6.053   2.262   3.724  0.5357  0.8786 -0.4513
   85MOL   C29747505   6.160   2.050   3.461  0.0729  0.2687  0.6225
   85MOL   C29847506   6.207   2.054   3.328  0.1709  0.0457 -0.0453
   85MOL   O29947507   6.181   2.248   3.023  0.1074  0.6897 -0.4028
   85MOL   H30047508   6.120   2.365   3.248  0.2012 -1.8044 -2.7031
   85MOL   H30147509   6.034   2.367   3.473 -1.0358  1.5300 -3.0963
   85MOL   H30247510   6.024   2.058   3.835  0.1339 -1.1871 -0.4090
   85MOL   H30347511   5.888   2.002   3.498  0.6634 -0.0923  0.3048
   85MOL   H30447512   5.749   1.820   3.448 -2.4056  1.8348  0.6138
   85MOL   H30547513   5.649   1.635   3.517  0.7961  1.9817 -0.5076
   85MOL   H30647514   5.812   1.672   3.860 -0.7200  0.0290  0.0033
   85MOL   H30747515   5.982   1.848   3.888  0.4482 -0.9327  0.7888
   85MOL   H30847516   6.169   1.961   3.521  0.3248 -0.5498 -0.6169
   85MOL   H30947517   6.246   1.959   3.293  0.8021 -0.2348  1.3809
   85MOL   C31047518   5.571   1.593   3.697  0.5188 -0.1360 -0.5778
   85MOL   C31147519   5.471   1.504   3.630 -0.6545  0.0328 -0.3196
   85MOL   C31247520   5.503   1.451   3.506 -0.3880  0.3472  0.6836
   85MOL   C31347521   5.402   1.386   3.438  1.0021 -0.4221  0.4971
   85MOL   C31447522   5.277   1.370   3.496  0.0566 -0.2711 -0.1915
   85MOL   C31547523   5.172   1.285   3.429  0.0467  0.4130  0.1662
   85MOL   N31647524   5.158   1.302   3.298 -0.5642  0.4411 -0.0569
   85MOL   C31747525   5.094   1.228   3.203 -0.1505 -0.0460  1.0313
   85MOL   C31847526   5.160   1.203   3.076  0.6586  0.1760 -0.3642
   85MOL   C31947527   5.088   1.148   2.969  0.5064  0.4059 -0.1132
   85MOL   C32047528   4.960   1.100   2.995 -0.7241  0.0007  0.4180
   85MOL   N32147529   4.888   1.046   2.877 -0.2308 -0.0419 -0.0058
   85MOL   C32247530   4.901   1.114   3.120  0.3269 -0.7703 -0.6112
   85MOL   C32347531   4.965   1.184   3.227  0.4626  0.0880 -0.1396
   85MOL   O32447532   5.102   1.203   3.495 -0.2716 -0.1783  0.2253
   85MOL   C32547533   5.247   1.420   3.625 -0.2137 -0.4992  0.0114
   85MOL   C32647534   5.347   1.485   3.699 -0.1164  0.4868  0.2092
   85MOL   O32747535   5.570   1.613   3.818 -0.0791 -0.1438 -0.1724
   85MOL   H32847536   5.595   1.468   3.451 -1.3077  1.2158 -0.6369
   85MOL   H32947537   5.433   1.342   3.345 -2.5098 -0.4592 -0.7231
   85MOL   H33047538   5.227   1.370   3.267 -1.0820  0.2992 -1.5363
   85MOL   H33147539   5.257   1.247   3.054  1.9499 -0.3241  3.9099
   85MOL   H33247540   5.121   1.142   2.866 -0.0700 -0.7993 -0.2364
   85MOL   H33347541   4.932   1.064   2.788 -0.5399  1.3513  0.1231
   85MOL   H33447542   4.802   1.079   3.146  0.2839 -1.3533 -1.5253
   85MOL   H33547543   4.914   1.196   3.321  0.7104  0.4715 -0.0525
   85MOL   H33647544   5.151   1.401   3.672  1.0616 -3.5971  1.5203
   85MOL   H33747545   5.330   1.517   3.800  0.0641 -2.5443  1.2435
   85MOL   C33847546   4.775   0.967   2.879 -0.7241  0.7580 -0.0324
   85MOL   C33947547   4.724   0.919   2.745  1.2955 -0.0609 -0.4321
   85MOL   C34047548   4.628   0.819   2.730 -0.6835 -0.0455  0.4935
   85MOL   C34147549   4.605   0.766   2.601  0.0045  0.3388  0.1959
   85MOL   C34247550   4.656   0.817   2.486 -0.5617 -0.0033  0.1552
   85MOL   C34347551   4.615   0.766   2.348 -0.5491 -0.6313  0.2574
   85MOL   N34447552   4.527   0.658   2.343  0.1293 -0.0164 -0.2712
   85MOL   C34547553   4.483   0.587   2.228  0.7724 -0.1969  0.4659
   85MOL   C34647554   4.352   0.538   2.222 -0.0167 -0.0680 -0.2082
   85MOL   C34747555   4.309   0.460   2.114 -0.1346 -0.2810  0.5701
   85MOL   C34847556   4.397   0.423   2.012 -0.3533  1.0766 -0.6404
   85MOL   N34947557   4.343   0.342   1.907  0.0070  0.3941 -0.1123
   85MOL   C35047558   4.521   0.486   2.003 -0.8897  0.4047  0.0190
   85MOL   C35147559   4.569   0.562   2.118  0.0376  0.4843  0.0079
   85MOL   O35247560   4.650   0.827   2.249 -0.3376  0.6388 -0.0878
   85MOL   C35347561   4.750   0.922   2.496  0.7476 -0.1125 -0.3372
   85MOL   C35447562   4.783   0.972   2.626  0.2519  0.7966  0.3637
   85MOL   O35547563   4.715   0.930   2.984 -0.0859 -0.2164 -0.5887
   85MOL   H35647564   4.574   0.777   2.813 -3.2755  0.0030 -1.1118
   85MOL   H35747565   4.545   0.676   2.609 -1.4519  1.3593  0.9747
   85MOL   H35847566   4.477   0.638   2.428 -2.3034 -0.6631 -1.8120
   85MOL   H35947567   4.279   0.571   2.294  0.3549  0.7175 -0.1809
   85MOL   H36047568   4.207   0.425   2.110 -0.2539  0.0836  0.3816
   85MOL   H36147569   4.246   0.331   1.882 -0.4427 -0.2135  1.7814
   85MOL   H36247570   4.583   0.477   1.915 -0.4364  2.7540  0.0769
   85MOL   H36347571   4.668   0.604   2.130 -0.4969  1.5068  0.8272
   85MOL   H36447572   4.793   0.972   2.411  0.1095  0.1436 -0.5153
   85MOL   H36547573   4.862   1.045   2.633 -0.0711  1.2534 -0.6209
   85MOL   C36647574   4.414   0.240   1.855 -0.1484 -0.4706  0.5269
   85MOL   C36747575   4.348   0.167   1.741 -0.6905 -0.5302 -0.2805
   85MOL   C36847576   4.381   0.037   1.707  0.6351  0.0234  0.4655
   85MOL   C36947577   4.321   8.110   1.598  0.0428 -0.3556  0.3214
   85MOL   C37047578   4.241   0.037   1.504  0.5296  0.1595  0.9423
   85MOL   C37147579   4.183   8.118   1.383 -0.1543 -0.3688  0.1101
   85MOL   N37247580   4.268   8.027   1.332  0.1339 -0.3564  0.3820
   85MOL   C37347581   4.240   7.930   1.239  0.4349  0.5871 -0.3423
   85MOL   C37447582   4.197   7.964   1.110  0.6481  0.1011 -0.0777
   85MOL   C37547583   4.188   7.860   1.016  0.2347 -0.3185  0.4584
   85MOL   C37647584   4.210   7.719   1.046  0.3061  0.1246  0.8781
   85MOL   N37747585   4.157   7.621   0.953 -0.9388  0.3592  0.0386
   85MOL   C37847586   4.251   7.692   1.177  0.2881  0.3154  0.0183
   85MOL   C37947587   4.257   7.790   1.278 -0.5647 -0.6981 -0.0275
   85MOL   O38047588   4.077   0.010   1.329  0.6350 -0.0902  0.2898
   85MOL   C38147589   4.212   0.171   1.534 -0.5711 -0.1795 -0.5527
   85MOL   C38247590   4.274   0.234   1.644 -0.0636 -0.2321 -0.3231
   85MOL   O38347591   4.521   0.196   1.899  0.2140  0.0671 -0.2810
   85MOL   H38447592   4.459   8.127   1.756 -0.3378 -0.3807  1.5684
   85MOL   H38547593   4.344   8.007   1.577 -1.0017 -1.0739  2.5469
   85MOL   H38647594   4.362   8.026   1.369 -0.6275 -2.8292  2.3200
   85MOL   H38747595   4.170   8.064   1.079 -0.6849 -0.9153 -2.3550
   85MOL   H38847596   4.147   7.889   0.921 -0.7104  2.4093  1.6263
   85MOL   H38947597   4.100   7.666   0.883  0.5229  1.2662 -0.5712
   85MOL   H39047598   4.267   7.593   1.219  0.7844 -0.2546 -1.4832
   85MOL   H39147599   4.294   7.773   1.378  2.7085  1.6453 -0.7303
   85MOL   H39247600   4.154   0.226   1.461  0.5422  2.6728  0.6456
   85MOL   H39347601   4.251   0.339   1.654 -2.3010 -0.6905 -0.3723
   85MOL   C39447602   4.193   7.492   0.951  0.3108 -0.2425  0.3040
   85MOL   C39547603   4.145   7.414   0.833 -1.1117  0.5429  0.1826
   85MOL   C39647604   4.118   7.464   0.704  0.0938 -0.7557 -0.3618
   85MOL   C39747605   4.071   7.391   0.598 -0.4218 -0.7694 -0.3999
   85MOL   C39847606   4.064   7.249   0.614  0.8975  0.4308 -0.0305
   85MOL   C39947607   4.010   7.170   0.499  0.2529  0.0401 -0.0099
   85MOL   N40047608   4.047   7.208   0.377  0.1293  0.0374 -0.2199
   85MOL   C40147609   3.978   7.172   0.261 -0.4376 -0.3099  0.3397
   85MOL   C40247610   3.846   7.136   0.259  0.0194 -0.0221 -1.2411
   85MOL   C40347611   3.787   7.103   0.133  0.2080 -0.0129 -0.2622
   85MOL   C40447612   3.849   7.132   0.010  0.2088 -0.0161 -0.0066
   85MOL   N40547613   3.782   7.112   8.040  0.4913  0.4119  0.1272
   85MOL   C40647614   3.994   7.169   0.015 -0.3549 -0.2260  0.4289
   85MOL   C40747615   4.054   7.185   0.140 -0.2210 -0.0178 -0.7364
   85MOL   O40847616   3.948   7.060   0.519  0.0669 -0.5912  0.0401
   85MOL   C40947617   4.096   7.190   0.735 -0.1357 -0.0904  0.2616
   85MOL   C41047618   4.132   7.276   0.842 -0.0080 -0.0672 -0.1404
   85MOL   O41147619   4.267   7.438   1.030  0.1626 -0.3594  0.0804
   85MOL   H41247620   4.134   7.568   0.681 -0.3837 -1.1525 -2.6408
   85MOL   H41347621   4.036   7.426   0.502 -1.3007 -1.4006 -0.3183
   85MOL   H41447622   4.120   7.277   0.369 -2.4807  2.7538 -1.5023
   85MOL   H41547623   3.786   7.124   0.348  2.4897  0.9769  0.6187
   85MOL   H41647624   3.685   7.066   0.137  0.1624  0.1548  0.1604
   85MOL   H41747625   3.718   7.034   8.042  0.2171  0.6354  0.1469
   85MOL   H41847626   4.052   7.195   8.074  1.7507 -0.0596  1.8649
   85MOL   H41947627   4.153   7.227   0.152 -0.0382 -0.2663 -1.3961
   85MOL   H42047628   4.080   7.083   0.741 -3.3587  0.2385 -1.0277
   85MOL   H42147629   4.127   7.233   0.942  0.0236  1.6967  0.6410
   85MOL   C42247630   3.781   7.184   7.926  0.0771 -0.2117  0.2083
   85MOL   C42347631   3.824   7.327   7.924 -0.1334  0.6099  0.6837
   85MOL   C42447632   3.870   7.393   7.807  0.2399 -0.3504 -0.1781
   85MOL   C42547633   3.906   7.531   7.808 -0.5484  0.4434 -0.0849
   85MOL   C42647634   3.909   7.609   7.928 -0.2090 -0.3397  0.6074
   85MOL   C42747635   3.954   7.744   7.937 -0.0186  0.4656  1.3642
   85MOL   N42847636   3.878   7.841   7.993  0.4940  0.2285 -0.4229
   85MOL   C42947637   3.910   7.959   8.063 -0.1780  0.3633  0.2187
   85MOL   C43047638   4.032   7.989   8.130 -0.1696 -0.2439 -0.5738
   85MOL   C43147639   4.044   8.109   0.053  0.4545  0.0462 -0.3566
   85MOL   C43247640   3.933   0.044   0.082 -0.3341  0.6682 -0.2118
   85MOL   N43347641   3.937   0.137   0.191 -0.1915 -0.2001 -0.8116
   85MOL   C43447642   3.811   0.010   0.016 -0.2963 -0.4546 -0.0980
   85MOL   C43547643   3.802   8.049   8.077 -0.8689  0.3196 -0.2077
   85MOL   O43647644   4.070   7.755   7.902 -0.3359 -0.2888 -0.4330
   85MOL   C43747645   3.866   7.540   8.044  0.6639  0.3154  0.1661
   85MOL   C43847646   3.810   7.411   8.039 -0.4699 -0.2155 -0.4460
   85MOL   O43947647   3.732   7.126   7.829 -0.3457  0.0914  0.2432
   85MOL   H44047648   3.872   7.336   7.716 -0.5869  0.3782 -0.6692
   85MOL   H44147649   3.929   7.579   7.714  1.2053  0.1723  0.1934
   85MOL   H44247650   3.782   7.812   7.987  0.6907 -0.1235 -2.0309
   85MOL   H44347651   4.119   7.927   8.115  0.7346  0.7298  0.5478
   85MOL   H44447652   4.140   8.118   0.103 -0.2665  0.0779  1.0719
   85MOL   H44547653   3.994   0.102   0.267 -1.1361 -1.9987 -0.8977
   85MOL   H44647654   3.723   0.064   0.045  1.2340  2.0212  0.0837
   85MOL   H44747655   3.709   8.023   8.028 -0.7337  0.7471 -0.6948
   85MOL   H44847656   3.873   7.599   8.134  0.4867  0.3252  0.1723
   85MOL   H44947657   3.770   7.374   8.132 -0.8887  0.6111 -0.2927
   85MOL   C45047658   3.870   0.254   0.208 -0.1925  0.5228  0.6267
   85MOL   C45147659   3.891   0.321   0.340 -0.4258  0.1412 -0.5026
   85MOL   C45247660   3.877   0.456   0.364  0.4312 -0.2066 -0.1846
   85MOL   C45347661   3.875   0.514   0.497  0.2399  0.4776  0.1257
   85MOL   C45447662   3.908   0.438   0.611 -0.0789  0.1773  0.6115
   85MOL   C45547663   3.918   0.495   0.750  0.8326  0.4321 -0.1520
   85MOL   N45647664   3.828   0.593   0.773 -0.2356 -0.6817  0.6004
   85MOL   C45747665   3.801   0.677   0.885 -0.0195  0.1122  0.0345
   85MOL   C45847666   3.684   0.749   0.890  0.2595  0.2722 -0.0084
   85MOL   C45947667   3.658   0.849   0.987  0.2049  0.3450 -0.2962
   85MOL   C46047668   3.752   0.874   1.086  0.9819 -0.3868  0.7107
   85MOL   N46147669   3.738   0.990   1.172  0.3668 -0.0410  0.4408
   85MOL   C46247670   3.868   0.797   1.082 -0.5848 -0.2248 -0.4277
   85MOL   C46347671   3.902   0.702   0.979 -0.4296  0.2464  0.6245
   85MOL   O46447672   3.998   0.449   0.835 -0.1089 -0.3034 -0.2992
   85MOL   C46547673   3.933   0.302   0.587 -0.2509  0.2135 -0.4428
   85MOL   C46647674   3.913   0.246   0.459 -0.3449 -0.1563 -0.4387
   85MOL   O46747675   3.788   0.294   0.125  0.2382 -0.1269  0.7080
   85MOL   H46847676   3.870   0.512   0.272 -0.6051  1.5985  0.9751
   85MOL   H46947677   3.862   0.619   0.516 -1.2142  0.3147  0.1067
   85MOL   H47047678   3.761   0.596   0.698 -0.4905 -0.3898  0.8371
   85MOL   H47147679   3.618   0.728   0.807 -0.1354 -0.0583  0.3899
   85MOL   H47247680   3.566   0.904   0.970 -0.2028 -0.6096 -1.2356
   85MOL   H47347681   3.682   1.060   1.127  2.1043  1.3019  0.3224
   85MOL   H47447682   3.951   0.833   1.140 -0.3365 -1.7331  0.1721
   85MOL   H47547683   3.996   0.650   0.981 -0.7889 -0.4953 -0.8132
   85MOL   H47647684   3.959   0.233   0.666 -2.0132  0.9291  0.7946
   85MOL   H47747685   3.919   0.139   0.448 -3.0344 -0.0842 -3.0227
   85MOL   C47847686   3.779   1.008   1.301  0.4307 -0.1963  0.5457
   85MOL   C47947687   3.754   1.147   1.354 -0.8079 -0.2280 -0.6355
   85MOL   C48047688   3.821   1.190   1.473 -0.2585 -0.0493  0.1077
   85MOL   C48147689   3.793   1.313   1.538 -0.0348  0.1585 -0.0106
   85MOL   C48247690   3.704   1.395   1.472  0.9263 -0.3229 -0.1349
   85MOL   C48347691   3.678   1.534   1.519  0.0776  0.2464  0.6741
   85MOL   N48447692   3.677   1.623   1.415 -0.4803  0.0709  0.2193
   85MOL   C48547693   3.664   1.768   1.426 -0.0193  0.5773 -0.4475
   85MOL   C48647694   3.677   1.837   1.300  0.7986  0.3329  0.2081
   85MOL   C48747695   3.638   1.976   1.300  0.5872  0.6445 -0.2118
   85MOL   C48847696   3.604   2.050   1.421  0.4985 -0.0817 -1.0941
   85MOL   N48947697   3.565   2.182   1.413  0.1318  0.3274  0.3707
   85MOL   C49047698   3.588   1.973   1.540  0.1998 -0.1360  0.2607
   85MOL   C49147699   3.627   1.838   1.539 -0.2251  0.2328 -0.4164
   85MOL   O49247700   3.665   1.557   1.637 -0.2686 -0.5156  0.5604
   85MOL   C49347701   3.637   1.355   1.357 -0.1259  0.1367 -0.1986
   85MOL   C49447702   3.659   1.229   1.297 -0.2133 -0.2271 -0.8816
   85MOL   O49547703   3.831   0.915   1.371  0.0528 -0.3291 -0.1875
   85MOL   H49647704   3.904   1.129   1.506  1.0643  1.6670  0.0202
   85MOL   H49747705   3.841   1.352   1.626  1.1622 -2.8413  0.6959
   85MOL   H49847706   3.682   1.584   1.322  0.2136  0.2705  0.1698
   85MOL   H49947707   3.704   1.791   1.207  0.0200 -1.1037  0.6739
   85MOL   H50047708   3.654   2.031   1.208 -2.4106  1.3805 -0.3531
   85MOL   H50147709   3.526   2.194   1.321 -0.4115  1.2763  0.7121
   85MOL   H50247710   3.550   2.012   1.633 -2.5592 -1.7054 -0.1734
   85MOL   H50347711   3.624   1.780   1.630  3.4088 -0.6267 -0.7653
   85MOL   H50447712   3.565   1.414   1.302 -0.8917 -0.9594 -0.3781
   85MOL   H50547713   3.605   1.206   1.206  0.4031 -0.9924 -1.0578
   85MOL   C50647714   3.585   2.286   1.490  0.3121 -0.2828 -1.1313
   85MOL   C50747715   3.531   2.422   1.455  0.6558 -0.1232  0.0664
   85MOL   C50847716   3.394   2.440   1.413  0.0417  0.6307 -0.8697
   85MOL   C50947717   3.348   2.558   1.364 -0.3256 -0.4576  0.3417
   85MOL   C51047718   3.434   2.669   1.367  0.0286  0.5303 -0.9621
   85MOL   C51147719   3.388   2.799   1.319 -0.0416 -1.0592 -0.7173
   85MOL   N51247720   3.269   2.833   1.373  0.4546  0.0909 -0.3371
   85MOL   C51347721   3.165   2.917   1.326 -0.2403  0.2807  0.3723
   85MOL   C51447722   3.193   3.034   1.250 -0.3748 -0.2520 -0.7169
   85MOL   C51547723   3.086   3.118   1.206 -0.5513 -0.0185 -0.5046
   85MOL   C51647724   2.951   3.076   1.229 -0.2301 -0.2379  0.3208
   85MOL   N51747725   2.848   3.140   1.159 -0.1522 -0.4915 -0.3244
   85MOL   C51847726   2.925   2.957   1.303  0.2418 -0.7409 -0.1180
   85MOL   C51947727   3.031   2.881   1.351 -0.1757 -0.1860 -0.0626
   85MOL   O52047728   3.458   2.875   1.255 -0.2184  0.1074 -0.0847
   85MOL   C52147729   3.566   2.656   1.413 -0.5069  0.2347 -0.8538
   85MOL   C52247730   3.620   2.532   1.460 -0.0277  0.3450 -0.8031
   85MOL   O52347731   3.650   2.275   1.590 -0.6017  0.2275  0.6771
   85MOL   H52447732   3.325   2.357   1.414  2.2270 -1.2632 -0.1366
   85MOL   H52547733   3.247   2.563   1.326 -0.3750 -2.5588  0.1768
   85MOL   H52647734   3.249   2.787   1.461 -0.2310 -0.8273 -0.9608
   85MOL   H52747735   3.293   3.073   1.241 -1.3651  2.5646 -0.0925
   85MOL   H52847736   3.099   3.208   1.148 -1.1959 -0.2154 -0.9562
   85MOL   H52947737   2.868   3.183   1.070  0.6643  0.4272  0.2929
   85MOL   H53047738   2.825   2.924   1.326  0.1380  0.4871  1.2321
   85MOL   H53147739   3.019   2.790   1.408 -3.1240  1.3917  2.0102
   85MOL   H53247740   3.635   2.739   1.411 -1.2554  0.8592 -0.8852
   85MOL   H53347741   3.722   2.511   1.488  0.1771 -0.3206 -2.0100
   85MOL   C53447742   2.727   3.163   1.208 -0.0894 -0.2793  0.6220
   85MOL   C53547743   2.631   3.242   1.125  0.8486 -0.6794 -0.5773
   85MOL   C53647744   2.490   3.227   1.138  0.2047  0.3345  0.1841
   85MOL   C53747745   2.397   3.327   1.087  0.2564  0.8870  0.3587
   85MOL   C53847746   2.445   3.441   1.021  0.5583  0.4038  0.0185
   85MOL   C53947747   2.353   3.553   0.972 -0.2336  0.1593 -0.2396
   85MOL   N54047748   2.398   3.675   0.994 -0.0868  0.4025 -0.6588
   85MOL   C54147749   2.324   3.798   1.010 -0.2373 -0.2986 -0.0674
   85MOL   C54247750   2.383   3.917   0.966  0.3021 -0.3325  0.0944
   85MOL   C54347751   2.317   4.039   0.987  0.5213  0.0534  0.1472
   85MOL   C54447752   2.189   4.039   1.052 -0.0549  0.0350  0.0750
   85MOL   N54547753   2.118   4.161   1.072 -0.0938  0.6977 -0.3911
   85MOL   C54647754   2.127   3.920   1.083  0.6670  0.5264  0.1344
   85MOL   C54747755   2.195   3.801   1.066 -0.3994  0.8123  0.2059
   85MOL   O54847756   2.238   3.529   0.934 -0.7584  0.0561 -0.3272
   85MOL   C54947757   2.585   3.450   1.007 -0.2120  0.4928 -0.1500
   85MOL   C55047758   2.677   3.354   1.051 -1.1397  0.2011 -1.2098
   85MOL   O55147759   2.689   3.124   1.322 -0.4366 -0.6096 -0.2617
   85MOL   H55247760   2.447   3.139   1.184  1.7720  0.2276  1.5149
   85MOL   H55347761   2.290   3.319   1.096  0.2478  1.4010  0.7335
   85MOL   H55447762   2.496   3.685   1.013 -0.2632 -0.5212  0.8140
   85MOL   H55547763   2.480   3.919   0.918  1.9269  1.8117  3.2716
   85MOL   H55647764   2.360   4.137   0.976  2.4340 -0.4209  2.9192
   85MOL   H55747765   2.043   4.162   1.139 -0.2380 -2.0914 -0.4811
   85MOL   H55847766   2.038   3.907   1.142  1.0701 -1.7674  0.2576
   85MOL   H55947767   2.166   3.707   1.110  1.9481 -0.2470 -0.4386
   85MOL   H56047768   2.636   3.524   0.947 -0.5640  1.4317  0.7012
   85MOL   H56147769   2.780   3.383   1.035 -0.3126 -1.4271  0.8176
   85MOL   H56247770   2.171   4.247   1.081  0.7579  0.0761  0.7256
   86MOL     C147771   1.347   0.795   0.575  0.6001 -0.5022  0.1702
   86MOL     C247772   1.411   0.912   0.639 -0.5878  0.5864  0.6107
   86MOL     C347773   1.351   1.039   0.640 -0.4592  0.8160 -0.2663
   86MOL     C447774   1.418   1.143   0.705 -0.0906  0.2521 -0.0956
   86MOL     C547775   1.544   1.127   0.761 -0.3955 -1.5718 -0.1028
   86MOL     C647776   1.613   1.243   0.825  0.4648 -0.1886 -0.0394
   86MOL     N747777   1.543   1.326   0.902  0.0665 -0.1059  0.7500
   86MOL     C847778   1.594   1.412   0.998  0.1273 -0.0997  0.0014
   86MOL     C947779   1.508   1.517   1.038 -0.2118 -0.7404 -0.0276
   86MOL    C1047780   1.560   1.608   1.135  0.0582 -0.4295  0.1290
   86MOL    C1147781   1.681   1.587   1.203 -0.5162 -0.3246 -0.4406
   86MOL    N1247782   1.724   1.695   1.287 -0.8118  0.3267  0.7980
   86MOL    C1347783   1.760   1.478   1.165  0.6378 -0.2424  0.0827
   86MOL    C1447784   1.724   1.395   1.060  0.2153 -0.2529  0.2358
   86MOL    O1547785   1.733   1.264   0.799  0.8199 -0.1944  0.0168
   86MOL    C1647786   1.611   1.005   0.751 -0.0759 -0.2856 -0.1925
   86MOL    C1747787   1.541   0.898   0.695 -0.5948 -0.0066  0.0300
   86MOL    O1847788   1.225   0.786   0.572 -0.0876  0.0440  0.1726
   86MOL    H1947789   1.257   1.044   0.588 -0.9291  1.5885  0.6533
   86MOL    H2047790   1.374   1.241   0.714  0.6200  0.4273  1.6680
   86MOL    H2147791   1.443   1.315   0.906  0.1210 -0.7819  0.3614
   86MOL    H2247792   1.405   1.532   1.009 -0.5075 -0.8905  0.9460
   86MOL    H2347793   1.492   1.690   1.149  0.4821 -0.1288  0.4395
   86MOL    H2447794   1.736   1.779   1.233 -0.2767 -0.6724 -0.6731
   86MOL    H2547795   1.854   1.475   1.217  0.6212 -0.1120  0.1207
   86MOL    H2647796   1.787   1.311   1.036  0.3117 -0.6245  1.7486
   86MOL    H2747797   1.708   0.992   0.797 -1.6391 -1.3030  2.9889
   86MOL    H2847798   1.590   0.804   0.671  1.3701  0.7305  1.0009
   86MOL    H2947799   1.419   0.720   0.544  2.5003  0.4728  2.0912
   86MOL    C3047800   1.800   1.671   1.400  0.5488 -0.7183  0.4074
   86MOL    C3147801   1.891   1.779   1.446  0.2015  0.2749  0.4248
   86MOL    C3247802   1.907   1.809   1.582 -0.7613  0.2811  0.3689
   86MOL    C3347803   1.998   1.911   1.627 -0.6266  0.6469  1.0009
   86MOL    C3447804   2.068   1.989   1.532 -0.3693  0.7320 -0.2218
   86MOL    C3547805   2.164   2.091   1.582 -1.3259  0.2278  0.0379
   86MOL    N3647806   2.209   2.176   1.486  0.3896 -0.3022 -0.3972
   86MOL    C3747807   2.305   2.280   1.505  0.6669 -0.1245  0.5679
   86MOL    C3847808   2.367   2.314   1.627  0.1279 -0.0046  0.4408
   86MOL    C3947809   2.462   2.420   1.627  0.4164 -0.3060  0.6569
   86MOL    C4047810   2.489   2.492   1.513 -0.2256  0.1723  0.0350
   86MOL    N4147811   2.588   2.590   1.525  0.2387 -0.7402 -0.6073
   86MOL    C4247812   2.419   2.473   1.392  0.0917 -0.5060  0.0313
   86MOL    C4347813   2.337   2.357   1.390  1.4370 -0.0335  0.0544
   86MOL    O4447814   2.188   2.097   1.702  0.1542  0.2917  0.5195
   86MOL    C4547815   2.044   1.964   1.399  0.0152  0.9799  0.8456
   86MOL    C4647816   1.959   1.861   1.356  0.2545  0.3419  0.0894
   86MOL    O4747817   1.780   1.577   1.474 -0.2459  0.0586  0.1019
   86MOL    H4847818   1.853   1.748   1.654 -1.0036  0.3884  0.2801
   86MOL    H4947819   2.021   1.920   1.732  0.4883  0.4783  0.7734
   86MOL    H5047820   2.187   2.139   1.395 -3.0174 -0.3678  0.3812
   86MOL    H5147821   2.354   2.257   1.718 -1.6051  2.1345  1.5875
   86MOL    H5247822   2.515   2.441   1.718 -1.9223  2.3409  1.4678
   86MOL    H5347823   2.580   2.647   1.608 -1.2751 -1.5686 -0.1605
   86MOL    H5447824   2.438   2.537   1.307  0.6915  0.8899  1.1886
   86MOL    H5547825   2.305   2.334   1.289  1.9304  1.6016 -0.4838
   86MOL    H5647826   2.093   2.025   1.324 -2.0458  0.8016 -0.6985
   86MOL    H5747827   1.948   1.850   1.249 -0.7575 -0.9738  0.3162
   86MOL    C5847828   2.685   2.616   1.436 -0.5029  0.0034 -0.2493
   86MOL    C5947829   2.712   2.543   1.307 -0.1053 -0.1272  0.1149
   86MOL    C6047830   2.701   2.408   1.294  0.3512 -0.6955 -0.1995
   86MOL    C6147831   2.744   2.341   1.175  0.1160  0.0414  0.3272
   86MOL    C6247832   2.800   2.417   1.072 -0.7057 -0.6195  0.0347
   86MOL    C6347833   2.829   2.358   0.935  0.6043  0.2744 -0.5542
   86MOL    N6447834   2.753   2.252   0.913 -0.0038 -0.6849  0.0313
   86MOL    C6547835   2.751   2.164   0.808 -0.1674 -0.6776 -0.3074
   86MOL    C6647836   2.675   2.047   0.827  0.1911 -0.5454 -0.3174
   86MOL    C6747837   2.658   1.957   0.719 -0.0227  0.0656  0.1153
   86MOL    C6847838   2.719   1.981   0.595 -0.6198 -0.3052  0.3057
   86MOL    N6947839   2.702   1.886   0.490 -0.3540 -0.3114  0.2291
   86MOL    C7047840   2.814   2.086   0.585  0.3168 -0.4884  0.3180
   86MOL    C7147841   2.831   2.172   0.693  0.2943 -0.3935  0.4444
   86MOL    O7247842   2.910   2.409   0.860 -0.7158  0.3883  0.0493
   86MOL    C7347843   2.828   2.552   1.088 -0.4440 -0.0577 -0.7793
   86MOL    C7447844   2.787   2.617   1.206  0.1634  0.4482 -0.1859
   86MOL    O7547845   2.759   2.710   1.460 -0.0962  0.6811 -0.3838
   86MOL    H7647846   2.650   2.342   1.362 -1.0838 -1.3729 -1.8976
   86MOL    H7747847   2.729   2.236   1.154  0.4071 -0.1799  1.2136
   86MOL    H7847848   2.681   2.236   0.981 -0.2981  1.1127  0.1589
   86MOL    H7947849   2.627   2.023   0.920  0.1182 -1.7273 -0.6495
   86MOL    H8047850   2.585   1.879   0.733 -1.4448  1.7681  2.6745
   86MOL    H8147851   2.691   1.791   0.524  1.1807 -0.5534  0.0801
   86MOL    H8247852   2.874   2.094   0.495  0.0263 -1.0672  0.0682
   86MOL    H8347853   2.903   2.252   0.686 -1.2340  0.8504 -1.5811
   86MOL    H8447854   2.881   2.620   1.024  1.9198  0.3243  1.4564
   86MOL    H8547855   2.825   2.716   1.225  0.1697  0.5388 -0.6635
   86MOL    C8647856   2.704   1.912   0.359  0.4556  1.1241 -0.1101
   86MOL    C8747857   2.653   1.796   0.274  0.2147 -0.3953 -0.7279
   86MOL    C8847858   2.591   1.827   0.150  0.1134  0.5953 -0.1272
   86MOL    C8947859   2.526   1.726   0.074  0.0258 -0.2692  0.0795
   86MOL    C9047860   2.542   1.588   0.113 -0.3168  0.1854 -0.0676
   86MOL    C9147861   2.475   1.485   0.023  0.3200 -0.2553 -0.8127
   86MOL    N9247862   2.538   1.366   0.007 -0.1233 -0.3157  0.0059
   86MOL    C9347863   2.506   1.274   8.054 -0.1047 -0.5349 -0.4272
   86MOL    C9447864   2.379   1.253   7.998  0.3966 -0.4870 -0.7071
   86MOL    C9547865   2.359   1.165   7.890  0.2234 -0.2882 -0.4461
   86MOL    C9647866   2.470   1.105   7.826  0.3206 -0.4799  1.0550
   86MOL    N9747867   2.458   1.024   7.712 -0.3222  0.4886  0.1908
   86MOL    C9847868   2.597   1.124   7.885  0.7451 -0.4932 -0.1573
   86MOL    C9947869   2.612   1.211   7.993  0.0315  0.1035  0.2605
   86MOL   O10047870   2.375   1.519   8.107 -0.3980 -0.2843 -0.9354
   86MOL   C10147871   2.608   1.557   0.236  0.1251  0.1081 -0.7083
   86MOL   C10247872   2.649   1.660   0.325  0.0704 -0.3563  0.8381
   86MOL   O10347873   2.719   2.011   0.302 -0.1073 -0.1718  0.3053
   86MOL   H10447874   2.597   1.929   0.116  0.2161  0.5532 -0.2346
   86MOL   H10547875   2.474   1.747   8.127 -1.1775 -1.8241  0.3868
   86MOL   H10647876   2.623   1.364   0.061 -0.4356 -0.9246  0.4835
   86MOL   H10747877   2.293   1.302   8.041  1.2011 -1.5644  2.2765
   86MOL   H10847878   2.260   1.159   7.847 -1.2940 -0.5861  2.9730
   86MOL   H10947879   2.541   1.008   7.656 -0.8598  1.9661 -1.0848
   86MOL   H11047880   2.684   1.070   7.851  1.4158  0.5846 -0.1623
   86MOL   H11147881   2.713   1.229   8.027 -0.4102  1.3152  0.9831
   86MOL   H11247882   2.604   1.455   0.271 -1.0506  0.2698 -0.3384
   86MOL   H11347883   2.685   1.628   0.422  3.1130 -1.0044 -0.4475
   86MOL   C11447884   2.348   0.944   7.679  0.5589 -0.1540 -0.3207
   86MOL   C11547885   2.374   0.852   7.563  0.4621  0.5832  0.3586
   86MOL   C11647886   2.504   0.804   7.549 -0.0842 -0.4191  0.2244
   86MOL   C11747887   2.525   0.716   7.440  0.8604  0.3115 -0.1396
   86MOL   C11847888   2.429   0.679   7.345 -0.1688 -0.7042  0.2504
   86MOL   C11947889   2.461   0.593   7.229  0.2074  0.1824  0.0154
   86MOL   N12047890   2.583   0.607   7.178  0.1738 -0.6267 -0.5502
   86MOL   C12147891   2.659   0.512   7.110  0.2988  0.2540 -0.3517
   86MOL   C12247892   2.801   0.542   7.113  0.1039 -0.4598  0.0987
   86MOL   C12347893   2.891   0.460   7.042  0.4036  0.6703  0.1785
   86MOL   C12447894   2.842   0.357   6.957  0.1045  0.2891 -0.0403
   86MOL   N12547895   2.934   0.299   6.872  0.2282 -0.1967  0.0893
   86MOL   C12647896   2.703   0.330   6.953 -0.1519 -0.6686 -0.4495
   86MOL   C12747897   2.616   0.413   7.030 -0.0002 -0.2083 -0.4285
   86MOL   O12847898   2.378   0.508   7.200  0.2089 -0.0328  0.1651
   86MOL   C12947899   2.298   0.720   7.367 -0.4319  0.6281  0.6701
   86MOL   C13047900   2.270   0.807   7.475 -0.2768  0.3014 -0.1823
   86MOL   O13147901   2.243   0.949   7.739 -0.3972 -0.3592  0.0953
   86MOL   H13247902   2.577   0.823   7.626  0.8824 -2.8777 -0.0165
   86MOL   H13347903   2.626   0.678   7.434  0.5377 -0.4090 -0.9807
   86MOL   H13447904   2.626   0.697   7.196 -1.3849 -0.0071  0.2421
   86MOL   H13547905   2.844   0.625   7.166 -0.9014  1.3217 -1.8036
   86MOL   H13647906   2.998   0.476   7.040  0.3533  1.3639  2.4905
   86MOL   H13747907   2.920   0.321   6.775 -1.3107 -0.7550  0.1687
   86MOL   H13847908   2.655   0.260   6.887 -0.2743  0.8356 -1.9824
   86MOL   H13947909   2.511   0.389   7.036 -0.0241  0.1957  0.7789
   86MOL   H14047910   2.212   0.693   7.307  0.3446 -1.4299  0.4496
   86MOL   H14147911   2.173   0.847   7.499 -0.3650 -0.1314  0.1918
   86MOL   C14247912   3.044   0.227   6.896 -0.1411  0.3700 -0.1159
   86MOL   C14347913   3.075   0.192   7.037 -0.1581  0.3011 -0.7285
   86MOL   C14447914   2.972   0.135   7.112  0.2882  0.7549 -0.0792
   86MOL   C14547915   2.987   0.126   7.249  0.5790 -0.3049  1.1500
   86MOL   C14647916   3.093   0.177   7.320 -0.1729  0.3924  0.1943
   86MOL   C14747917   3.089   0.203   7.466  0.2545  0.7476  0.4816
   86MOL   N14847918   2.988   0.287   7.499  0.0266 -0.8619  0.0727
   86MOL   C14947919   2.968   0.376   7.617 -0.2532 -0.1710 -0.5178
   86MOL   C15047920   3.057   0.374   7.727 -0.0512  0.6245 -0.4389
   86MOL   C15147921   3.036   0.463   7.826  0.1474  0.3951  0.3919
   86MOL   C15247922   2.921   0.543   7.831 -0.1337  0.8570 -0.5888
   86MOL   N15347923   2.900   0.629   7.945  0.0298  0.3565  0.5626
   86MOL   C15447924   2.836   0.551   7.723 -0.2172 -0.0223 -0.0340
   86MOL   C15547925   2.862   0.467   7.612  0.2169  0.1411 -0.2026
   86MOL   O15647926   3.176   0.161   7.545 -0.2187  0.7246 -0.5763
   86MOL   C15747927   3.201   0.228   7.238 -0.3423 -0.8854  0.2215
   86MOL   C15847928   3.192   0.232   7.099 -0.1488  0.5088  0.7656
   86MOL   O15947929   3.112   0.187   6.806  0.7275  0.0623 -0.1879
   86MOL   H16047930   2.882   0.101   7.062  0.7217 -1.5485  0.6359
   86MOL   H16147931   2.894   0.096   7.296  1.1332 -1.4056  1.5714
   86MOL   H16247932   2.938   0.314   7.415  1.5251 -2.0726 -1.2593
   86MOL   H16347933   3.150   0.318   7.722 -0.4895 -0.1260 -0.3063
   86MOL   H16447934   3.116   0.479   7.897 -0.6258 -3.6022  2.2788
   86MOL   H16547935   2.836   0.705   7.926 -1.7863 -1.6473 -1.6017
   86MOL   H16647936   2.751   0.617   7.722  0.1749  0.4877  0.4312
   86MOL   H16747937   2.790   0.470   7.532 -0.2999 -0.2123  0.2488
   86MOL   H16847938   3.290   0.273   7.280 -1.6733  1.3329  0.7425
   86MOL   H16947939   3.269   0.286   7.047 -2.1013  1.1293 -1.5536
   86MOL   C17047940   2.945   0.612   8.072 -0.2302 -0.1285  0.5566
   86MOL   C17147941   2.902   0.726   0.016 -0.3108 -0.3895  0.4144
   86MOL   C17247942   2.882   0.856   8.105  0.1190  0.0698 -0.0991
   86MOL   C17347943   2.851   0.964   0.043 -0.1259  0.2012 -0.8289
   86MOL   C17447944   2.852   0.948   0.185 -0.2534  0.3351  0.6250
   86MOL   C17547945   2.825   1.075   0.269 -0.3797  0.4629 -0.4069
   86MOL   N17647946   2.890   1.074   0.390 -0.0608 -0.2191  0.1788
   86MOL   C17747947   2.891   1.185   0.483  0.5127  0.2916  0.6629
   86MOL   C17847948   2.819   1.303   0.464  0.5828 -0.4237 -0.4774
   86MOL   C17947949   2.813   1.399   0.567 -0.3478 -0.4505  0.6284
   86MOL   C18047950   2.890   1.384   0.685 -0.1246 -0.5453  0.5040
   86MOL   N18147951   2.892   1.483   0.791 -0.9397 -0.3991 -0.0567
   86MOL   C18247952   2.976   1.276   0.692  0.0016 -0.3080  0.3447
   86MOL   C18347953   2.974   1.175   0.595  1.2229 -0.8489  0.0349
   86MOL   O18447954   2.744   1.163   0.233  0.3480  0.4280 -0.1984
   86MOL   C18547955   2.870   0.821   0.238  0.1585  0.2688 -0.0022
   86MOL   C18647956   2.896   0.711   0.155  0.1545 -0.3469 -0.7617
   86MOL   O18747957   3.008   0.508   8.116 -0.3449 -0.1864  0.0257
   86MOL   H18847958   2.889   0.886   8.002  1.0040 -0.9251 -0.3380
   86MOL   H18947959   2.823   1.059   8.145 -0.2909  0.5087 -0.0681
   86MOL   H19047960   2.951   1.000   0.421 -0.7122 -1.6116 -1.8182
   86MOL   H19147961   2.760   1.326   0.377 -0.9035 -0.5475  0.4717
   86MOL   H19247962   2.739   1.478   0.560  0.3654  0.1443 -0.3235
   86MOL   H19347963   2.957   1.475   0.868  0.2083 -0.9737 -1.0732
   86MOL   H19447964   3.043   1.271   0.776  1.6705 -0.1007 -0.9578
   86MOL   H19547965   3.033   1.085   0.603  0.1049 -1.7361 -1.5141
   86MOL   H19647966   2.874   0.800   0.343 -2.7943 -1.3740 -0.1760
   86MOL   H19747967   2.936   0.625   0.208 -0.4717  0.2575  0.7070
   86MOL   C19847968   2.811   1.586   0.812 -0.1610 -0.2577  0.0042
   86MOL   C19947969   2.863   1.667   0.926  0.5999  0.0519 -0.2920
   86MOL   C20047970   2.863   1.612   1.056 -0.0650  0.3893  0.2318
   86MOL   C20147971   2.898   1.688   1.167 -0.6677 -0.2420  0.9416
   86MOL   C20247972   2.934   1.825   1.153 -0.1859 -0.3731 -0.0771
   86MOL   C20347973   2.973   1.896   1.278  0.2907 -0.4387 -1.2741
   86MOL   N20447974   3.011   2.023   1.263 -0.2464  0.2940  0.0263
   86MOL   C20547975   3.086   2.092   1.367 -0.5398  0.1439 -0.0430
   86MOL   C20647976   3.193   2.033   1.444 -0.3440  0.1201  0.4809
   86MOL   C20747977   3.243   2.091   1.563 -0.2662 -0.0266  0.4905
   86MOL   C20847978   3.183   2.219   1.602  0.5332 -0.4875  0.4725
   86MOL   N20947979   3.189   2.268   1.737  0.2659 -0.2225 -0.1625
   86MOL   C21047980   3.091   2.288   1.517 -0.0055 -0.0068  0.7926
   86MOL   C21147981   3.049   2.225   1.393 -0.3255  0.1423 -0.5304
   86MOL   O21247982   2.969   1.843   1.392  0.4039 -0.3941  0.2497
   86MOL   C21347983   2.923   1.886   1.022  0.7230 -0.5052 -0.1019
   86MOL   C21447984   2.898   1.805   0.906  0.4711 -0.1467 -0.8003
   86MOL   O21547985   2.717   1.624   0.746 -0.4470  0.2244  0.2768
   86MOL   H21647986   2.828   1.511   1.069 -3.0812  1.7608  3.7052
   86MOL   H21747987   2.890   1.643   1.265 -1.7202  0.6709  1.2907
   86MOL   H21847988   3.006   2.066   1.171  0.5740  3.0379  1.1863
   86MOL   H21947989   3.223   1.931   1.424 -2.0853 -0.2154 -0.4825
   86MOL   H22047990   3.298   2.033   1.635  0.8940  0.3550 -0.0794
   86MOL   H22147991   3.108   2.312   1.780  0.9747  0.3368  0.5994
   86MOL   H22247992   3.051   2.379   1.559  0.2961  0.4069  0.1870
   86MOL   H22347993   2.962   2.271   1.350 -1.8667 -1.3735  0.8920
   86MOL   H22447994   2.931   1.994   1.013  1.7076 -0.2983  2.6673
   86MOL   H22547995   2.872   1.844   0.809  0.9074 -2.6031 -1.9530
   86MOL   C22647996   3.291   2.255   1.822  0.0360 -0.0932  0.0426
   86MOL   C22747997   3.265   2.278   1.969  0.1443 -0.4946  1.0229
   86MOL   C22847998   3.345   2.217   2.068 -0.4204  0.2516  1.0002
   86MOL   C22947999   3.317   2.246   2.200  0.2698  0.7553 -0.4815
   86MOL   C23048000   3.203   2.328   2.239  0.6898  0.2305  0.6019
   86MOL   C23148001   3.174   2.347   2.381  0.1617 -0.1580 -0.3215
   86MOL   N23248002   3.149   2.235   2.453  0.4401  0.2597  0.1833
   86MOL   C23348003   3.130   2.224   2.595  0.6942 -0.0592  0.5120
   86MOL   C23448004   3.103   2.096   2.648 -0.4642  0.3662  0.2983
   86MOL   C23548005   3.101   2.078   2.790  0.7117  0.3418  0.4130
   86MOL   C23648006   3.095   2.184   2.877 -0.3742  0.0792 -0.0207
   86MOL   N23748007   3.100   2.152   3.015 -0.3786  0.1909  0.0380
   86MOL   C23848008   3.113   2.315   2.824 -0.3367 -0.1320 -0.7150
   86MOL   C23948009   3.126   2.336   2.685 -0.8615 -0.1679  0.1271
   86MOL   O24048010   3.166   2.462   2.421  0.0014  0.3838 -0.4797
   86MOL   C24148011   3.122   2.388   2.142 -0.0085 -0.2189  0.4709
   86MOL   C24248012   3.152   2.361   2.006 -0.1524  0.3682  0.1757
   86MOL   O24348013   3.401   2.210   1.797 -0.1754 -0.5925 -0.3961
   86MOL   H24448014   3.437   2.164   2.048 -0.8719 -0.2754  0.2970
   86MOL   H24548015   3.381   2.200   2.273 -1.5177 -0.8867  0.0704
   86MOL   H24648016   3.142   2.149   2.400 -2.0628  1.7182 -1.9907
   86MOL   H24748017   3.108   2.009   2.585  2.4434  0.9893 -0.3867
   86MOL   H24848018   3.106   1.978   2.832  3.1199  0.0532 -0.5052
   86MOL   H24948019   3.158   2.076   3.047  0.7604  1.6355  1.4932
   86MOL   H25048020   3.116   2.400   2.891 -1.0311  0.7337 -1.7571
   86MOL   H25148021   3.139   2.436   2.649  1.5899 -0.2265  0.6997
   86MOL   H25248022   3.046   2.454   2.182 -3.0920 -2.2908 -1.6791
   86MOL   H25348023   3.100   2.423   1.936  1.0140  2.3673  1.0345
   86MOL   C25448024   3.052   2.230   3.108 -0.2325  0.1266 -0.7172
   86MOL   C25548025   3.106   2.204   3.250  0.4304 -1.2248  0.0458
   86MOL   C25648026   3.038   2.258   3.361 -0.3271  0.2581 -0.3211
   86MOL   C25748027   3.092   2.244   3.485 -0.3638  0.1798 -0.7871
   86MOL   C25848028   3.220   2.188   3.505 -0.1812  1.0419  0.5214
   86MOL   C25948029   3.261   2.159   3.644  0.1941  0.1364 -0.0106
   86MOL   N26048030   3.396   2.170   3.672  0.0323  0.3812 -0.5928
   86MOL   C26148031   3.466   2.146   3.791 -0.8495 -0.3110  0.6728
   86MOL   C26248032   3.421   2.046   3.879  0.2275  0.1681 -0.7776
   86MOL   C26348033   3.492   2.016   3.990 -0.0980  0.6474  0.8059
   86MOL   C26448034   3.606   2.088   4.027 -0.2233 -0.1412 -0.6713
   86MOL   N26548035   3.662   2.057   4.151 -0.0900  0.0205  0.0638
   86MOL   C26648036   3.661   2.176   3.931  0.1120  0.0428  0.5329
   86MOL   C26748037   3.591   2.209   3.811 -0.0511 -0.4413 -0.4071
   86MOL   O26848038   3.181   2.132   3.733 -0.4314 -0.1491  0.2899
   86MOL   C26948039   3.295   2.138   3.392 -0.2188 -0.0343 -0.5890
   86MOL   C27048040   3.236   2.153   3.266  0.3043 -0.4986  0.4737
   86MOL   O27148041   2.964   2.309   3.086 -0.0511 -0.0743 -0.3227
   86MOL   H27248042   2.952   2.320   3.346 -0.6201 -0.3300 -1.1398
   86MOL   H27348043   3.027   2.277   3.564 -0.3280  0.0690 -0.7116
   86MOL   H27448044   3.458   2.207   3.602 -0.8581  0.9086 -1.1179
   86MOL   H27548045   3.339   1.980   3.854  0.8558  0.0991 -2.8172
   86MOL   H27648046   3.454   1.952   4.068 -1.5406  0.9069  0.3360
   86MOL   H27748047   3.625   1.979   4.203  2.6464 -1.2825  0.1244
   86MOL   H27848048   3.753   2.231   3.946  1.2498 -1.1058 -2.0900
   86MOL   H27948049   3.636   2.265   3.730 -0.1263  1.4513  0.8117
   86MOL   H28048050   3.388   2.084   3.400  1.1371  1.7294 -3.6905
   86MOL   H28148051   3.295   2.111   3.186  0.2741 -1.0513  0.7356
   86MOL   C28248052   3.755   2.123   4.219 -0.2941  0.1127  1.0312
   86MOL   C28348053   3.802   2.045   4.336 -0.5045 -0.8510  0.1758
   86MOL   C28448054   3.941   2.014   4.350  0.1535  0.7181  0.6340
   86MOL   C28548055   3.978   1.930   4.453  0.1176 -0.3789 -0.2671
   86MOL   C28648056   3.892   1.902   4.560  0.2209 -0.2990 -0.0283
   86MOL   C28748057   3.934   1.821   4.677 -0.3547 -0.2159 -0.4185
   86MOL   N28848058   4.017   1.721   4.645 -0.1353  0.4670 -0.5824
   86MOL   C28948059   4.059   1.600   4.715  0.0426 -0.4063  0.0070
   86MOL   C29048060   4.125   1.500   4.641  0.2870 -0.5127  0.1798
   86MOL   C29148061   4.184   1.388   4.710  0.0290  0.7246 -0.1341
   86MOL   C29248062   4.171   1.376   4.850  0.5207  0.5128 -0.1404
   86MOL   N29348063   4.229   1.265   4.921 -0.0632  0.1643  0.2344
   86MOL   C29448064   4.107   1.476   4.924 -0.0825 -0.0893 -0.2202
   86MOL   C29548065   4.057   1.588   4.855  0.0913  0.2614  0.2208
   86MOL   O29648066   3.904   1.847   4.791 -0.9285  0.3249  0.7629
   86MOL   C29748067   3.758   1.943   4.551 -0.2470  0.4069  0.1785
   86MOL   C29848068   3.713   2.004   4.435  0.2392 -0.2256  0.6564
   86MOL   O29948069   3.793   2.237   4.196 -0.5788 -0.3158 -0.0033
   86MOL   H30048070   4.012   2.058   4.281  0.2472  2.7887  2.0092
   86MOL   H30148071   4.079   1.894   4.466  0.5155  0.4945 -0.8637
   86MOL   H30248072   4.055   1.715   4.551  1.9046 -0.4915  0.2878
   86MOL   H30348073   4.129   1.520   4.535 -1.4002  1.7274  0.4758
   86MOL   H30448074   4.242   1.317   4.652 -1.3672  3.0458 -4.6643
   86MOL   H30548075   4.275   1.201   4.859  1.2638  1.8683 -0.5668
   86MOL   H30648076   4.114   1.471   5.032 -1.3217  3.0160  0.0796
   86MOL   H30748077   4.012   1.664   4.917 -1.6236  1.0840 -1.9463
   86MOL   H30848078   3.684   1.934   4.629 -3.1390  0.6700 -2.4289
   86MOL   H30948079   3.608   2.028   4.430  0.2653 -0.4357 -1.6017
   86MOL   C31048080   4.190   1.197   5.030 -0.2548  0.1102  0.1875
   86MOL   C31148081   4.272   1.077   5.045 -0.5126  0.0387  0.0337
   86MOL   C31248082   4.350   1.056   5.159 -0.6114  0.6884 -0.3498
   86MOL   C31348083   4.459   0.959   5.161 -0.8117  0.7568  0.2307
   86MOL   C31448084   4.460   0.862   5.053  0.4370  0.0508  0.1484
   86MOL   C31548085   4.571   0.753   5.057 -0.0751  0.5039 -0.2518
   86MOL   N31648086   4.534   0.639   4.991  0.8858  0.1466 -0.0045
   86MOL   C31748087   4.618   0.533   4.955  0.0536  0.5834 -0.0386
   86MOL   C31848088   4.573   0.396   4.976  0.1447 -0.0528 -0.0858
   86MOL   C31948089   4.662   0.294   4.946  0.0102  0.1135 -0.7420
   86MOL   C32048090   4.782   0.323   4.876 -0.5487  0.3909  0.2162
   86MOL   N32148091   4.875   0.215   4.857  0.1901 -0.3498  0.2289
   86MOL   C32248092   4.828   0.458   4.852  0.2845 -0.2766 -0.2485
   86MOL   C32348093   4.743   0.558   4.890  0.1413 -0.1564 -0.2117
   86MOL   O32448094   4.677   0.773   5.109 -0.3364  1.1145  0.1357
   86MOL   C32548095   4.369   0.870   4.942  0.0986  0.1172  0.2424
   86MOL   C32648096   4.278   0.982   4.944 -0.0190 -0.9097  0.1395
   86MOL   O32748097   4.110   1.232   5.113  0.0941 -0.2653 -0.0101
   86MOL   H32848098   4.348   1.112   5.251 -1.7129 -0.4562  0.3354
   86MOL   H32948099   4.524   0.946   5.246  0.1503  1.0014 -0.4537
   86MOL   H33048100   4.434   0.626   4.988  0.7526  1.1729 -0.4501
   86MOL   H33148101   4.480   0.369   5.024 -0.7822  1.1149 -1.1934
   86MOL   H33248102   4.626   0.193   4.953 -0.5393  0.4556  1.7912
   86MOL   H33348103   4.874   0.170   4.767  0.2627 -0.0708  0.0894
   86MOL   H33448104   4.922   0.480   4.804  0.3351  0.2756  0.1032
   86MOL   H33548105   4.775   0.660   4.871  1.0511 -0.3404  0.2977
   86MOL   H33648106   4.364   0.802   4.859  1.5019  1.4008 -0.9211
   86MOL   H33748107   4.207   0.996   4.864  0.0563 -0.4415  0.1542
   86MOL   C33848108   4.966   0.168   4.941 -0.1268 -0.1850  0.1835
   86MOL   C33948109   5.008   0.262   5.049  0.0842  0.1133  0.0460
   86MOL   C34048110   5.083   0.373   5.007  0.3410  0.0642  0.3351
   86MOL   C34148111   5.087   0.487   5.087 -0.3331  0.1163  0.7098
   86MOL   C34248112   5.015   0.485   5.206  0.4059 -0.3347 -0.4636
   86MOL   C34348113   5.012   0.610   5.287  0.3898  0.0603  0.8987
   86MOL   N34448114   4.946   0.610   5.404  0.5938 -0.4837 -0.6039
   86MOL   C34548115   4.935   0.717   5.493 -0.3020  0.1379 -0.3680
   86MOL   C34648116   4.959   0.694   5.631 -0.3370 -0.5045 -0.4784
   86MOL   C34748117   4.933   0.797   5.724  0.1976 -0.2610  0.0726
   86MOL   C34848118   4.895   0.924   5.679 -0.2495  0.2354 -0.7126
   86MOL   N34948119   4.887   1.029   5.776 -0.8149 -0.0667 -0.5756
   86MOL   C35048120   4.867   0.952   5.545 -0.6393  0.2769 -0.5114
   86MOL   C35148121   4.880   0.844   5.449  0.5683 -0.1130  0.4847
   86MOL   O35248122   5.070   0.710   5.252 -0.4201 -0.1079 -0.2741
   86MOL   C35348123   4.950   0.375   5.254  0.2047  0.8192  0.1354
   86MOL   C35448124   4.946   0.260   5.175 -0.5376  0.1587 -0.8751
   86MOL   O35548125   5.019   0.058   4.922 -0.0475 -0.0810  0.7030
   86MOL   H35648126   5.136   0.369   4.913  1.9500  1.3163  1.1552
   86MOL   H35748127   5.145   0.572   5.053  1.3307 -1.3731 -0.2786
   86MOL   H35848128   4.904   0.525   5.439  3.5547 -0.8109  2.4137
   86MOL   H35948129   4.992   0.601   5.673 -1.1742  0.2469  1.8944
   86MOL   H36048130   4.955   0.779   5.828  0.9855  0.4522  0.0377
   86MOL   H36148131   4.822   1.104   5.756 -1.8812 -1.2472 -1.6354
   86MOL   H36248132   4.839   1.053   5.518 -0.9219  0.9147  2.0716
   86MOL   H36348133   4.866   0.859   5.343 -1.2802  0.2294  0.7589
   86MOL   H36448134   4.897   0.367   5.348  0.0693  0.5037  0.0321
   86MOL   H36548135   4.888   0.176   5.209  0.3004  0.9914  2.8725
   86MOL   C36648136   4.970   1.051   5.881 -0.8248  0.5720  0.6774
   86MOL   C36748137   4.919   1.146   5.983  0.2620 -0.4234  0.7541
   86MOL   C36848138   4.856   1.267   5.946  0.0436  0.8110  0.3378
   86MOL   C36948139   4.805   1.350   6.049  0.0577  0.4213  0.3942
   86MOL   C37048140   4.830   1.327   6.181  0.1362 -0.0041  0.4912
   86MOL   C37148141   4.759   1.411   6.287 -0.2112 -0.1826  0.3697
   86MOL   N37248142   4.703   1.339   6.382  0.1630 -0.0411 -0.2968
   86MOL   C37348143   4.623   1.386   6.490  0.1175  0.4866  0.2093
   86MOL   C37448144   4.520   1.480   6.461 -0.5748 -0.3694 -0.2694
   86MOL   C37548145   4.441   1.527   6.568 -0.3927  0.8017 -0.2091
   86MOL   C37648146   4.466   1.484   6.703  0.1266  0.1133 -0.6099
   86MOL   N37748147   4.378   1.525   6.807  0.2724 -0.5756  0.1556
   86MOL   C37848148   4.566   1.385   6.725  0.1186 -0.6002 -0.4973
   86MOL   C37948149   4.649   1.332   6.622 -0.3662 -0.0949  0.2109
   86MOL   O38048150   4.762   1.538   6.282  0.0368  0.0164  0.7264
   86MOL   C38148151   4.905   1.212   6.223  0.1767 -0.2010  0.4641
   86MOL   C38248152   4.941   1.125   6.122  0.7241 -0.5520  0.6160
   86MOL   O38348153   5.069   0.975   5.907 -0.7334  0.0444  0.1347
   86MOL   H38448154   4.841   1.288   5.841 -0.1139  0.3925  0.2739
   86MOL   H38548155   4.733   1.426   6.023  0.2115  0.2978 -0.4107
   86MOL   H38648156   4.728   1.242   6.385  1.2129  0.2228 -0.5723
   86MOL   H38748157   4.483   1.506   6.363 -1.1994 -1.8568 -0.4351
   86MOL   H38848158   4.364   1.598   6.542  0.5737  1.3765 -1.5239
   86MOL   H38948159   4.279   1.528   6.785  0.1915  2.3100  0.6476
   86MOL   H39048160   4.583   1.334   6.819 -0.1620 -0.1118 -0.1796
   86MOL   H39148161   4.725   1.259   6.647 -1.3912 -1.5964 -0.9705
   86MOL   H39248162   4.913   1.190   6.329 -0.4184  2.9075  1.1823
   86MOL   H39348163   4.981   1.027   6.146 -1.3933 -1.0738  2.1075
   86MOL   C39448164   4.401   1.522   6.940  0.0216 -0.1598  0.5132
   86MOL   C39548165   4.281   1.516   7.036 -0.2435  0.6150 -0.3158
   86MOL   C39648166   4.302   1.572   7.165  0.4636 -0.2048  0.0656
   86MOL   C39748167   4.191   1.572   7.257  0.1787 -0.6142  0.5310
   86MOL   C39848168   4.066   1.512   7.212 -0.3289  1.1542 -0.3296
   86MOL   C39948169   3.942   1.507   7.304 -0.6673 -1.2351  0.0449
   86MOL   N40048170   3.824   1.520   7.238  0.4782  0.2030 -0.2767
   86MOL   C40148171   3.696   1.467   7.271  0.1932 -0.2432  0.1181
   86MOL   C40248172   3.667   1.418   7.399 -0.5529 -1.2736  0.2826
   86MOL   C40348173   3.543   1.369   7.432  0.4420 -0.8326  0.3976
   86MOL   C40448174   3.444   1.359   7.330  0.3034 -1.2282  0.0681
   86MOL   N40548175   3.313   1.305   7.344  0.2160  0.2395  0.0982
   86MOL   C40648176   3.477   1.405   7.195  0.8528  0.0889 -0.8478
   86MOL   C40748177   3.610   1.453   7.166 -0.5924 -0.6030  0.5091
   86MOL   O40848178   3.962   1.502   7.425  0.6423 -0.4403  0.9157
   86MOL   C40948179   4.053   1.462   7.080  0.8134 -0.0608  0.4480
   86MOL   C41048180   4.159   1.461   6.992 -0.6791 -0.3368 -0.5916
   86MOL   O41148181   4.512   1.514   6.985  0.0035 -0.8950 -0.1463
   86MOL   H41248182   4.399   1.611   7.191  0.3700  0.6697 -0.8411
   86MOL   H41348183   4.206   1.600   7.360 -0.5241  0.5816  0.3257
   86MOL   H41448184   3.841   1.538   7.140 -1.6685  0.0795 -0.6977
   86MOL   H41548185   3.736   1.422   7.482  0.6599 -0.4043 -0.7439
   86MOL   H41648186   3.521   1.343   7.535  1.9003 -1.0284  0.6727
   86MOL   H41748187   3.262   1.314   7.257 -1.4716  1.8689  1.2178
   86MOL   H41848188   3.418   1.371   7.110 -0.3310  1.6158 -0.6542
   86MOL   H41948189   3.643   1.472   7.065  0.7601 -2.3188  0.5965
   86MOL   H42048190   3.959   1.423   7.042  0.4401  0.7844  0.5000
   86MOL   H42148191   4.138   1.422   6.893 -1.2425 -1.5388 -0.0106
   86MOL   C42248192   3.258   1.244   7.445  0.4505 -0.2445  0.3113
   86MOL   C42348193   3.127   1.184   7.402  0.7556  0.5439  0.1797
   86MOL   C42448194   3.005   1.248   7.410  0.6307 -0.0658 -0.1126
   86MOL   C42548195   2.892   1.194   7.351  0.5822 -0.4181 -0.2769
   86MOL   C42648196   2.895   1.070   7.279  0.2777 -0.3225  0.8850
   86MOL   C42748197   2.764   1.011   7.225  0.5790  0.0403 -0.7707
   86MOL   N42848198   2.703   1.079   7.127  0.2457 -0.8397  0.5283
   86MOL   C42948199   2.743   1.193   7.040  0.0758 -0.2404  0.5155
   86MOL   C43048200   2.870   1.251   7.028  0.0173  0.1405 -0.5181
   86MOL   C43148201   2.890   1.368   6.955  0.1474  0.1262  0.6094
   86MOL   C43248202   2.785   1.424   6.875 -0.4866  0.4592 -0.8722
   86MOL   N43348203   2.798   1.538   6.785 -0.3848 -0.1709  0.1474
   86MOL   C43448204   2.654   1.359   6.880 -0.5848 -0.0391  0.0455
   86MOL   C43548205   2.634   1.246   6.964  0.7635 -0.7455 -0.0319
   86MOL   O43648206   2.730   0.903   7.267 -0.0759 -0.1798  0.1776
   86MOL   C43748207   3.023   1.012   7.257  0.3980 -0.7452  0.7748
   86MOL   C43848208   3.133   1.069   7.321 -0.1812  0.1053  0.6922
   86MOL   O43948209   3.317   1.205   7.545  0.5787  0.8346 -0.5696
   86MOL   H44048210   2.995   1.338   7.468 -2.2751 -0.0511 -0.5327
   86MOL   H44148211   2.795   1.239   7.365 -0.7538 -2.7246 -1.8905
   86MOL   H44248212   2.614   1.035   7.110  0.0885 -0.6530  0.8725
   86MOL   H44348213   2.958   1.221   7.082  0.5033 -0.0732 -1.4274
   86MOL   H44448214   2.981   1.425   6.954 -1.7790  3.3339 -0.8797
   86MOL   H44548215   2.725   1.558   6.718  0.7652 -1.8422 -1.7029
   86MOL   H44648216   2.563   1.391   6.832 -0.6426  2.0762  1.4770
   86MOL   H44748217   2.538   1.198   6.962  0.1187  0.3894  2.0202
   86MOL   H44848218   3.045   0.928   7.194 -1.2765 -1.1767  0.7265
   86MOL   H44948219   3.230   1.023   7.309  0.3243  1.5446 -0.9139
   86MOL   C45048220   2.881   1.644   6.803  0.8518 -0.1935  0.0369
   86MOL   C45148221   2.869   1.756   6.704 -0.0527  0.0282  0.5834
   86MOL   C45248222   2.840   1.735   6.573  0.6130  0.2735 -0.4557
   86MOL   C45348223   2.803   1.846   6.490  0.8722  0.4115 -0.0817
   86MOL   C45448224   2.813   1.978   6.540 -0.0247 -0.7051 -0.3425
   86MOL   C45548225   2.798   2.092   6.447 -0.7386  0.7329 -0.6863
   86MOL   N45648226   2.887   2.090   6.347  0.2221 -0.2640 -0.3402
   86MOL   C45748227   2.889   2.163   6.224 -0.6240 -0.2428  0.2656
   86MOL   C45848228   2.842   2.295   6.207  0.3916  0.4118 -0.3079
   86MOL   C45948229   2.853   2.364   6.087 -0.1635 -0.1820  0.9422
   86MOL   C46048230   2.910   2.293   5.973 -0.4869 -0.4945 -0.8460
   86MOL   N46148231   2.912   2.344   5.837 -0.0523 -0.5933  0.2878
   86MOL   C46248232   2.946   2.156   5.985  0.9828  0.6191  0.3501
   86MOL   C46348233   2.940   2.094   6.111 -0.4251  0.8175  0.2816
   86MOL   O46448234   2.709   2.181   6.463 -0.8112  0.0636  0.0060
   86MOL   C46548235   2.837   1.994   6.676  0.8575 -0.2890 -0.0072
   86MOL   C46648236   2.866   1.883   6.758 -0.0283  0.1490 -0.0018
   86MOL   O46748237   2.977   1.647   6.882  0.3942 -0.6969 -0.3640
   86MOL   H46848238   2.836   1.640   6.521  0.8066  0.0988 -0.1507
   86MOL   H46948239   2.764   1.830   6.391 -1.2728  0.6782  0.6986
   86MOL   H47048240   2.973   2.038   6.359  0.1743 -0.3281 -0.2746
   86MOL   H47148241   2.802   2.349   6.292 -0.3323  0.1153 -0.4627
   86MOL   H47248242   2.809   2.461   6.072  0.3351 -0.2162 -0.8540
   86MOL   H47348243   2.897   2.277   5.763  2.2942  0.3805 -1.1328
   86MOL   H47448244   2.961   2.095   5.897 -0.7525  0.2482  0.2874
   86MOL   H47548245   2.960   1.988   6.117 -0.4180  0.7641 -0.6132
   86MOL   H47648246   2.857   2.089   6.724 -0.1436 -0.8401  1.5345
   86MOL   H47748247   2.887   1.902   6.862  1.6779  2.3254 -0.7137
   86MOL   C47848248   2.950   2.470   5.801  0.4971  0.7407  0.1392
   86MOL   C47948249   2.952   2.494   5.657  0.4980  0.5153  0.0235
   86MOL   C48048250   2.966   2.387   5.566  0.0348  0.0209 -0.4927
   86MOL   C48148251   2.979   2.422   5.434  0.1647 -1.2959  0.4434
   86MOL   C48248252   2.951   2.554   5.386 -0.0369  0.6334 -0.3716
   86MOL   C48348253   2.937   2.569   5.239  0.0747  0.6325 -0.3175
   86MOL   N48448254   2.888   2.690   5.201  0.0422  0.1936  0.4567
   86MOL   C48548255   2.843   2.718   5.065  0.3731  0.0659 -0.1201
   86MOL   C48648256   2.920   2.728   4.949 -0.6938 -0.2734 -0.0008
   86MOL   C48748257   2.870   2.767   4.828  0.4982 -0.2744  0.0565
   86MOL   C48848258   2.736   2.788   4.815  0.5406 -0.9402  0.0922
   86MOL   N48948259   2.680   2.841   4.693  0.2110 -0.0550  0.1103
   86MOL   C49048260   2.650   2.774   4.925  0.2437 -0.5315 -0.1096
   86MOL   C49148261   2.706   2.736   5.046  0.7846  0.1613 -0.4932
   86MOL   O49248262   2.970   2.484   5.159  0.4946 -0.0366 -0.1996
   86MOL   C49348263   2.943   2.656   5.477 -0.4103 -0.0816  0.0503
   86MOL   C49448264   2.940   2.625   5.610  0.5980  0.4405  0.3596
   86MOL   O49548265   2.971   2.566   5.879  0.5745  0.1185 -0.1555
   86MOL   H49648266   2.994   2.288   5.598 -1.6087 -0.1225  0.5434
   86MOL   H49748267   2.994   2.335   5.372 -0.4180 -0.7438 -0.4912
   86MOL   H49848268   2.856   2.752   5.274  0.5264  0.5958  0.3349
   86MOL   H49948269   3.026   2.709   4.945 -0.5539  0.7136 -1.1000
   86MOL   H50048270   2.944   2.783   4.750  0.6681  2.9170  0.8365
   86MOL   H50148271   2.719   2.931   4.671 -0.9294  0.8363  1.6330
   86MOL   H50248272   2.545   2.789   4.906  0.5157  1.5018 -0.0617
   86MOL   H50348273   2.639   2.734   5.130  1.9755  1.9947  0.5338
   86MOL   H50448274   2.927   2.757   5.441  0.0844 -0.8924 -2.5388
   86MOL   H50548275   2.932   2.706   5.681  1.0471  0.5901  0.2400
   86MOL   C50648276   2.588   2.786   4.612  0.1797 -0.3252  0.2466
   86MOL   C50748277   2.567   2.851   4.479 -0.0361 -0.5131 -0.4916
   86MOL   C50848278   2.444   2.834   4.410 -0.2257 -0.3099 -0.0280
   86MOL   C50948279   2.428   2.908   4.292  0.5260 -0.3923  0.0578
   86MOL   C51048280   2.528   2.996   4.245  0.2317  0.7264  0.3085
   86MOL   C51148281   2.490   3.095   4.141 -0.1278 -0.4871 -0.9579
   86MOL   N51248282   2.588   3.172   4.096 -0.1192 -0.3427 -0.1204
   86MOL   C51348283   2.590   3.271   3.993  0.4735 -0.9674 -0.7894
   86MOL   C51448284   2.477   3.342   3.955 -0.6328  0.2402 -0.3434
   86MOL   C51548285   2.482   3.447   3.855  0.2793  0.1776  0.0898
   86MOL   C51648286   2.607   3.468   3.792  0.7958 -0.4623 -0.0472
   86MOL   N51748287   2.627   3.554   3.690  0.4995 -0.7578  0.1291
   86MOL   C51848288   2.726   3.401   3.833  0.3809  0.0993 -0.8304
   86MOL   C51948289   2.717   3.307   3.941 -0.0903  0.8844  0.5124
   86MOL   O52048290   2.370   3.108   4.103  0.1693  0.3536 -0.3067
   86MOL   C52148291   2.655   3.002   4.310 -0.5571 -0.7115 -0.0947
   86MOL   C52248292   2.680   2.922   4.423 -0.1684  0.0436 -0.3852
   86MOL   O52348293   2.511   2.689   4.644 -0.3976  0.9189 -0.6999
   86MOL   H52448294   2.357   2.784   4.451  0.3219 -1.3945 -0.1706
   86MOL   H52548295   2.326   2.916   4.255  0.3444 -1.6623  0.2598
   86MOL   H52648296   2.676   3.144   4.137 -0.0577 -0.2271 -0.1742
   86MOL   H52748297   2.381   3.313   3.995 -0.2272  1.5297  1.6214
   86MOL   H52848298   2.394   3.499   3.823 -0.7359 -0.6380  1.4958
   86MOL   H52948299   2.603   3.652   3.694  0.8512 -0.5780 -1.8664
   86MOL   H53048300   2.822   3.426   3.790  0.8546 -0.8159 -0.3074
   86MOL   H53148301   2.808   3.256   3.969  0.1605  1.7059  1.2269
   86MOL   H53248302   2.733   3.071   4.283 -0.2696 -0.1339  2.1271
   86MOL   H53348303   2.776   2.928   4.472 -1.2366 -1.1855  1.9262
   86MOL   C53448304   2.655   3.519   3.569 -0.2618  0.0957  0.6323
   86MOL   C53548305   2.622   3.622   3.460 -0.2309  0.2791 -0.0786
   86MOL   C53648306   2.707   3.635   3.348 -0.4681  0.1982  0.3878
   86MOL   C53748307   2.689   3.723   3.246  0.7532 -0.7271  0.1722
   86MOL   C53848308   2.576   3.811   3.255 -0.1349 -0.1592  0.6164
   86MOL   C53948309   2.543   3.913   3.145  0.0620  0.0699  0.2421
   86MOL   N54048310   2.421   3.965   3.148 -0.2241  0.3796  0.1244
   86MOL   C54148311   2.356   4.050   3.057 -0.8284  0.9945  0.1746
   86MOL   C54248312   2.377   4.032   2.919 -0.5956  0.1810  0.7388
   86MOL   C54348313   2.314   4.125   2.831 -0.0170  0.2636 -0.3699
   86MOL   C54448314   2.234   4.228   2.881  0.1598 -0.1367  0.4554
   86MOL   N54548315   2.191   4.322   2.793  0.2865 -0.7318  0.0364
   86MOL   C54648316   2.209   4.237   3.016 -0.0394  0.4596  0.0324
   86MOL   C54748317   2.276   4.150   3.109  1.1579  1.0385 -0.1508
   86MOL   O54848318   2.632   3.944   3.067 -0.3391 -0.0234  0.5065
   86MOL   C54948319   2.496   3.810   3.367  0.1461  0.0120 -0.9796
   86MOL   C55048320   2.514   3.716   3.472  0.2198 -0.4173  0.4809
   86MOL   O55148321   2.707   3.413   3.541  0.2939 -0.5564 -0.1634
   86MOL   H55248322   2.782   3.559   3.330  0.6321  1.0579  1.2959
   86MOL   H55348323   2.767   3.738   3.172 -0.3902 -0.1361 -0.9451
   86MOL   H55448324   2.367   3.942   3.230 -0.7919  0.8790 -0.1062
   86MOL   H55548325   2.437   3.948   2.889  0.1952  0.8662  0.3861
   86MOL   H55648326   2.330   4.127   2.724  0.1712  0.1350 -0.3438
   86MOL   H55748327   2.268   4.369   2.748  0.2285 -0.6848 -0.0120
   86MOL   H55848328   2.140   4.311   3.053 -2.2955 -1.8270  0.5531
   86MOL   H55948329   2.243   4.146   3.212  0.4378  2.1552 -0.3260
   86MOL   H56048330   2.413   3.878   3.374  0.9108  0.8344  0.3218
   86MOL   H56148331   2.444   3.705   3.553  1.1038 -1.1375  1.1661
   86MOL   H56248332   2.136   4.392   2.841  0.5737 -0.5471  0.0937
   87MOL     C148333   3.484   6.488   1.186  0.3098  0.2734 -0.1927
   87MOL     C248334   3.552   6.535   1.314 -0.0790  0.2306  0.7061
   87MOL     C348335   3.518   6.658   1.364 -0.2708  0.1841 -0.1552
   87MOL     C448336   3.577   6.711   1.480 -0.0534 -0.0437  0.7672
   87MOL     C548337   3.670   6.627   1.550  0.3922 -1.1634 -0.0297
   87MOL     C648338   3.698   6.657   1.694  0.2508  0.0347 -0.0716
   87MOL     N748339   3.828   6.652   1.731 -0.3323  0.1543 -0.3397
   87MOL     C848340   3.880   6.650   1.859  0.6961 -0.2026 -0.3013
   87MOL     C948341   3.817   6.581   1.965 -0.2264  0.1370 -0.4576
   87MOL    C1048342   3.883   6.583   2.090 -0.5306  0.3654 -0.1759
   87MOL    C1148343   3.999   6.661   2.123  0.2952  0.3406 -0.4761
   87MOL    N1248344   4.047   6.690   2.251 -0.5549  0.8304  0.9949
   87MOL    C1348345   4.046   6.738   2.017  0.4064 -0.5704 -0.1340
   87MOL    C1448346   3.985   6.731   1.890 -0.2761  0.0016  0.0601
   87MOL    O1548347   3.614   6.697   1.772  0.2498  0.5963  0.3103
   87MOL    C1648348   3.716   6.504   1.488  0.2433 -0.2599  0.2827
   87MOL    C1748349   3.659   6.462   1.368 -0.4725 -0.5471  0.3899
   87MOL    O1848350   3.430   6.563   1.104 -0.0840 -0.9002  0.8762
   87MOL    H1948351   3.437   6.714   1.321  0.1308  1.7741  1.1160
   87MOL    H2048352   3.533   6.798   1.528 -0.6759  1.4750 -2.4035
   87MOL    H2148353   3.891   6.648   1.652 -1.7875 -2.4556 -1.4333
   87MOL    H2248354   3.726   6.525   1.950 -1.6263  1.8781  1.3346
   87MOL    H2348355   3.838   6.529   2.172  1.4844 -0.5460  0.3600
   87MOL    H2448356   4.123   6.756   2.256  1.5867 -1.3821 -1.2854
   87MOL    H2548357   4.130   6.801   2.038 -0.4847  0.5920  0.0183
   87MOL    H2648358   4.011   6.784   1.800  1.6732 -0.9831  0.0055
   87MOL    H2748359   3.787   6.445   1.543  0.1964 -2.2511 -1.7292
   87MOL    H2848360   3.692   6.372   1.317 -1.4404 -0.7682  0.1336
   87MOL    H2948361   3.515   6.388   1.156 -0.0469  0.5509 -1.4823
   87MOL    C3048362   3.994   6.648   2.367 -0.8419 -0.6973 -1.2639
   87MOL    C3148363   4.096   6.656   2.480  0.5295 -0.6586 -0.9055
   87MOL    C3248364   4.229   6.624   2.460 -0.2498  0.0016  0.2897
   87MOL    C3348365   4.315   6.595   2.567 -0.1339 -0.9929  0.6094
   87MOL    C3448366   4.273   6.613   2.700  0.1202  0.2473  0.3141
   87MOL    C3548367   4.361   6.577   2.809 -0.6155  0.7479  0.4238
   87MOL    N3648368   4.460   6.667   2.815 -0.4508 -0.7220  0.6009
   87MOL    C3748369   4.568   6.687   2.907 -0.6973 -0.2560 -0.4812
   87MOL    C3848370   4.553   6.674   3.047 -0.0769  0.3600 -0.5648
   87MOL    C3948371   4.665   6.695   3.132 -0.9734  0.0284 -0.7955
   87MOL    C4048372   4.793   6.731   3.075 -0.4065  0.0649 -0.6801
   87MOL    N4148373   4.909   6.722   3.162 -0.3045  0.0351 -0.0195
   87MOL    C4248374   4.797   6.770   2.941  0.3066 -0.3385 -0.4891
   87MOL    C4348375   4.688   6.734   2.854 -0.2172 -0.5313 -0.2040
   87MOL    O4448376   4.360   6.479   2.875  0.1387 -0.0916  0.2107
   87MOL    C4548377   4.148   6.668   2.721 -0.5016 -0.0330  1.1519
   87MOL    C4648378   4.060   6.685   2.611  0.5862 -0.2044 -0.0989
   87MOL    O4748379   3.882   6.601   2.386 -0.0341 -0.1043 -0.0136
   87MOL    H4848380   4.277   6.611   2.365  3.4059  0.2854  1.9941
   87MOL    H4948381   4.409   6.549   2.540 -0.7366 -1.3965 -0.8740
   87MOL    H5048382   4.449   6.728   2.736 -3.3917 -1.4642  0.3931
   87MOL    H5148383   4.458   6.650   3.092 -0.8167  2.2479 -1.0592
   87MOL    H5248384   4.653   6.684   3.239  1.1991 -0.2789 -0.5634
   87MOL    H5348385   4.887   6.721   3.261 -0.5006 -0.9939 -0.0683
   87MOL    H5448386   4.893   6.806   2.907  0.7469 -0.3619  0.6956
   87MOL    H5548387   4.694   6.742   2.747 -0.5987  2.2212 -0.0554
   87MOL    H5648388   4.112   6.678   2.823 -0.3091 -1.5843  1.3831
   87MOL    H5748389   3.960   6.724   2.624  1.4371  2.1421 -0.2498
   87MOL    C5848390   5.009   6.645   3.135  0.6305 -0.2460 -0.3394
   87MOL    C5948391   5.042   6.547   3.246  0.4552  0.9108 -0.4755
   87MOL    C6048392   4.943   6.504   3.339 -0.5208  0.1047 -0.0136
   87MOL    C6148393   4.973   6.403   3.432  0.4826  0.1483 -0.3944
   87MOL    C6248394   5.093   6.330   3.428  0.7565  1.2048  0.0040
   87MOL    C6348395   5.108   6.209   3.518  0.1170 -0.2297  0.9407
   87MOL    N6448396   5.200   6.115   3.482 -0.2917  0.3666  0.1079
   87MOL    C6548397   5.188   5.969   3.482  0.3084  0.0656  0.3191
   87MOL    C6648398   5.066   5.906   3.517  0.0198  0.1823 -0.3551
   87MOL    C6748399   5.048   5.765   3.516 -0.0231 -0.0842 -0.1310
   87MOL    C6848400   5.163   5.686   3.485  0.1545 -0.2065 -0.2285
   87MOL    N6948401   5.174   5.542   3.491  0.1058 -0.0379 -0.3195
   87MOL    C7048402   5.285   5.748   3.450  0.4909 -0.6152  0.1534
   87MOL    C7148403   5.298   5.892   3.443 -0.7773 -0.1336 -0.5910
   87MOL    O7248404   5.042   6.198   3.616 -0.3839  0.0702 -0.5927
   87MOL    C7348405   5.191   6.373   3.336  1.0780 -0.1201  0.3872
   87MOL    C7448406   5.163   6.476   3.244 -0.3382  0.1174 -0.4187
   87MOL    O7548407   5.071   6.649   3.027 -0.1590 -0.5650  0.8211
   87MOL    H7648408   4.850   6.559   3.347  0.2256  1.4547 -0.4614
   87MOL    H7748409   4.896   6.376   3.503  0.1926  2.1155  0.0652
   87MOL    H7848410   5.270   6.152   3.419 -0.9312  0.5916 -0.4697
   87MOL    H7948411   4.985   5.959   3.565  0.4024  0.0055  0.4989
   87MOL    H8048412   4.962   5.719   3.560  0.9471 -0.8186  1.0002
   87MOL    H8148413   5.266   5.504   3.481 -0.5766 -2.0572  0.9450
   87MOL    H8248414   5.374   5.689   3.435  0.1931 -1.6635  2.3348
   87MOL    H8348415   5.389   5.935   3.404 -0.2845 -1.5679 -1.0484
   87MOL    H8448416   5.291   6.331   3.330  0.8975 -0.3373 -1.7174
   87MOL    H8548417   5.242   6.500   3.174 -1.3970 -1.0582 -2.0326
   87MOL    C8648418   5.088   5.453   3.537 -0.2726  0.7479  0.1010
   87MOL    C8748419   5.135   5.310   3.538 -1.1111  0.0400 -0.6517
   87MOL    C8848420   5.043   5.209   3.511  0.5452 -0.1433  0.1496
   87MOL    C8948421   5.072   5.070   3.523 -0.4987  0.8908 -0.4131
   87MOL    C9048422   5.209   5.033   3.547  0.1426 -0.2222  0.9131
   87MOL    C9148423   5.255   4.891   3.560  0.2293  0.1147 -0.1466
   87MOL    N9248424   5.381   4.869   3.529  0.3924  0.1143  0.5774
   87MOL    C9348425   5.451   4.750   3.547  1.1886  0.5672 -0.1939
   87MOL    C9448426   5.592   4.754   3.532  0.2656 -0.8373 -0.2063
   87MOL    C9548427   5.669   4.640   3.523  0.2230  0.0207  0.0001
   87MOL    C9648428   5.612   4.511   3.528  0.6485 -0.5299 -0.1167
   87MOL    N9748429   5.681   4.387   3.514 -0.1792  0.3529 -0.5176
   87MOL    C9848430   5.475   4.509   3.552  0.3548  0.4215  0.6539
   87MOL    C9948431   5.392   4.621   3.562  0.3407 -0.5762 -0.7122
   87MOL   O10048432   5.176   4.806   3.605  0.0509 -0.6580 -0.1880
   87MOL   C10148433   5.300   5.142   3.565  0.2529 -0.6261 -0.9463
   87MOL   C10248434   5.267   5.281   3.574 -0.2625 -0.2425 -0.7180
   87MOL   O10348435   4.974   5.488   3.565  0.0685  0.2320  0.4095
   87MOL   H10448436   4.943   5.235   3.478  0.4611  0.7578  1.0798
   87MOL   H10548437   5.000   4.993   3.501  0.6361 -0.7226  1.4136
   87MOL   H10648438   5.425   4.947   3.482 -1.4046  1.8463  1.6830
   87MOL   H10748439   5.629   4.856   3.530  0.7118 -0.9592  1.2321
   87MOL   H10848440   5.776   4.642   3.511  0.1727 -1.1206 -0.7485
   87MOL   H10948441   5.663   4.315   3.582  0.7194  2.1086  1.6401
   87MOL   H11048442   5.437   4.411   3.576 -1.0646  0.5073 -1.1397
   87MOL   H11148443   5.289   4.592   3.576  0.1764  0.4735  0.3257
   87MOL   H11248444   5.405   5.123   3.581  0.1367 -0.5082  0.0102
   87MOL   H11348445   5.334   5.356   3.611 -0.7621  1.7180 -3.6537
   87MOL   C11448446   5.773   4.351   3.415  0.1639  0.2357  0.0672
   87MOL   C11548447   5.819   4.460   3.315  0.3595 -0.0825 -0.6653
   87MOL   C11648448   5.956   4.478   3.295 -0.1363  0.3348 -0.1122
   87MOL   C11748449   6.000   4.589   3.222 -0.0239  0.7112  0.2514
   87MOL   C11848450   5.907   4.677   3.164  0.3247 -0.4505 -0.4120
   87MOL   C11948451   5.966   4.800   3.099  0.7238  0.2307 -0.3636
   87MOL   N12048452   5.886   4.913   3.103  0.0632 -1.0001 -0.3095
   87MOL   C12148453   5.892   5.031   3.026  0.1686  0.2962 -0.1337
   87MOL   C12248454   5.788   5.124   3.039 -0.2673 -0.5886  0.4235
   87MOL   C12348455   5.796   5.248   2.967 -0.0776 -1.1685 -0.1289
   87MOL   C12448456   5.899   5.270   2.875  0.9445 -0.0545 -0.4394
   87MOL   N12548457   5.896   5.391   2.805  0.2329  0.3852  0.0288
   87MOL   C12648458   6.011   5.178   2.869 -0.2750 -1.0335 -0.5192
   87MOL   C12748459   5.999   5.056   2.932 -1.3325 -0.6392 -0.2931
   87MOL   O12848460   6.076   4.799   3.049 -0.3085  0.0727  0.0896
   87MOL   C12948461   5.770   4.652   3.174  0.3906  0.1557  0.0655
   87MOL   C13048462   5.720   4.535   3.241 -0.6048 -0.3716 -0.1269
   87MOL   O13148463   5.828   4.242   3.423 -0.1523 -0.2501  0.2474
   87MOL   H13248464   6.021   4.398   3.327  0.1035  1.4770  2.3506
   87MOL   H13348465   6.107   4.603   3.220  0.4963 -2.8144  0.4874
   87MOL   H13448466   5.804   4.898   3.160 -0.1122  0.2292 -0.2290
   87MOL   H13548467   5.706   5.112   3.108 -0.2079  1.8405  0.9919
   87MOL   H13648468   5.718   5.320   2.989  0.9922  0.0449 -0.2285
   87MOL   H13748469   5.806   5.435   2.800  1.4816  2.9000 -0.9903
   87MOL   H13848470   6.101   5.200   2.813 -0.2876  1.9490  0.5171
   87MOL   H13948471   6.084   4.991   2.921 -0.4696  0.6975 -1.6792
   87MOL   H14048472   5.701   4.711   3.115  0.6586  0.6661  0.2649
   87MOL   H14148473   5.616   4.517   3.262 -0.1062 -2.3210  0.8447
   87MOL   C14248474   5.986   5.462   2.728 -0.0277  0.9175 -0.1553
   87MOL   C14348475   5.919   5.572   2.648 -0.0443 -0.1221  0.7134
   87MOL   C14448476   5.782   5.566   2.612 -0.4773 -0.2506 -0.1008
   87MOL   C14548477   5.721   5.665   2.538  0.1896 -0.5106  0.5336
   87MOL   C14648478   5.785   5.791   2.522 -0.4737  0.8766 -0.4378
   87MOL   C14748479   5.712   5.912   2.466 -0.4240  0.9503 -0.2499
   87MOL   N14848480   5.582   5.910   2.466 -0.1424  0.0969  0.3290
   87MOL   C14948481   5.506   6.038   2.456  0.2704 -0.0832 -0.1276
   87MOL   C15048482   5.533   6.140   2.547  0.4575 -0.1959 -0.7092
   87MOL   C15148483   5.473   6.266   2.542 -0.0532 -0.1684  0.5933
   87MOL   C15248484   5.371   6.292   2.445  0.4142 -0.0674 -0.8005
   87MOL   N15348485   5.297   6.413   2.459 -0.1653  0.2237  0.2338
   87MOL   C15448486   5.346   6.191   2.351 -0.0474  0.1475 -0.1109
   87MOL   C15548487   5.411   6.064   2.354  0.8265  0.6420 -0.4449
   87MOL   O15648488   5.777   6.007   2.418 -0.3213  0.0567  0.3598
   87MOL   C15748489   5.924   5.802   2.561  0.2857  0.1593  0.0538
   87MOL   C15848490   5.985   5.690   2.620 -0.4625  0.2253  0.4742
   87MOL   O15948491   6.107   5.436   2.726 -0.0661 -0.0026 -0.1862
   87MOL   H16048492   5.718   5.482   2.637 -2.5462  1.3558  0.1148
   87MOL   H16148493   5.620   5.659   2.501  0.1400  0.3966  0.4997
   87MOL   H16248494   5.534   5.826   2.495 -2.7954  1.0629 -1.1101
   87MOL   H16348495   5.598   6.124   2.632  0.0108  2.4376  0.1727
   87MOL   H16448496   5.495   6.333   2.624 -3.1402  0.8371  0.6666
   87MOL   H16548497   5.330   6.468   2.537  1.6517 -0.4817 -0.0140
   87MOL   H16648498   5.284   6.220   2.267  0.3011  0.4720 -0.2567
   87MOL   H16748499   5.394   5.987   2.280  1.1554  0.0418  0.0955
   87MOL   H16848500   5.979   5.894   2.546  1.0786  0.0104  1.9709
   87MOL   H16948501   6.089   5.701   2.648 -0.5189  0.3386  0.6412
   87MOL   C17048502   5.191   6.459   2.386 -0.6289 -0.0270  0.2569
   87MOL   C17148503   5.135   6.584   2.435 -0.4412 -0.3620 -0.5601
   87MOL   C17248504   5.072   6.586   2.563 -0.4162  0.1096  0.5555
   87MOL   C17348505   5.017   6.712   2.608  0.1703  0.2171 -0.3738
   87MOL   C17448506   5.023   6.830   2.527  0.1016  0.3490  0.0539
   87MOL   C17548507   4.967   6.957   2.590 -0.3646 -0.3704  0.0035
   87MOL   N17648508   4.938   7.057   2.508 -0.1684 -0.9306 -0.2000
   87MOL   C17748509   4.906   7.191   2.542  0.7333  0.4224  0.1664
   87MOL   C17848510   4.941   7.249   2.661  0.6039  0.2523 -0.0867
   87MOL   C17948511   4.913   7.386   2.684  0.1536 -0.4800 -0.0379
   87MOL   C18048512   4.877   7.467   2.573 -0.4960 -0.4967 -0.9592
   87MOL   N18148513   4.891   7.611   2.587 -0.0679  0.4174  0.0242
   87MOL   C18248514   4.830   7.408   2.454 -0.0706 -0.0164  0.6209
   87MOL   C18348515   4.844   7.266   2.441 -0.2892 -0.6695 -0.5925
   87MOL   O18448516   4.920   6.959   2.708  0.2285 -0.1437  0.4020
   87MOL   C18548517   5.089   6.824   2.399  0.7759  0.4281  0.1031
   87MOL   C18648518   5.142   6.700   2.358 -0.2057  0.3486 -0.0214
   87MOL   O18748519   5.145   6.409   2.288  0.3022 -0.6335 -0.5605
   87MOL   H18848520   5.066   6.504   2.632 -1.8684 -0.9679 -0.7957
   87MOL   H18948521   4.959   6.722   2.699  0.3254 -0.5528 -0.1840
   87MOL   H19048522   4.973   7.042   2.415 -1.0353  0.1899 -0.7176
   87MOL   H19148523   5.001   7.197   2.735  1.0584 -1.4553 -1.6274
   87MOL   H19248524   4.936   7.433   2.778  1.6643 -2.0497  0.4117
   87MOL   H19348525   4.882   7.657   2.676 -3.7505 -2.2916  1.2009
   87MOL   H19448526   4.797   7.467   2.370  0.7409  0.5592  0.6999
   87MOL   H19548527   4.809   7.220   2.349 -1.6216 -2.6666  0.8794
   87MOL   H19648528   5.101   6.919   2.350  0.0258  1.0374  1.0781
   87MOL   H19748529   5.184   6.692   2.259  0.7388  1.1858  0.3098
   87MOL   C19848530   4.949   7.685   2.489 -0.7895 -0.0562 -0.2699
   87MOL   C19948531   4.976   7.831   2.521  0.0942 -0.2719 -0.3125
   87MOL   C20048532   4.928   7.894   2.638  0.3489  0.3864  0.2589
   87MOL   C20148533   4.945   8.027   2.664 -1.3932 -0.4277 -0.4666
   87MOL   C20248534   5.034   8.106   2.582  0.2379  0.8998 -0.4834
   87MOL   C20348535   5.064   0.097   2.630  0.4030  0.4652 -0.0523
   87MOL   N20448536   5.191   0.130   2.631 -0.6215  0.0036 -0.9435
   87MOL   C20548537   5.255   0.251   2.674 -0.0690 -0.3093 -0.8419
   87MOL   C20648538   5.189   0.356   2.746  0.2213  0.7679  0.6373
   87MOL   C20748539   5.265   0.467   2.793  0.3969  0.3663  0.2354
   87MOL   C20848540   5.402   0.479   2.764 -0.3836  0.8524  0.4657
   87MOL   N20948541   5.467   0.591   2.812  0.0384  0.0781 -0.4775
   87MOL   C21048542   5.465   0.376   2.690  0.0578  0.3044  0.1287
   87MOL   C21148543   5.391   0.262   2.646 -0.0725  0.2987  0.3873
   87MOL   O21248544   4.976   0.174   2.672 -0.2528 -0.6405  0.6940
   87MOL   C21348545   5.086   8.049   2.465  0.8023 -0.4022  0.1778
   87MOL   C21448546   5.056   7.913   2.433  0.2701 -0.2102 -0.9921
   87MOL   O21548547   4.969   7.641   2.376 -0.2553 -0.3477 -0.1150
   87MOL   H21648548   4.861   7.839   2.701  1.2566 -1.8138 -0.6406
   87MOL   H21748549   4.896   8.071   2.750 -0.3254 -0.3204  0.0981
   87MOL   H21848550   5.254   0.054   2.608 -0.2121 -0.3317  1.1609
   87MOL   H21948551   5.083   0.348   2.765  0.1209 -1.2827 -0.6327
   87MOL   H22048552   5.209   0.535   2.855 -2.2062  0.4820 -2.1623
   87MOL   H22148553   5.404   0.668   2.828  1.1077  0.6288  1.2071
   87MOL   H22248554   5.564   0.385   2.648 -1.3969  2.5049 -2.9968
   87MOL   H22348555   5.434   0.194   2.574 -0.7168 -0.2259  0.4969
   87MOL   H22448556   5.140   8.117   2.401 -1.3517  1.3302  0.1134
   87MOL   H22548557   5.104   7.864   2.350 -0.6095 -0.1366 -1.5467
   87MOL   C22648558   5.581   0.604   2.880 -0.5554 -0.6086 -0.5635
   87MOL   C22748559   5.590   0.727   2.967  0.1312  0.7444 -0.2283
   87MOL   C22848560   5.655   0.720   3.093 -0.3252  0.3563 -0.5318
   87MOL   C22948561   5.645   0.823   3.184 -0.0850  0.1261 -0.2164
   87MOL   C23048562   5.572   0.939   3.152  0.1399 -0.2342 -0.3434
   87MOL   C23148563   5.550   1.040   3.264 -0.1863 -0.4904 -0.7276
   87MOL   N23248564   5.659   1.054   3.345 -0.6988  0.5546  0.3966
   87MOL   C23348565   5.660   1.117   3.469  0.1290 -0.3580  0.4568
   87MOL   C23448566   5.563   1.096   3.567 -1.0700  0.7116  0.2507
   87MOL   C23548567   5.580   1.151   3.699 -0.0995  0.3382 -0.6112
   87MOL   C23648568   5.692   1.234   3.726 -0.5802  0.1316 -0.3164
   87MOL   N23748569   5.706   1.299   3.850  0.1174  0.3179 -0.2328
   87MOL   C23848570   5.787   1.269   3.628  0.7023  0.4308  0.3975
   87MOL   C23948571   5.769   1.211   3.499  0.3660  0.1266  0.0343
   87MOL   O24048572   5.450   1.106   3.276 -0.2955 -0.2000  0.1939
   87MOL   C24148573   5.508   0.947   3.025 -0.1871 -0.0530 -0.2137
   87MOL   C24248574   5.521   0.846   2.931  0.1525 -0.3850 -0.2440
   87MOL   O24348575   5.675   0.521   2.870  0.2107 -0.1089  0.1533
   87MOL   H24448576   5.698   0.624   3.115 -4.0456 -0.8828  1.8945
   87MOL   H24548577   5.694   0.814   3.279  0.3805  0.6209 -0.4019
   87MOL   H24648578   5.743   1.006   3.315 -1.3361 -0.8493  0.8166
   87MOL   H24748579   5.475   1.038   3.545  0.1001 -0.9437 -0.1650
   87MOL   H24848580   5.502   1.137   3.771  0.3939  0.9497  0.0434
   87MOL   H24948581   5.767   1.379   3.855 -0.2323  0.5568  0.2390
   87MOL   H25048582   5.860   1.345   3.654  2.1549 -0.4273 -1.0842
   87MOL   H25148583   5.843   1.240   3.425 -0.7402 -0.7962 -1.4777
   87MOL   H25248584   5.468   1.044   3.000  1.8471  0.9929  0.4434
   87MOL   H25348585   5.483   0.863   2.831 -0.4918  2.0645  0.3804
   87MOL   C25448586   5.664   1.251   3.972  0.3856  0.3490 -0.7122
   87MOL   C25548587   5.643   1.341   4.089  0.2746 -0.5729  0.4197
   87MOL   C25648588   5.585   1.296   4.212 -0.3675  0.2273 -0.5156
   87MOL   C25748589   5.551   1.387   4.315 -0.4233 -0.3112  0.0131
   87MOL   C25848590   5.563   1.525   4.297 -0.2038  0.2161  0.4104
   87MOL   C25948591   5.493   1.611   4.399  0.3875 -0.4249 -0.6556
   87MOL   N26048592   5.548   1.731   4.419 -0.2465 -0.1748 -0.2853
   87MOL   C26148593   5.520   1.828   4.522 -0.0960 -0.0743 -0.0481
   87MOL   C26248594   5.616   1.930   4.549  0.5361  0.4373  0.5308
   87MOL   C26348595   5.600   2.021   4.655  0.3043  0.1597  0.1340
   87MOL   C26448596   5.475   2.019   4.725  0.2402 -0.2512  0.1342
   87MOL   N26548597   5.442   2.104   4.838  0.8119  0.1163  1.4872
   87MOL   C26648598   5.370   1.926   4.694  0.7444 -0.8795 -0.0274
   87MOL   C26748599   5.395   1.826   4.595  0.2372  0.3709  0.3254
   87MOL   O26848600   5.393   1.569   4.460  0.1543  0.0977  1.0307
   87MOL   C26948601   5.620   1.572   4.177 -0.4523  0.0345  0.3477
   87MOL   C27048602   5.668   1.478   4.079 -0.5770 -0.6062 -0.0153
   87MOL   O27148603   5.640   1.126   3.988 -0.2146 -0.7551  0.8812
   87MOL   H27248604   5.562   1.191   4.217  0.0726  0.1697  0.2558
   87MOL   H27348605   5.503   1.341   4.400  0.5440 -0.8691  0.2749
   87MOL   H27448606   5.630   1.742   4.361 -0.1051 -1.1057 -0.2616
   87MOL   H27548607   5.711   1.931   4.496 -0.2876 -1.5200 -1.0785
   87MOL   H27648608   5.672   2.098   4.675  0.0411 -0.3345  3.2821
   87MOL   H27748609   5.348   2.091   4.874  0.1281 -0.7098 -0.5534
   87MOL   H27848610   5.278   1.938   4.749  1.6108  0.4360  1.1570
   87MOL   H27948611   5.311   1.761   4.573  0.5885  0.4643 -1.3508
   87MOL   H28048612   5.615   1.677   4.154 -0.2262 -0.5191 -2.3298
   87MOL   H28148613   5.717   1.526   3.996 -2.7805  2.7989  0.5495
   87MOL   C28248614   5.522   2.185   4.910  0.1039  0.3872 -0.5151
   87MOL   C28348615   5.469   2.214   5.048  0.1660 -0.5983  0.3132
   87MOL   C28448616   5.563   2.242   5.152 -0.7465 -0.3104 -0.7558
   87MOL   C28548617   5.514   2.252   5.282 -0.0761  0.1873  0.2512
   87MOL   C28648618   5.381   2.235   5.316 -0.4076 -0.4137 -0.0906
   87MOL   C28748619   5.335   2.216   5.464 -0.6540 -0.0953  0.5616
   87MOL   N28848620   5.215   2.164   5.486 -0.0283 -0.9709 -0.7922
   87MOL   C28948621   5.185   2.075   5.593 -0.7401  0.0941  0.4857
   87MOL   C29048622   5.112   1.962   5.563 -0.1595  0.2085  0.0585
   87MOL   C29148623   5.090   1.863   5.661  0.3613 -0.0545  0.3550
   87MOL   C29248624   5.142   1.885   5.791  0.1564  0.6121  0.0834
   87MOL   N29348625   5.129   1.772   5.878 -0.0593  0.2100 -0.4181
   87MOL   C29448626   5.212   2.005   5.818 -0.5886  0.1560 -0.2996
   87MOL   C29548627   5.226   2.104   5.720  0.1613  0.0332  0.0834
   87MOL   O29648628   5.409   2.259   5.553  0.1019  0.2999  0.9846
   87MOL   C29748629   5.291   2.219   5.206 -0.3750 -0.3139 -0.2618
   87MOL   C29848630   5.333   2.205   5.078  0.5437 -0.9563 -0.1564
   87MOL   O29948631   5.631   2.231   4.874 -0.0207  0.4331  0.6345
   87MOL   H30048632   5.671   2.233   5.144 -0.7757 -5.4917  2.1988
   87MOL   H30148633   5.596   2.262   5.352 -0.8014  0.6056  1.0525
   87MOL   H30248634   5.160   2.160   5.402 -2.4835 -0.4251  0.7539
   87MOL   H30348635   5.073   1.940   5.464  1.4682  0.7312 -0.7226
   87MOL   H30448636   5.020   1.784   5.642  0.5684 -0.1289 -0.1113
   87MOL   H30548637   5.119   1.682   5.834 -0.0360 -0.8306  1.6481
   87MOL   H30648638   5.263   2.019   5.913 -0.7021 -0.0066 -0.2145
   87MOL   H30748639   5.277   2.195   5.747  1.0989 -0.1376 -1.1287
   87MOL   H30848640   5.185   2.207   5.222 -0.2769 -1.8361 -0.6363
   87MOL   H30948641   5.252   2.209   5.006  0.5248  2.0465  0.0087
   87MOL   C31048642   5.172   1.757   6.007 -0.4296  0.1968 -0.0285
   87MOL   C31148643   5.203   1.613   6.036  0.3257 -0.1868 -0.1550
   87MOL   C31248644   5.152   1.554   6.157 -0.3726  0.2488 -0.3663
   87MOL   C31348645   5.189   1.422   6.182  0.4055  0.4668 -0.2315
   87MOL   C31448646   5.268   1.349   6.096  0.5917  0.2732  0.1559
   87MOL   C31548647   5.303   1.209   6.136 -0.6044 -0.1006 -0.3995
   87MOL   N31648648   5.354   1.130   6.037  0.9890  0.3588 -0.5039
   87MOL   C31748649   5.416   0.994   6.046  0.4031  0.6072  0.9669
   87MOL   C31848650   5.425   0.919   5.925 -0.5450 -0.0733  0.3794
   87MOL   C31948651   5.477   0.790   5.937 -0.5944  0.2047 -0.2747
   87MOL   C32048652   5.507   0.724   6.058  0.4429 -0.0661 -0.4348
   87MOL   N32148653   5.562   0.593   6.068 -0.3418  0.2156  0.0946
   87MOL   C32248654   5.485   0.799   6.175  0.7900  0.0068  0.0109
   87MOL   C32348655   5.444   0.935   6.171  0.2309 -0.2148 -0.1280
   87MOL   O32448656   5.301   1.181   6.259  0.0798  0.2061  0.4661
   87MOL   C32548657   5.325   1.408   5.978  0.1599  0.7946  0.1175
   87MOL   C32648658   5.285   1.539   5.949 -0.5214  0.4234  0.1833
   87MOL   O32748659   5.158   1.840   6.094 -0.2825 -0.5357  0.0322
   87MOL   H32848660   5.096   1.615   6.227  0.3963 -0.2368  0.7013
   87MOL   H32948661   5.158   1.385   6.279  2.2287 -0.5301 -0.0109
   87MOL   H33048662   5.346   1.173   5.946 -1.2213 -0.4086 -0.7048
   87MOL   H33148663   5.423   0.966   5.828 -0.7334  0.0532  0.4427
   87MOL   H33248664   5.505   0.731   5.851  2.2281  1.9287 -0.6268
   87MOL   H33348665   5.531   0.531   6.141 -0.6435 -0.1073 -0.3107
   87MOL   H33448666   5.524   0.750   6.263  1.5131  2.3388  1.0271
   87MOL   H33548667   5.434   0.982   6.268  0.9083 -0.1389 -0.0926
   87MOL   H33648668   5.393   1.365   5.906 -0.3982  3.0926 -1.8628
   87MOL   H33748669   5.329   1.573   5.856 -0.6476  0.5938  0.1846
   87MOL   C33848670   5.657   0.538   5.984 -0.4795 -0.2050  0.2425
   87MOL   C33948671   5.709   0.406   6.024  0.4995 -1.1427 -1.0842
   87MOL   C34048672   5.840   0.406   6.067 -0.7373  0.4865  0.1834
   87MOL   C34148673   5.899   0.278   6.085 -0.0699  0.3815 -0.5363
   87MOL   C34248674   5.814   0.164   6.087 -0.1758  0.7725  0.3202
   87MOL   C34348675   5.873   0.032   6.119  0.3595  0.0018  0.5994
   87MOL   N34448676   5.885   8.103   6.007  0.7567  0.5233 -0.0416
   87MOL   C34548677   5.938   7.973   5.995 -0.7197  0.6426  0.6951
   87MOL   C34648678   5.912   7.867   6.088  0.0639 -0.4045 -0.4062
   87MOL   C34748679   5.949   7.738   6.049  0.9317 -1.4949  0.5481
   87MOL   C34848680   6.016   7.711   5.929  0.3388 -0.3141 -0.4411
   87MOL   N34948681   6.057   7.575   5.897  0.6109  0.2900  0.0004
   87MOL   C35048682   6.037   7.818   5.836  0.0878  0.7350 -0.0443
   87MOL   C35148683   6.000   7.942   5.872  0.1860 -0.7933 -0.1020
   87MOL   O35248684   5.922   0.008   6.228 -0.3816 -1.0999 -0.1754
   87MOL   C35348685   5.677   0.167   6.052 -0.4646  0.2092 -0.4740
   87MOL   C35448686   5.626   0.292   6.014  0.1322  0.0162  0.3847
   87MOL   O35548687   5.717   0.597   5.895  0.1996  0.3563 -0.4807
   87MOL   H35648688   5.892   0.495   6.096 -0.2371  0.4030 -0.4508
   87MOL   H35748689   6.001   0.257   6.114  0.5196  2.7289 -0.7934
   87MOL   H35848690   5.834   8.139   5.927  1.4236 -0.3018 -0.8571
   87MOL   H35948691   5.853   7.888   6.176  0.3525  1.7032 -0.6760
   87MOL   H36048692   5.914   7.662   6.117 -0.5495 -0.5874  0.8255
   87MOL   H36148693   6.052   7.558   5.798  1.8561 -1.2649  0.1777
   87MOL   H36248694   6.074   7.799   5.737 -0.0823 -1.5007  0.3013
   87MOL   H36348695   6.026   8.025   5.807 -1.1075 -1.6698 -1.7875
   87MOL   H36448696   5.615   0.079   6.054  0.8582 -0.7245  1.4189
   87MOL   H36548697   5.524   0.305   5.982  1.0894  5.2154 -0.9655
   87MOL   C36648698   6.085   7.480   5.978 -0.3742 -0.1447 -0.1733
   87MOL   C36748699   6.107   7.345   5.910 -0.4074 -0.0157 -0.3310
   87MOL   C36848700   6.124   7.230   6.000 -0.1403  0.3232 -0.8819
   87MOL   C36948701   6.176   7.113   5.954 -0.2346 -0.4687 -0.3150
   87MOL   C37048702   6.212   7.104   5.818 -0.0810 -0.2673 -0.6400
   87MOL   C37148703   6.267   6.977   5.768  0.0865 -0.2672  0.0942
   87MOL   N37248704   6.348   6.910   5.846  0.0688  0.4467  0.0234
   87MOL   C37348705   6.408   6.782   5.830 -0.1113 -0.0149 -1.0794
   87MOL   C37448706   6.522   6.742   5.906 -0.0187 -0.1011  0.0398
   87MOL   C37548707   6.578   6.611   5.895  0.0387 -0.5324  0.3632
   87MOL   C37648708   6.518   6.518   5.807  0.4592 -0.0269  0.0311
   87MOL   N37748709   6.567   6.386   5.799 -0.0909 -0.6849 -0.3034
   87MOL   C37848710   6.404   6.554   5.733 -0.8514 -0.6986 -0.3687
   87MOL   C37948711   6.352   6.684   5.750  0.0557 -0.0375  0.6100
   87MOL   O38048712   6.245   6.951   5.650  0.4285 -0.0110 -0.1899
   87MOL   C38148713   6.192   7.214   5.730 -0.2381  0.5605 -0.5087
   87MOL   C38248714   6.132   7.334   5.775 -0.3397  0.0661  0.3924
   87MOL   O38348715   6.088   7.490   6.103 -0.2039  0.3604  0.0259
   87MOL   H38448716   6.101   7.236   6.105 -2.9212  0.3543 -1.4486
   87MOL   H38548717   6.189   7.033   6.025  0.4119 -1.0074 -1.0311
   87MOL   H38648718   6.381   6.961   5.926  0.3361  1.5457 -0.7747
   87MOL   H38748719   6.576   6.817   5.963 -0.2810 -1.0541  1.5831
   87MOL   H38848720   6.660   6.590   5.962  0.7887 -0.8248 -0.6408
   87MOL   H38948721   6.568   6.337   5.887  0.4622 -0.6860 -0.3118
   87MOL   H39048722   6.366   6.478   5.666 -1.0666 -1.1018  0.2072
   87MOL   H39148723   6.263   6.708   5.693  1.2873 -0.0983 -1.3874
   87MOL   H39248724   6.207   7.187   5.626  2.1428  0.5835 -0.2013
   87MOL   H39348725   6.118   7.410   5.700 -0.0019 -1.9061 -1.7228
   87MOL   C39448726   6.620   6.333   5.684  0.6234  0.1399 -0.6752
   87MOL   C39548727   6.675   6.193   5.705  0.3614 -0.1059 -0.0404
   87MOL   C39648728   6.635   6.100   5.807 -0.2139  0.1483 -0.6375
   87MOL   C39748729   6.707   5.973   5.818  0.1900  0.2919  0.2435
   87MOL   C39848730   6.809   5.937   5.726  1.1320  0.6298  0.8847
   87MOL   C39948731   6.877   5.802   5.721 -0.3796 -0.1569  0.3686
   87MOL   N40048732   6.937   5.773   5.603 -0.0363 -0.4209  0.8444
   87MOL   C40148733   7.027   5.670   5.574  0.2994 -0.3528 -1.0727
   87MOL   C40248734   7.038   5.621   5.444 -0.0799  0.6846 -0.5278
   87MOL   C40348735   7.136   5.525   5.422 -0.1956 -0.2948  0.4161
   87MOL   C40448736   7.226   5.478   5.523  0.3915 -0.4991 -0.0545
   87MOL   N40548737   7.321   5.381   5.479 -0.0134  0.2028  0.3096
   87MOL   C40648738   7.217   5.530   5.648 -0.4058  0.1313 -0.1348
   87MOL   C40748739   7.120   5.626   5.679 -0.4627 -0.3300  0.2623
   87MOL   O40848740   6.871   5.724   5.818 -0.1749  0.2903 -0.6116
   87MOL   C40948741   6.842   6.029   5.621  0.1937 -0.2380 -0.1549
   87MOL   C41048742   6.773   6.152   5.610 -0.3748  0.4005 -0.4298
   87MOL   O41148743   6.619   6.386   5.572 -0.2546 -0.2729 -0.0832
   87MOL   H41248744   6.557   6.126   5.877  0.3906 -1.3037  0.5946
   87MOL   H41348745   6.677   5.896   5.888 -0.0388  2.6414  2.8395
   87MOL   H41448746   6.898   5.814   5.520 -1.5717 -0.5454  1.4939
   87MOL   H41548747   6.969   5.652   5.366 -2.3141 -0.7367  0.8364
   87MOL   H41648748   7.136   5.478   5.325 -2.5524 -1.2412  0.8500
   87MOL   H41748749   7.340   5.380   5.379  2.6690  2.7179  0.7434
   87MOL   H41848750   7.272   5.500   5.737  0.3747 -0.1653 -0.7142
   87MOL   H41948751   7.118   5.666   5.779  1.4552  0.8530 -0.1357
   87MOL   H42048752   6.913   6.009   5.542 -2.6045 -1.0658 -2.5228
   87MOL   H42148753   6.800   6.224   5.534  1.6803 -0.1255 -0.2411
   87MOL   C42248754   7.408   5.315   5.558  0.3971 -0.5279  0.4964
   87MOL   C42348755   7.519   5.258   5.486  0.1656  0.2951  0.0690
   87MOL   C42448756   7.646   5.260   5.549 -0.5063  0.0376 -0.2544
   87MOL   C42548757   7.759   5.211   5.487  0.0354  0.6033  0.4578
   87MOL   C42648758   7.749   5.153   5.360 -0.3489  0.8436 -0.6376
   87MOL   C42748759   7.872   5.103   5.298  0.6253 -0.3865  0.0460
   87MOL   N42848760   7.924   5.190   5.212 -0.0929 -0.8438 -0.1798
   87MOL   C42948761   8.034   5.180   5.127  0.1752  0.1808  0.0690
   87MOL   C43048762   8.075   5.058   5.075 -0.0483  0.0527 -0.0057
   87MOL   C43148763   0.044   5.055   4.993 -0.2497  0.3801  0.2062
   87MOL   C43248764   0.103   5.177   4.938  0.0544 -0.5044 -0.1028
   87MOL   N43348765   0.197   5.180   4.832  0.2903  0.4563  0.0680
   87MOL   C43448766   0.049   5.295   4.980  0.1337 -0.0707  0.1379
   87MOL   C43548767   8.087   5.301   5.073 -0.0316  0.1222 -0.4591
   87MOL   O43648768   7.911   4.990   5.332 -0.5418 -0.0075 -0.2816
   87MOL   C43748769   7.624   5.142   5.298  0.4812 -1.0275  0.1517
   87MOL   C43848770   7.514   5.193   5.363  0.1098  0.1824 -0.6727
   87MOL   O43948771   7.401   5.304   5.678 -0.6024 -0.0840 -0.0609
   87MOL   H44048772   7.666   5.300   5.648  1.2656  0.3545 -0.7238
   87MOL   H44148773   7.849   5.220   5.546  1.3898  0.9954 -1.6412
   87MOL   H44248774   7.877   5.279   5.209  1.8841  0.2434 -0.1165
   87MOL   H44348775   8.028   4.968   5.109  0.3656 -0.9124 -1.9084
   87MOL   H44448776   0.074   4.955   4.964  0.2274  0.2616  1.1058
   87MOL   H44548777   0.196   5.265   4.777 -0.1671  0.7230  0.4814
   87MOL   H44648778   0.096   5.388   4.950 -1.6560  0.1084 -2.2530
   87MOL   H44748779   8.046   5.397   5.099 -1.3475 -0.9319  1.4426
   87MOL   H44848780   7.614   5.098   5.200  0.9987  0.1471 -0.4395
   87MOL   H44948781   7.416   5.188   5.317  0.7305 -1.3172 -1.8906
   87MOL   C45048782   0.293   5.087   4.807 -0.5856 -0.8295  0.4077
   87MOL   C45148783   0.318   4.963   4.891  0.6505 -0.0480  0.0984
   87MOL   C45248784   0.307   4.832   4.838 -0.2984 -0.3440 -0.0383
   87MOL   C45348785   0.346   4.709   4.911  0.6270 -0.0962 -0.0715
   87MOL   C45448786   0.391   4.723   5.042  0.0196 -1.0608  0.2880
   87MOL   C45548787   0.425   4.599   5.116  0.2378  0.0830 -0.4596
   87MOL   N45648788   0.372   4.586   5.236  0.5209 -0.0974 -0.7346
   87MOL   C45748789   0.295   4.673   5.307  0.0860  0.4075 -0.4221
   87MOL   C45848790   0.341   4.730   5.426 -0.5003 -0.1499  0.0907
   87MOL   C45948791   0.261   4.824   5.492  0.3215  0.4241 -0.1124
   87MOL   C46048792   0.139   4.866   5.434 -0.0181  0.3888  0.0148
   87MOL   N46148793   0.067   4.968   5.501 -0.3287 -0.0736  0.0383
   87MOL   C46248794   0.094   4.817   5.311  0.0586 -0.0902 -0.1310
   87MOL   C46348795   0.172   4.715   5.255 -0.4030  0.0841  0.3755
   87MOL   O46448796   0.495   4.513   5.061  0.4780 -0.3467  0.0398
   87MOL   C46548797   0.395   4.853   5.096  0.8613  0.4592  0.2508
   87MOL   C46648798   0.352   4.966   5.025  0.3278  0.4227 -0.9168
   87MOL   O46748799   0.352   5.089   4.700  0.0151 -1.1372  0.0123
   87MOL   H46848800   0.289   4.823   4.732 -1.4107  0.9641  0.0268
   87MOL   H46948801   0.332   4.614   4.863  1.0001  0.7736 -1.9301
   87MOL   H47048802   0.408   4.504   5.282  1.1710 -0.0832 -1.2030
   87MOL   H47148803   0.425   4.680   5.471 -1.8262 -3.5437 -1.0409
   87MOL   H47248804   0.292   4.872   5.583  0.9630  2.5383 -1.4004
   87MOL   H47348805   0.033   5.030   5.428 -2.2055 -0.4218  0.5970
   87MOL   H47448806   0.003   4.850   5.263 -0.9778 -1.0268  1.1182
   87MOL   H47548807   0.145   4.679   5.157 -2.2593 -1.4536  1.4334
   87MOL   H47648808   0.442   4.868   5.192  1.9554  2.2756 -0.5458
   87MOL   H47748809   0.365   5.067   5.061 -2.0650  1.2579 -2.2150
   87MOL   C47848810   0.024   4.971   5.629 -0.0487  0.1683  0.1410
   87MOL   C47948811   8.090   5.087   5.684 -0.0896 -0.0503 -0.3991
   87MOL   C48048812   8.118   5.223   5.647 -0.2326  0.3031  0.7275
   87MOL   C48148813   8.039   5.331   5.694 -0.1201  0.1045  0.3219
   87MOL   C48248814   7.931   5.304   5.782 -0.2336 -0.3789 -0.0520
   87MOL   C48348815   7.840   5.413   5.829 -0.8659  0.4510 -0.3747
   87MOL   N48448816   7.819   5.415   5.965 -0.6997  0.5553 -0.0646
   87MOL   C48548817   7.731   5.501   6.039  0.5531  0.0141 -0.1772
   87MOL   C48648818   7.659   5.440   6.143 -0.6280 -0.1520 -0.0255
   87MOL   C48748819   7.576   5.519   6.224 -0.0455  0.0625  0.5995
   87MOL   C48848820   7.571   5.657   6.216  0.2276  0.1940 -0.2905
   87MOL   N48948821   7.490   5.736   6.303 -0.6130  0.1499  0.1128
   87MOL   C49048822   7.647   5.718   6.117  0.1532 -0.1203  0.3083
   87MOL   C49148823   7.722   5.640   6.023 -1.0113  0.2420 -0.2367
   87MOL   O49248824   7.774   5.484   5.752 -0.0416  0.4411  0.1040
   87MOL   C49348825   7.912   5.167   5.828 -0.4488 -0.3785 -0.0720
   87MOL   C49448826   7.989   5.063   5.777  0.5935 -0.7047  0.2076
   87MOL   O49548827   0.036   4.869   5.700  0.5443 -0.4170 -0.0469
   87MOL   H49648828   0.052   5.243   5.577 -1.6716 -1.1106 -1.3735
   87MOL   H49748829   8.059   5.426   5.647 -2.5298  1.3983  1.8506
   87MOL   H49848830   7.843   5.329   6.013 -1.4239  0.1655 -0.4030
   87MOL   H49948831   7.671   5.334   6.161  3.7544 -0.0636 -1.8614
   87MOL   H50048832   7.521   5.469   6.303 -2.7829  0.2058 -1.1222
   87MOL   H50148833   7.446   5.819   6.265 -3.8387 -1.5765 -0.1355
   87MOL   H50248834   7.646   5.826   6.118 -0.7008 -0.1191 -0.1339
   87MOL   H50348835   7.780   5.701   5.955  1.3358 -2.1266 -0.4052
   87MOL   H50448836   7.829   5.137   5.890 -0.4124 -0.7743 -0.2068
   87MOL   H50548837   7.978   4.960   5.805  2.5739 -0.9827  0.0469
   87MOL   C50648838   7.483   5.728   6.438  0.2685 -0.3000 -0.7245
   87MOL   C50748839   7.400   5.832   6.505 -0.0331  0.3613 -0.4685
   87MOL   C50848840   7.323   5.807   6.619 -0.6796  0.6247 -0.5727
   87MOL   C50948841   7.243   5.909   6.676 -0.1396  0.0154 -0.0742
   87MOL   C51048842   7.231   6.034   6.616  0.7599  0.3567  0.6057
   87MOL   C51148843   7.137   6.134   6.664  0.3714  0.3217  0.1302
   87MOL   N51248844   7.136   6.143   6.798 -0.1330 -0.1164  0.2916
   87MOL   C51348845   7.062   6.228   6.881 -0.8229  0.3352 -0.5844
   87MOL   C51448846   6.948   6.299   6.842  0.4779  0.0905  0.0401
   87MOL   C51548847   6.871   6.369   6.930 -0.1262  0.1632  0.2842
   87MOL   C51648848   6.911   6.377   7.062  0.1147  0.4099 -1.5684
   87MOL   N51748849   6.830   6.459   7.147  0.5798 -0.0953 -0.6764
   87MOL   C51848850   7.026   6.307   7.112 -0.1228 -0.9308 -0.5263
   87MOL   C51948851   7.093   6.231   7.020 -0.6472 -0.4796  0.3821
   87MOL   O52048852   7.076   6.210   6.589  0.3192  0.8545 -0.5381
   87MOL   C52148853   7.311   6.057   6.504  0.4128  0.5422  0.0381
   87MOL   C52248854   7.392   5.959   6.449 -0.5909 -0.1823 -0.2427
   87MOL   O52348855   7.538   5.640   6.507  0.0492 -0.1272  0.1927
   87MOL   H52448856   7.319   5.705   6.653  1.7781  2.0295  4.4851
   87MOL   H52548857   7.183   5.886   6.763 -1.2206  0.0376 -0.7932
   87MOL   H52648858   7.189   6.071   6.843  0.9261  1.3113  1.3824
   87MOL   H52748859   6.920   6.282   6.739  2.7355 -3.3436 -0.0969
   87MOL   H52848860   6.782   6.416   6.892  0.6415  1.9299  0.6322
   87MOL   H52948861   6.757   6.508   7.097 -1.5144 -1.0093  1.4081
   87MOL   H53048862   7.048   6.305   7.217 -0.2807  3.0982 -0.3179
   87MOL   H53148863   7.170   6.162   7.051  0.8486  0.6356 -0.7778
   87MOL   H53248864   7.317   6.159   6.472 -0.1576  1.6265  3.1636
   87MOL   H53348865   7.452   5.978   6.362  0.0134 -1.3028 -0.0905
   87MOL   C53448866   6.841   6.510   7.274  1.0292  0.5343 -0.4058
   87MOL   C53548867   6.730   6.609   7.323 -0.0566 -0.3366 -0.2258
   87MOL   C53648868   6.601   6.619   7.261  0.1009 -0.1034  0.6622
   87MOL   C53748869   6.504   6.697   7.324  0.0934  0.7384 -0.0748
   87MOL   C53848870   6.524   6.757   7.448  0.4400 -0.6867 -0.3822
   87MOL   C53948871   6.417   6.850   7.497 -1.0744 -0.3564 -0.2437
   87MOL   N54048872   6.446   6.897   7.621 -0.5854  0.5270 -0.4145
   87MOL   C54148873   6.366   6.978   7.700 -0.4165  0.8553 -0.1311
   87MOL   C54248874   6.348   6.951   7.843  0.4216  0.0957  0.3862
   87MOL   C54348875   6.262   7.032   7.916 -0.2357  0.8883 -0.0454
   87MOL   C54448876   6.192   7.137   7.857  0.6759 -0.2883 -0.0860
   87MOL   N54548877   6.103   7.214   7.930  0.4394 -0.0362  0.1415
   87MOL   C54648878   6.212   7.159   7.721  0.1344  0.8433 -0.2132
   87MOL   C54748879   6.298   7.084   7.647  0.3806  0.2010  0.1264
   87MOL   O54848880   6.330   6.892   7.424  0.6275  0.0584 -0.1418
   87MOL   C54948881   6.650   6.746   7.504  0.9095  0.3506 -0.8056
   87MOL   C55048882   6.748   6.671   7.442 -0.1846 -0.1621  0.2753
   87MOL   O55148883   6.929   6.473   7.356 -0.0954  0.4332 -0.5055
   87MOL   H55248884   6.574   6.583   7.162  1.1349  0.9786 -0.0235
   87MOL   H55348885   6.412   6.709   7.270  0.2561  0.9693 -0.3031
   87MOL   H55448886   6.520   6.849   7.670  0.0482  2.5728  0.6866
   87MOL   H55548887   6.405   6.876   7.896  1.5800  0.7223  0.0457
   87MOL   H55648888   6.244   7.009   8.020  1.3217  0.5030  0.1448
   87MOL   H55748889   6.094   7.310   7.900 -4.4297 -0.0020  1.2716
   87MOL   H55848890   6.150   7.229   7.666 -1.0516  0.7325  0.9530
   87MOL   H55948891   6.295   7.105   7.541 -0.4274  1.3609  0.3627
   87MOL   H56048892   6.672   6.793   7.599 -1.6943 -1.8645  0.9555
   87MOL   H56148893   6.836   6.657   7.502 -1.0300 -2.3550  1.0395
   87MOL   H56248894   6.114   7.212   8.031 -1.5496  0.5249  0.4003
   88MOL     C148895   5.775   4.094   5.784  0.4723  0.2722  0.4715
   88MOL     C248896   5.776   4.144   5.931 -0.0467 -0.4320 -1.3739
   88MOL     C348897   5.807   4.282   5.953 -0.2571  0.0311  0.7618
   88MOL     C448898   5.815   4.329   6.084  0.3677  0.0811  0.0189
   88MOL     C548899   5.800   4.239   6.191 -0.1320  0.0624  0.1048
   88MOL     C648900   5.801   4.294   6.332  0.6275  0.1142  0.5582
   88MOL     N748901   5.874   4.229   6.424  0.0666  0.0220 -0.0709
   88MOL     C848902   5.903   4.255   6.559 -0.1102  0.2878 -0.1117
   88MOL     C948903   5.849   4.355   6.639 -0.3520 -0.6455  0.4705
   88MOL    C1048904   5.891   4.363   6.778  0.4807 -0.3981 -0.0571
   88MOL    C1148905   6.000   4.286   6.821 -0.2908  0.5431 -0.0621
   88MOL    N1248906   6.045   4.297   6.954 -0.0611  0.1718 -0.2391
   88MOL    C1348907   6.053   4.183   6.738 -0.4642 -0.0015  0.2236
   88MOL    C1448908   6.002   4.167   6.611  0.0816 -0.1215  0.6235
   88MOL    O1548909   5.742   4.404   6.349 -0.5418 -0.1739 -0.0614
   88MOL    C1648910   5.780   4.104   6.172  0.3810  0.7152  0.1399
   88MOL    C1748911   5.760   4.054   6.042 -0.4071  0.2182  0.5006
   88MOL    O1848912   5.795   4.171   5.692  0.0068 -0.3323  0.0647
   88MOL    H1948913   5.816   4.349   5.869 -0.0941 -0.0471  0.7175
   88MOL    H2048914   5.832   4.434   6.107 -0.8520 -0.0373  1.5063
   88MOL    H2148915   5.919   4.149   6.382 -0.2178  0.6011 -1.5147
   88MOL    H2248916   5.772   4.421   6.603 -0.3025  0.3722  2.1691
   88MOL    H2348917   5.844   4.433   6.845 -1.0793 -2.3560  0.9370
   88MOL    H2448918   5.976   4.299   7.028 -1.3651  0.6727 -1.4269
   88MOL    H2548919   6.126   4.120   6.786 -2.7881 -1.4093  2.0220
   88MOL    H2648920   6.038   4.084   6.553 -1.0685 -0.4303  0.3458
   88MOL    H2748921   5.771   4.029   6.249  1.5119  0.0732 -0.3428
   88MOL    H2848922   5.748   3.948   6.022 -1.6261  0.3800  0.3153
   88MOL    H2948923   5.757   3.988   5.769 -0.4222  0.4211  0.5014
   88MOL    C3048924   6.170   4.324   6.983 -0.2578 -0.2951 -0.2861
   88MOL    C3148925   6.191   4.340   7.127  0.3609 -0.3586 -0.2595
   88MOL    C3248926   6.205   4.230   7.214  0.5627 -0.1222  0.3237
   88MOL    C3348927   6.245   4.249   7.350  0.9264  0.4129  0.4626
   88MOL    C3448928   6.255   4.382   7.403  0.3801  0.0672 -0.7209
   88MOL    C3548929   6.300   4.407   7.544  0.1614  0.1424 -0.1526
   88MOL    N3648930   6.266   4.520   7.609  0.2734 -0.1087  0.8457
   88MOL    C3748931   6.299   4.573   7.738 -0.6504 -0.0477  0.3467
   88MOL    C3848932   6.202   4.637   7.806  0.1522  0.7593  0.8502
   88MOL    C3948933   6.234   4.710   7.926 -0.2142 -0.3714 -0.0704
   88MOL    C4048934   6.366   4.711   7.975  0.7023 -0.3983  0.8228
   88MOL    N4148935   6.404   4.787   8.088 -0.3134 -0.3717 -0.2486
   88MOL    C4248936   6.464   4.637   7.913  0.1382 -0.4074  0.3873
   88MOL    C4348937   6.431   4.573   7.789 -0.3441  0.3332 -0.2011
   88MOL    O4448938   6.347   4.318   7.615 -0.2351 -0.3435 -0.0343
   88MOL    C4548939   6.233   4.491   7.321  0.2596 -0.5993 -0.0212
   88MOL    C4648940   6.198   4.473   7.182 -0.6835  0.1233  0.8821
   88MOL    O4748941   6.253   4.348   6.901 -0.2232 -0.7427 -0.0628
   88MOL    H4848942   6.201   4.128   7.179  0.2958  0.4853 -1.5189
   88MOL    H4948943   6.275   4.166   7.412 -0.6268  0.0299  0.7183
   88MOL    H5048944   6.210   4.583   7.553 -0.8678 -2.4184 -0.6903
   88MOL    H5148945   6.100   4.649   7.771  0.8587 -0.2915 -1.6511
   88MOL    H5248946   6.157   4.772   7.968 -2.5320 -2.2828 -1.3466
   88MOL    H5348947   6.485   4.844   8.069 -2.7201  2.7630 -1.5918
   88MOL    H5448948   6.565   4.637   7.953  0.3147  2.0253  0.0441
   88MOL    H5548949   6.516   4.536   7.733 -0.8449 -0.0222 -0.7283
   88MOL    H5648950   6.255   4.589   7.358 -0.2291 -0.2690 -0.5902
   88MOL    H5748951   6.177   4.558   7.118  0.8224 -0.4043 -0.3713
   88MOL    C5848952   6.338   4.804   0.063  0.3841  0.4371 -0.7638
   88MOL    C5948953   6.420   4.884   0.165 -0.0618  0.0269 -0.3624
   88MOL    C6048954   6.362   4.931   0.281 -0.1943 -0.2273 -0.1372
   88MOL    C6148955   6.427   5.004   0.382 -0.2708  0.4153 -0.2051
   88MOL    C6248956   6.568   5.016   0.365 -0.1006 -0.2643 -0.3028
   88MOL    C6348957   6.646   5.105   0.468 -0.3507 -0.0119 -0.9497
   88MOL    N6448958   6.586   5.146   0.582  0.1071 -0.3100 -0.0505
   88MOL    C6548959   6.636   5.245   0.673 -0.0733  0.0661  0.4560
   88MOL    C6648960   6.719   5.356   0.640  0.4310  0.4210 -0.2206
   88MOL    C6748961   6.761   5.446   0.742  0.1934  0.5075 -0.8119
   88MOL    C6848962   6.740   5.424   0.879 -0.0098 -0.0642 -0.3478
   88MOL    N6948963   6.790   5.511   0.978  0.0743 -0.1576 -0.0219
   88MOL    C7048964   6.663   5.311   0.916 -0.3705  0.7042 -0.1085
   88MOL    C7148965   6.610   5.229   0.812  0.8402 -0.0389 -0.0970
   88MOL    O7248966   6.763   5.129   0.458  0.0158 -0.5995 -0.6134
   88MOL    C7348967   6.630   4.966   0.252 -0.1967  0.5750 -0.1181
   88MOL    C7448968   6.559   4.906   0.145 -0.0144 -0.0022  0.0472
   88MOL    O7548969   6.227   4.759   0.087 -0.1124  0.2088 -0.5362
   88MOL    H7648970   6.260   4.898   0.297  0.2024  0.1888  3.6711
   88MOL    H7748971   6.364   5.035   0.463 -0.9075 -0.4389 -0.3638
   88MOL    H7848972   6.499   5.103   0.610 -0.1638 -0.4561 -1.0952
   88MOL    H7948973   6.744   5.381   0.537  1.6020  0.2869  0.0259
   88MOL    H8048974   6.823   5.525   0.703 -1.0232  1.4941 -0.7564
   88MOL    H8148975   6.783   5.496   1.078  1.0143  1.5009  0.3259
   88MOL    H8248976   6.646   5.291   1.021  0.3497  2.5316  0.3789
   88MOL    H8348977   6.543   5.157   0.858 -1.6500  2.8517  1.0104
   88MOL    H8448978   6.733   4.990   0.229 -0.6523  2.5850 -0.1685
   88MOL    H8548979   6.607   4.880   0.052  0.8811 -0.3666  0.6088
   88MOL    C8648980   6.857   5.626   0.968  0.2189 -0.3144  0.5833
   88MOL    C8748981   6.904   5.684   1.099 -0.0036 -0.2077 -0.0753
   88MOL    C8848982   6.955   5.815   1.104  0.1350  0.2327 -1.0617
   88MOL    C8948983   6.995   5.876   1.223 -0.3149 -0.0832  1.2518
   88MOL    C9048984   6.983   5.809   1.344  0.1160 -0.4254  0.1782
   88MOL    C9148985   7.018   5.882   1.474 -0.4153  0.4214  0.1217
   88MOL    N9248986   6.984   6.011   1.472 -0.9295  0.4933 -0.2669
   88MOL    C9348987   7.043   6.124   1.534  0.3669  0.1545 -0.3876
   88MOL    C9448988   6.985   6.243   1.495 -0.1630 -0.2927  0.0646
   88MOL    C9548989   7.024   6.360   1.551 -0.2873 -0.2190  0.1182
   88MOL    C9648990   7.128   6.366   1.646  0.5599 -0.6291 -0.0800
   88MOL    N9748991   7.168   6.498   1.695  0.0237  0.2712 -0.1156
   88MOL    C9848992   7.191   6.246   1.686 -0.6163  0.2357  0.3348
   88MOL    C9948993   7.148   6.125   1.628 -0.1848 -0.2040  0.0541
   88MOL   O10048994   7.058   5.830   1.576  0.0893 -0.3802  0.0396
   88MOL   C10148995   6.934   5.676   1.347  0.3410 -0.1449  0.2964
   88MOL   C10248996   6.917   5.613   1.221  0.2768  0.6234 -0.5187
   88MOL   O10348997   6.887   5.684   0.861  0.3105  0.2809 -0.2598
   88MOL   H10448998   6.954   5.879   1.017  0.5615  1.3173 -0.2875
   88MOL   H10548999   7.030   5.978   1.215  0.9686 -0.6560 -0.9048
   88MOL   H10649000   6.918   6.030   1.397 -1.1570 -1.0002 -0.4578
   88MOL   H10749001   6.917   6.252   1.411 -0.3327  1.2202  0.3438
   88MOL   H10849002   6.983   6.452   1.512 -3.2686 -1.8623 -0.7824
   88MOL   H10949003   7.094   6.566   1.701 -0.2336 -0.0954  1.1033
   88MOL   H11049004   7.276   6.240   1.753 -0.9289  1.7513  0.8894
   88MOL   H11149005   7.191   6.029   1.653 -0.8507 -0.3959  0.4675
   88MOL   H11249006   6.936   5.620   1.439  1.2277  0.3593  0.5849
   88MOL   H11349007   6.894   5.508   1.217 -4.1203  1.4470  0.4799
   88MOL   C11449008   7.292   6.539   1.729 -0.1212  0.6362  0.7470
   88MOL   C11549009   7.308   6.685   1.737 -1.0949 -0.5583  1.0600
   88MOL   C11649010   7.216   6.775   1.682  0.1609  0.0084 -0.6412
   88MOL   C11749011   7.237   6.912   1.699  0.4465  0.4949 -0.4880
   88MOL   C11849012   7.351   6.962   1.765 -0.2584  0.1892 -0.2492
   88MOL   C11949013   7.387   7.110   1.757  0.0782  1.3261  0.1946
   88MOL   N12049014   7.456   7.144   1.648 -0.3499  0.0287  0.0624
   88MOL   C12149015   7.472   7.062   1.530  0.2742 -0.3101 -0.0316
   88MOL   C12249016   7.588   6.989   1.512 -0.0425  0.1991 -0.3759
   88MOL   C12349017   7.600   6.899   1.402 -1.0822 -0.1026 -0.3256
   88MOL   C12449018   7.509   6.905   1.298  0.1522 -0.0253  0.0881
   88MOL   N12549019   7.525   6.816   1.193 -0.3996 -0.3877 -0.5808
   88MOL   C12649020   7.400   6.992   1.312 -0.1144 -0.3364 -0.5467
   88MOL   C12749021   7.376   7.060   1.429  0.7926 -0.9711 -0.3718
   88MOL   O12849022   7.353   7.189   1.846  0.3592  0.4492 -0.9456
   88MOL   C12949023   7.440   6.871   1.828 -0.0650 -0.0020  0.2379
   88MOL   C13049024   7.421   6.733   1.807  0.0289  0.0287 -0.2393
   88MOL   O13149025   7.382   6.464   1.769 -0.0655  0.3236  0.1840
   88MOL   H13249026   7.132   6.737   1.627  0.6506 -3.4968  0.8538
   88MOL   H13349027   7.165   6.983   1.660 -0.8101 -1.7786 -2.5093
   88MOL   H13449028   7.486   7.239   1.635  0.8739 -0.4089 -0.4936
   88MOL   H13549029   7.667   7.005   1.584  0.2209  3.5118 -1.3195
   88MOL   H13649030   7.695   6.848   1.400 -0.3830  1.1849 -1.2225
   88MOL   H13749031   7.585   6.736   1.204  0.7327  0.6097  0.7983
   88MOL   H13849032   7.323   6.995   1.235  0.1091  0.5087 -0.7405
   88MOL   H13949033   7.292   7.127   1.441  0.6016 -1.3575  0.5527
   88MOL   H14049034   7.518   6.906   1.893 -0.2289 -0.2751  0.5818
   88MOL   H14149035   7.495   6.665   1.844 -1.0310  0.6872  3.2320
   88MOL   C14249036   7.460   6.806   1.076  0.6148  0.3030 -0.3026
   88MOL   C14349037   7.468   6.677   0.989 -0.2396 -0.1415 -0.0367
   88MOL   C14449038   7.514   6.688   0.860  0.0280  0.0389  0.6215
   88MOL   C14549039   7.505   6.581   0.771  0.7333  0.5983  0.1612
   88MOL   C14649040   7.469   6.451   0.819  0.0656 -0.2365 -0.4487
   88MOL   C14749041   7.479   6.331   0.730 -0.3855 -0.8351 -0.0332
   88MOL   N14849042   7.525   6.218   0.780 -0.0593  0.7257  0.0403
   88MOL   C14949043   7.518   6.096   0.706  0.6336 -0.1415 -0.4991
   88MOL   C15049044   7.436   5.995   0.752 -0.1931 -0.4587 -0.1402
   88MOL   C15149045   7.445   5.874   0.682 -0.0259 -0.2071 -0.5043
   88MOL   C15249046   7.514   5.853   0.561 -0.7269 -0.0235  0.1601
   88MOL   N15349047   7.508   5.734   0.477 -0.3737  0.4029 -0.3205
   88MOL   C15449048   7.589   5.960   0.515  0.7059 -0.2008 -0.2165
   88MOL   C15549049   7.596   6.076   0.590  0.1706  0.1536  0.0138
   88MOL   O15649050   7.458   6.334   0.608  0.0579 -0.0787 -0.4846
   88MOL   C15749051   7.424   6.435   0.954  0.3674 -0.7102  0.2750
   88MOL   C15849052   7.426   6.550   1.043  0.3563 -0.1579  0.2711
   88MOL   O15949053   7.405   6.899   1.022  0.1842 -0.3990  0.2808
   88MOL   H16049054   7.561   6.780   0.830  0.6993 -0.3657  0.4194
   88MOL   H16149055   7.549   6.587   0.673 -0.4168 -0.5012 -0.4347
   88MOL   H16249056   7.541   6.205   0.879  1.3162 -2.5263 -0.5358
   88MOL   H16349057   7.375   6.011   0.840 -0.1694  2.2725 -0.5616
   88MOL   H16449058   7.376   5.802   0.723  0.4219  0.0588  0.7203
   88MOL   H16549059   7.533   5.728   0.380 -0.0658 -3.7423 -0.0849
   88MOL   H16649060   7.637   5.968   0.419 -0.3912 -0.0297 -0.7551
   88MOL   H16749061   7.649   6.162   0.554  0.4954  0.7827  1.9204
   88MOL   H16849062   7.393   6.338   0.991  1.8122 -1.0207  0.6927
   88MOL   H16949063   7.383   6.543   1.141 -2.2390 -0.8735 -0.8574
   88MOL   C17049064   7.477   5.611   0.522  0.6020 -0.2965 -0.3939
   88MOL   C17149065   7.466   5.502   0.426  0.1937  0.7530  0.3615
   88MOL   C17249066   7.501   5.367   0.452  0.4440  0.1657  0.7130
   88MOL   C17349067   7.459   5.255   0.370 -0.2373  0.0488  0.2863
   88MOL   C17449068   7.402   5.285   0.245  0.4346 -0.4243 -0.6777
   88MOL   C17549069   7.357   5.173   0.153  0.3683  0.7550 -0.1016
   88MOL   N17649070   7.287   5.071   0.199  0.0219 -0.3322  0.1962
   88MOL   C17749071   7.214   4.978   0.120 -0.0739 -0.5313  0.2829
   88MOL   C17849072   7.276   4.914   0.007  0.3137 -0.2732 -0.2128
   88MOL   C17949073   7.196   4.822   8.088 -0.0315 -0.2108 -0.1021
   88MOL   C18049074   7.066   4.792   8.115 -0.0126 -0.2425  0.1885
   88MOL   N18149075   6.993   4.720   8.017  0.4073 -0.5596 -0.4246
   88MOL   C18249076   7.012   4.846   0.092  0.4647 -0.5349  0.0930
   88MOL   C18349077   7.089   4.937   0.165  0.0841 -0.2668  0.1889
   88MOL   O18449078   7.374   5.189   0.031 -0.4781 -0.3044 -0.4943
   88MOL   C18549079   7.373   5.419   0.222  0.0766 -0.9170 -0.0437
   88MOL   C18649080   7.399   5.527   0.304 -0.0853 -0.0191  0.6825
   88MOL   O18749081   7.466   5.582   0.641  0.2815 -0.6401 -0.2801
   88MOL   H18849082   7.542   5.346   0.550  0.4740  0.2336  0.7147
   88MOL   H18949083   7.478   5.150   0.387 -2.2545 -0.7881 -2.1942
   88MOL   H19049084   7.261   5.078   0.296 -0.2073  0.4342  0.0820
   88MOL   H19149085   7.371   4.948   8.115 -0.4667  2.1596 -0.0747
   88MOL   H19249086   7.237   4.776   7.998 -0.5088 -1.8517  0.5014
   88MOL   H19349087   7.047   4.697   7.935  0.2980 -1.9717 -0.1226
   88MOL   H19449088   6.912   4.828   0.127  1.2609  1.6102  3.7618
   88MOL   H19549089   7.048   4.978   0.256  0.1713  0.7581 -0.2224
   88MOL   H19649090   7.326   5.432   0.126  0.1698  1.7724  0.2459
   88MOL   H19749091   7.375   5.629   0.278 -0.0225 -0.4829 -1.2644
   88MOL   C19849092   6.873   4.653   8.019 -0.4823  0.2002 -0.3627
   88MOL   C19949093   6.823   4.579   7.900  0.2686  0.2358 -0.4732
   88MOL   C20049094   6.748   4.463   7.908  0.4162  0.2183 -0.1973
   88MOL   C20149095   6.715   4.384   7.794  0.0619  0.2824 -0.3059
   88MOL   C20249096   6.768   4.424   7.665  0.4481 -0.1854  0.0331
   88MOL   C20349097   6.754   4.337   7.546 -0.3048  0.2421  0.0473
   88MOL   N20449098   6.713   4.212   7.573  0.4532 -0.3951 -0.1750
   88MOL   C20549099   6.672   4.119   7.470  0.1346 -0.3764  0.2001
   88MOL   C20649100   6.558   4.142   7.393  0.1154 -0.3311  0.1523
   88MOL   C20749101   6.523   4.047   7.296  0.3765  0.5227  0.7002
   88MOL   C20849102   6.591   3.922   7.286  0.6013  0.1957  0.3842
   88MOL   N20949103   6.561   3.830   7.187 -0.9267  0.2745 -0.1206
   88MOL   C21049104   6.703   3.902   7.368 -0.3513  0.1773 -0.4778
   88MOL   C21149105   6.736   3.992   7.464 -0.2043  0.4387  0.9632
   88MOL   O21249106   6.788   4.381   7.433  0.2135 -0.2238  0.0717
   88MOL   C21349107   6.839   4.545   7.661 -0.3610 -0.4588  0.2649
   88MOL   C21449108   6.870   4.624   7.776  0.2932  0.9132  0.3479
   88MOL   O21549109   6.802   4.653   8.126  0.0878 -0.4489 -0.2358
   88MOL   H21649110   6.723   4.424   8.006  0.1874  0.0008 -0.3416
   88MOL   H21749111   6.656   4.294   7.795  1.9633 -0.9825  0.4404
   88MOL   H21849112   6.682   4.196   7.668  0.8520 -0.0385  0.0166
   88MOL   H21949113   6.500   4.232   7.404 -0.4045 -0.7603  0.9834
   88MOL   H22049114   6.440   4.066   7.230 -0.7171 -0.7002  1.6895
   88MOL   H22149115   6.622   3.750   7.179  1.5542  2.1647 -0.6840
   88MOL   H22249116   6.765   3.814   7.365 -0.9983 -0.2586 -0.8283
   88MOL   H22349117   6.814   3.967   7.534 -0.8723 -1.6186  1.0054
   88MOL   H22449118   6.872   4.579   7.564  2.9995 -2.5341  0.5951
   88MOL   H22549119   6.911   4.721   7.751 -1.7024  2.5647  3.3037
   88MOL   C22649120   6.466   3.828   7.085 -0.1494  0.1141 -0.2077
   88MOL   C22749121   6.494   3.726   6.972 -0.1208  0.2736  0.4036
   88MOL   C22849122   6.389   3.694   6.886 -0.0534 -0.6508 -0.7958
   88MOL   C22949123   6.406   3.624   6.768  0.3705 -0.2906 -0.5233
   88MOL   C23049124   6.537   3.588   6.731 -0.4236 -0.4470  0.2742
   88MOL   C23149125   6.565   3.518   6.600  0.4133 -0.1818  0.0725
   88MOL   N23249126   6.506   3.576   6.495 -0.6242  0.2823 -0.0525
   88MOL   C23349127   6.500   3.538   6.361 -0.3485 -0.6482  0.0610
   88MOL   C23449128   6.394   3.586   6.276 -0.4543 -0.1761  0.0118
   88MOL   C23549129   6.401   3.559   6.141 -0.1898  0.5276  0.1214
   88MOL   C23649130   6.502   3.486   6.077  0.1097 -0.2320  0.2093
   88MOL   N23749131   6.510   3.464   5.936  0.4486 -0.4469  1.1960
   88MOL   C23849132   6.607   3.436   6.162 -0.0329  0.1725 -0.3807
   88MOL   C23949133   6.603   3.453   6.299  0.3254  0.5005 -0.9583
   88MOL   O24049134   6.644   3.425   6.596 -0.1050 -0.1153 -0.0285
   88MOL   C24149135   6.645   3.611   6.822  0.2786  0.5680 -0.4302
   88MOL   C24249136   6.626   3.679   6.945  0.4505  0.3293  0.9217
   88MOL   O24349137   6.363   3.897   7.088  0.0986 -0.3163 -0.0745
   88MOL   H24449138   6.297   3.748   6.904  0.4446  0.3301 -1.1085
   88MOL   H24549139   6.323   3.604   6.703 -1.0249  0.7252  0.9055
   88MOL   H24649140   6.454   3.655   6.529 -0.5177 -0.0810  0.9946
   88MOL   H24749141   6.322   3.653   6.321  0.7969 -0.0832  1.9262
   88MOL   H24849142   6.321   3.610   6.089 -0.2245  0.5427  0.1902
   88MOL   H24949143   6.598   3.427   5.903  0.8135  2.4922 -1.3618
   88MOL   H25049144   6.687   3.374   6.125  0.4816  1.0652 -0.7637
   88MOL   H25149145   6.677   3.413   6.367  1.0130  0.4862 -1.7072
   88MOL   H25249146   6.741   3.571   6.795  0.0148  0.7207 -1.6367
   88MOL   H25349147   6.701   3.689   7.022  0.2049  1.5315  1.0249
   88MOL   C25449148   6.419   3.494   5.845  0.4479 -0.6838 -0.1363
   88MOL   C25549149   6.470   3.510   5.703 -0.5317  0.7049  0.6092
   88MOL   C25649150   6.457   3.633   5.637 -0.1109 -0.3572 -0.5987
   88MOL   C25749151   6.526   3.655   5.514  0.1410 -0.6042  1.3672
   88MOL   C25849152   6.588   3.545   5.454  0.1572 -0.1456  0.2284
   88MOL   C25949153   6.659   3.556   5.323 -0.5279  0.1846  0.4539
   88MOL   N26049154   6.736   3.668   5.318  0.1505 -0.2653 -0.2710
   88MOL   C26149155   6.824   3.710   5.214 -0.0334 -0.0126  0.2426
   88MOL   C26249156   6.866   3.627   5.107  0.1304  0.0584  0.1306
   88MOL   C26349157   6.943   3.685   5.004 -0.0509  0.4922 -0.4033
   88MOL   C26449158   6.988   3.816   5.009 -0.2187 -0.1020 -0.5648
   88MOL   N26549159   7.075   3.875   4.917 -0.8108 -0.2949  0.4513
   88MOL   C26649160   6.961   3.890   5.129 -0.2708 -0.1932 -0.1138
   88MOL   C26749161   6.876   3.840   5.227  0.1078  0.1102 -0.0029
   88MOL   O26849162   6.640   3.481   5.226  0.4138  0.1455 -0.0743
   88MOL   C26949163   6.587   3.418   5.513  0.0744 -0.4469  0.0449
   88MOL   C27049164   6.535   3.396   5.644 -0.1126  0.6487 -0.0958
   88MOL   O27149165   6.301   3.520   5.867  0.1448 -0.1082 -0.8450
   88MOL   H27249166   6.413   3.713   5.694  0.3619  0.0043 -0.7460
   88MOL   H27349167   6.522   3.757   5.479  0.4154 -0.4711  1.7244
   88MOL   H27449168   6.733   3.711   5.409  2.9035  0.8825 -0.6956
   88MOL   H27549169   6.838   3.524   5.090 -0.3462 -0.3832  3.2171
   88MOL   H27649170   6.963   3.620   4.919 -0.5402 -0.6008  0.3054
   88MOL   H27749171   7.130   3.956   4.943 -1.8203  0.6613 -0.3222
   88MOL   H27849172   7.006   3.986   5.148 -0.9856  0.2854 -0.8026
   88MOL   H27949173   6.849   3.896   5.315  1.4533 -1.9931  1.8223
   88MOL   H28049174   6.629   3.331   5.466  0.3587  0.0062 -0.5480
   88MOL   H28149175   6.530   3.294   5.680 -0.9194  0.0346 -1.8869
   88MOL   C28249176   7.103   3.848   4.793  0.5672 -0.0652  0.3023
   88MOL   C28349177   7.174   3.950   4.714  0.4952  0.0988 -0.6701
   88MOL   C28449178   7.158   4.090   4.742  0.6719 -0.0113 -0.6868
   88MOL   C28549179   7.241   4.184   4.676 -0.0743 -1.0145 -0.1944
   88MOL   C28649180   7.330   4.144   4.570 -0.2364  0.1341 -0.3857
   88MOL   C28749181   7.409   4.238   4.488 -0.4144 -0.0915 -0.0632
   88MOL   N28849182   7.366   4.365   4.489 -1.0156  0.4769  0.5041
   88MOL   C28949183   7.428   4.481   4.441 -0.2434  1.0625  0.3894
   88MOL   C29049184   7.566   4.488   4.410 -0.5822  0.2018 -0.4735
   88MOL   C29149185   7.622   4.610   4.370 -0.4720 -0.1857 -0.3350
   88MOL   C29249186   7.542   4.725   4.360  0.3424  0.0890  0.0033
   88MOL   N29349187   7.593   4.846   4.298 -0.2190 -0.1350 -0.6570
   88MOL   C29449188   7.401   4.718   4.381 -0.3526 -0.0047 -0.6349
   88MOL   C29549189   7.349   4.591   4.422 -0.4539 -0.6283 -0.6806
   88MOL   O29649190   7.500   4.197   4.424  0.3415  0.1541 -0.1200
   88MOL   C29749191   7.344   4.007   4.550 -0.0820  0.0449  0.0419
   88MOL   C29849192   7.267   3.910   4.621 -0.1644 -0.5847  0.5319
   88MOL   O29949193   7.061   3.752   4.731 -0.9134  0.5607 -0.2873
   88MOL   H30049194   7.090   4.124   4.819 -0.5315 -1.3351 -1.1290
   88MOL   H30149195   7.226   4.291   4.681  0.6338 -0.8294 -1.8670
   88MOL   H30249196   7.268   4.365   4.511 -0.5686  0.4710  2.5757
   88MOL   H30349197   7.634   4.406   4.427  0.6402  1.6735  1.9397
   88MOL   H30449198   7.729   4.608   4.359 -0.4938  1.3161 -1.0390
   88MOL   H30549199   7.626   4.832   4.204  3.0016  0.8983  0.2457
   88MOL   H30649200   7.333   4.798   4.358  0.3062  1.1115  1.1717
   88MOL   H30749201   7.243   4.583   4.440 -0.3857 -0.4897 -0.1958
   88MOL   H30849202   7.418   3.971   4.480  0.6239  0.1290  0.7352
   88MOL   H30949203   7.293   3.806   4.605 -1.0605 -0.4416 -2.0426
   88MOL   C31049204   7.597   4.962   4.359  0.1117  0.0621 -0.5827
   88MOL   C31149205   7.656   5.071   4.272  0.3946 -1.1843  0.2832
   88MOL   C31249206   7.674   5.049   4.130  0.1796 -0.4802 -0.0047
   88MOL   C31349207   7.732   5.150   4.050  0.2913 -0.1607 -0.6280
   88MOL   C31449208   7.760   5.281   4.105  0.8524 -0.1948 -0.3935
   88MOL   C31549209   7.802   5.383   4.007 -0.0640 -0.4674 -0.1091
   88MOL   N31649210   7.716   5.492   3.986 -0.7021 -0.0948  0.1355
   88MOL   C31749211   7.718   5.600   3.893  0.0461  0.0233  0.3602
   88MOL   C31849212   7.598   5.677   3.874 -0.3677  0.3112 -0.6129
   88MOL   C31949213   7.591   5.771   3.770  0.3259 -0.0888  0.8109
   88MOL   C32049214   7.699   5.782   3.683  0.6498  0.1888 -0.2446
   88MOL   N32149215   7.679   5.863   3.567 -0.1354  0.1459  0.0258
   88MOL   C32249216   7.819   5.717   3.705  0.1427 -0.2050 -0.3994
   88MOL   C32349217   7.828   5.634   3.818  0.3864 -0.0696  0.6358
   88MOL   O32449218   7.911   5.363   3.954  0.0305 -0.1243 -0.0161
   88MOL   C32549219   7.743   5.305   4.245  0.8204 -0.7074  0.1752
   88MOL   C32649220   7.696   5.197   4.329  0.5462  0.7464 -0.3641
   88MOL   O32749221   7.558   4.996   4.475  0.7441 -0.0483 -0.5120
   88MOL   H32849222   7.640   4.956   4.085  0.4635 -2.2945  3.3591
   88MOL   H32949223   7.745   5.136   3.943 -0.2760 -0.1940 -0.6965
   88MOL   H33049224   7.638   5.494   4.050  0.7318 -1.1710  1.9596
   88MOL   H33149225   7.513   5.664   3.940 -0.9186 -2.0286 -1.7263
   88MOL   H33249226   7.503   5.832   3.757  0.3974  0.4161  2.5199
   88MOL   H33349227   7.699   5.961   3.576 -1.1444  0.3674 -0.0247
   88MOL   H33449228   7.905   5.719   3.639  0.1942  1.5637 -0.2827
   88MOL   H33549229   7.920   5.588   3.853 -0.5168 -0.7839  2.1170
   88MOL   H33649230   7.750   5.401   4.294 -1.0900 -0.1813 -0.5231
   88MOL   H33749231   7.682   5.213   4.435 -1.6811 -2.5053 -0.0881
   88MOL   C33849232   7.697   5.816   3.444  0.8264 -0.1110 -0.3295
   88MOL   C33949233   7.672   5.672   3.414 -0.6787  0.7217 -0.0004
   88MOL   C34049234   7.782   5.590   3.380  0.3142  0.4070  0.3068
   88MOL   C34149235   7.767   5.447   3.379 -0.0512 -0.1056  0.3727
   88MOL   C34249236   7.654   5.389   3.423  0.3502  0.4717  0.2187
   88MOL   C34349237   7.634   5.245   3.431  0.1856  0.1196 -0.2829
   88MOL   N34449238   7.648   5.208   3.558  0.0313  0.2065  0.0453
   88MOL   C34549239   7.616   5.075   3.617  0.3581 -0.5521  0.4000
   88MOL   C34649240   7.651   4.948   3.550  0.5113  0.0427 -0.5157
   88MOL   C34749241   7.602   4.828   3.607  0.3376  0.5848 -0.0115
   88MOL   C34849242   7.564   4.822   3.742  0.4363 -0.2940 -0.1405
   88MOL   N34949243   7.537   4.695   3.797 -0.0859  0.7210 -0.4101
   88MOL   C35049244   7.542   4.940   3.814  0.2731 -0.4698  0.2707
   88MOL   C35149245   7.561   5.068   3.747  0.6086  0.2309  0.6713
   88MOL   O35249246   7.625   5.168   3.339 -0.9306  0.1882 -0.1641
   88MOL   C35349247   7.544   5.477   3.460  0.5058  0.0415 -0.3554
   88MOL   C35449248   7.549   5.619   3.453 -0.2132  0.3585  0.0593
   88MOL   O35549249   7.735   5.882   3.351  0.0004 -0.0571 -0.5664
   88MOL   H35649250   7.875   5.640   3.359 -1.0138  3.1575  0.6913
   88MOL   H35749251   7.852   5.387   3.350 -0.8463  0.3438 -3.2293
   88MOL   H35849252   7.650   5.286   3.623  0.3088 -1.0590  1.5935
   88MOL   H35949253   7.714   4.947   3.462  1.4698  1.0559  0.1342
   88MOL   H36049254   7.623   4.733   3.560 -2.3725 -0.5621  1.0450
   88MOL   H36149255   7.495   4.630   3.732  2.0383  1.4179 -2.5505
   88MOL   H36249256   7.492   4.937   3.909  0.1793  0.8080  0.2600
   88MOL   H36349257   7.537   5.159   3.801 -1.7945 -1.7277  3.0485
   88MOL   H36449258   7.457   5.428   3.500  0.4801  0.7457  0.4686
   88MOL   H36549259   7.471   5.682   3.493 -0.6468 -0.6831  0.8736
   88MOL   C36649260   7.568   4.656   3.921  0.4605  0.2050  0.2889
   88MOL   C36749261   7.543   4.509   3.945 -0.5967  0.6389 -0.1350
   88MOL   C36849262   7.474   4.473   4.063  0.1625 -0.2108  0.1825
   88MOL   C36949263   7.430   4.338   4.087 -0.1642  0.1269 -0.8270
   88MOL   C37049264   7.481   4.236   3.996  0.7284 -0.6299  0.9423
   88MOL   C37149265   7.452   4.090   4.022 -0.3841  0.8809  0.7241
   88MOL   N37249266   7.392   4.056   4.135  0.2295 -0.1107 -0.5368
   88MOL   C37349267   7.372   3.924   4.180 -0.6819  0.3205 -0.1492
   88MOL   C37449268   7.458   3.815   4.169 -0.5140 -0.1813 -0.8886
   88MOL   C37549269   7.439   3.700   4.250  0.1902 -0.6447 -1.2461
   88MOL   C37649270   7.324   3.695   4.326  0.3727  0.0967  0.2391
   88MOL   N37749271   7.296   3.590   4.416 -0.1579 -0.3591  0.1992
   88MOL   C37849272   7.225   3.796   4.314  0.6521 -0.0751 -0.3210
   88MOL   C37949273   7.244   3.913   4.241 -0.3795  0.5068  0.8023
   88MOL   O38049274   7.498   4.006   3.941 -0.4902  0.3318 -0.2760
   88MOL   C38149275   7.559   4.270   3.886  0.2404 -0.1444 -0.7720
   88MOL   C38249276   7.585   4.406   3.857  0.3541 -0.4883 -0.6919
   88MOL   O38349277   7.617   4.720   4.016 -0.7249 -0.0827 -0.1199
   88MOL   H38449278   7.440   4.551   4.129 -1.6534  1.3862 -2.5621
   88MOL   H38549279   7.366   4.327   4.173  1.1002 -1.2396 -0.0240
   88MOL   H38649280   7.348   4.131   4.186  0.2456 -0.0621 -0.5940
   88MOL   H38749281   7.550   3.823   4.113 -1.1543  2.7446 -1.5823
   88MOL   H38849282   7.509   3.618   4.256 -0.6922 -1.2049  4.1001
   88MOL   H38949283   7.209   3.590   4.468 -0.7354 -1.2241 -0.7501
   88MOL   H39049284   7.127   3.793   4.358  0.4044  1.6877 -0.7390
   88MOL   H39149285   7.177   3.997   4.240  0.1097  0.8870 -0.3055
   88MOL   H39249286   7.594   4.188   3.826  2.3414 -0.7735  1.2557
   88MOL   H39349287   7.639   4.434   3.768  0.6928 -0.7373 -0.5673
   88MOL   C39449288   7.339   3.463   4.426 -0.3731  0.0978 -0.2957
   88MOL   C39549289   7.287   3.376   4.542 -0.1572  0.1192 -0.0980
   88MOL   C39649290   7.225   3.443   4.645  0.2449 -0.6734 -0.1903
   88MOL   C39749291   7.165   3.372   4.752  0.0253 -0.8573 -0.6954
   88MOL   C39849292   7.185   3.229   4.764 -0.5794  0.1932 -0.2652
   88MOL   C39949293   7.125   3.151   4.882  0.9371  0.1168 -0.3254
   88MOL   N40049294   7.190   3.045   4.932 -0.0024 -0.5517 -0.4699
   88MOL   C40149295   7.139   2.975   5.049  0.5253  0.0472  0.0923
   88MOL   C40249296   7.066   3.024   5.159 -0.0143 -0.2877 -0.4592
   88MOL   C40349297   7.009   2.944   5.257  0.0319 -0.4104 -0.3799
   88MOL   C40449298   7.022   2.803   5.256 -0.4079 -0.3039 -0.4492
   88MOL   N40549299   6.939   2.715   5.334  0.8894 -1.0249 -0.0022
   88MOL   C40649300   7.107   2.752   5.154 -1.1155 -0.1506 -0.5046
   88MOL   C40749301   7.162   2.833   5.056  0.0702  0.4798  0.2011
   88MOL   O40849302   7.017   3.187   4.928  0.6428  0.9176  0.1274
   88MOL   C40949303   7.248   3.164   4.654 -0.4105  0.8550  0.0645
   88MOL   C41049304   7.294   3.233   4.539 -0.0163  1.1574 -0.0623
   88MOL   O41149305   7.426   3.417   4.354  0.2106  0.2587 -0.4110
   88MOL   H41249306   7.206   3.549   4.642  0.9859 -0.4780  1.1780
   88MOL   H41349307   7.105   3.418   4.829  0.7161  0.4982 -0.9598
   88MOL   H41449308   7.283   3.031   4.897 -0.0712  0.5956 -1.1167
   88MOL   H41549309   7.044   3.130   5.171 -0.0611 -0.2706 -0.7013
   88MOL   H41649310   6.957   2.994   5.337  1.4917 -1.6255  1.3656
   88MOL   H41749311   6.867   2.670   5.280 -0.7188  1.8504 -0.3770
   88MOL   H41849312   7.128   2.647   5.143  2.8051  0.4420  0.7141
   88MOL   H41949313   7.224   2.788   4.980  0.4814 -0.2576  0.9618
   88MOL   H42049314   7.249   3.056   4.658 -0.2721  0.7639 -1.9312
   88MOL   H42149315   7.339   3.171   4.464  0.8689  1.5087  0.1675
   88MOL   C42249316   6.926   2.700   5.467  0.2460  0.3874  0.2953
   88MOL   C42349317   7.031   2.747   5.567  0.0213 -0.1646 -0.3666
   88MOL   C42449318   7.168   2.765   5.539 -0.2088  0.1574 -0.2000
   88MOL   C42549319   7.250   2.820   5.640  0.5569  0.0954 -0.3570
   88MOL   C42649320   7.198   2.845   5.769 -0.8901  0.6257  0.7071
   88MOL   C42749321   7.285   2.875   5.886  0.6526 -0.1312 -0.3439
   88MOL   N42849322   7.413   2.866   5.865  0.4772  0.3327 -0.6167
   88MOL   C42949323   7.522   2.892   5.959 -0.2214 -0.3513 -0.1768
   88MOL   C43049324   7.650   2.927   5.909  0.3322  0.4499  0.5267
   88MOL   C43149325   7.758   2.969   5.985  0.1651 -0.6146 -1.5708
   88MOL   C43249326   7.740   2.965   6.127  0.0665  0.3714  0.2173
   88MOL   N43349327   7.842   3.029   6.199 -0.8462 -0.2471 -0.1059
   88MOL   C43449328   7.618   2.911   6.182  0.2270  0.1015  0.5040
   88MOL   C43549329   7.512   2.873   6.099 -0.1390  0.3516 -0.0179
   88MOL   O43649330   7.235   2.911   5.991  0.1714 -0.0175 -0.5796
   88MOL   C43749331   7.065   2.823   5.797 -0.5126  0.3655  0.4105
   88MOL   C43849332   6.982   2.763   5.699  0.5572  0.5766 -0.4631
   88MOL   O43949333   6.827   2.649   5.503 -0.5125  0.7715 -0.5415
   88MOL   H44049334   7.211   2.748   5.441  0.7891 -0.1548  0.2804
   88MOL   H44149335   7.354   2.822   5.610  0.1188 -0.2135 -1.9414
   88MOL   H44249336   7.437   2.863   5.767 -0.4306  0.5579 -0.8441
   88MOL   H44349337   7.651   2.939   5.802 -1.4288 -0.7011  0.3538
   88MOL   H44449338   7.852   2.996   5.941  0.0163 -2.1804 -2.9136
   88MOL   H44549339   7.923   3.051   6.142 -2.3632  1.2415 -1.7389
   88MOL   H44649340   7.606   2.918   6.289  1.1684  1.3821  0.5377
   88MOL   H44749341   7.412   2.846   6.129  0.2732 -0.8957  0.2732
   88MOL   H44849342   7.032   2.859   5.893 -0.4230  0.6379  0.3402
   88MOL   H44949343   6.875   2.751   5.714  0.5663  0.9378 -0.1142
   88MOL   C45049344   7.849   3.063   6.333 -0.4024 -0.0824  0.4268
   88MOL   C45149345   7.955   3.163   6.370 -0.4203 -0.2772 -0.2625
   88MOL   C45249346   8.029   3.239   6.278 -0.1933 -0.3562  0.0086
   88MOL   C45349347   8.118   3.337   6.319 -0.6172 -0.4645  0.4293
   88MOL   C45449348   0.004   3.357   6.453 -0.5227 -0.2226  0.2472
   88MOL   C45549349   0.091   3.467   6.503 -0.1494 -0.4945 -0.2778
   88MOL   N45649350   0.167   3.523   6.410 -0.6575  0.7772 -0.1151
   88MOL   C45749351   0.269   3.626   6.421  0.3993 -0.3730  0.0458
   88MOL   C45849352   0.264   3.734   6.514 -0.0456  0.8439 -0.1247
   88MOL   C45949353   0.362   3.833   6.517 -0.8741 -0.3264 -0.3487
   88MOL   C46049354   0.462   3.842   6.414  0.4276 -0.3527  0.2866
   88MOL   N46149355   0.554   3.946   6.423 -0.7867 -0.4088  0.0838
   88MOL   C46249356   0.464   3.743   6.310  0.5426 -0.2605 -0.2762
   88MOL   C46349357   0.366   3.637   6.322 -0.2987  0.3489 -0.5530
   88MOL   O46449358   0.096   3.501   6.626 -0.4823  0.1468  0.0081
   88MOL   C46549359   8.085   3.269   6.543 -0.3645 -0.8644  0.8401
   88MOL   C46649360   7.990   3.173   6.505  0.9623  0.8556 -0.4600
   88MOL   O46749361   7.783   3.014   6.428  0.9827 -0.4499  0.3458
   88MOL   H46849362   8.008   3.238   6.172 -2.7447  0.0724  0.4813
   88MOL   H46949363   0.010   3.405   6.244  0.4309  1.2350  2.4397
   88MOL   H47049364   0.148   3.485   6.318  0.9220  1.6974 -0.8324
   88MOL   H47149365   0.181   3.740   6.584 -0.2208  2.3211 -0.4395
   88MOL   H47249366   0.352   3.911   6.590  0.8683 -1.2538  0.9131
   88MOL   H47349367   0.519   4.033   6.462  0.2456 -0.1153  0.3881
   88MOL   H47449368   0.539   3.732   6.233  0.4581  0.1067 -0.4086
   88MOL   H47549369   0.366   3.563   6.243  0.6482  0.2805 -0.5000
   88MOL   H47649370   8.111   3.281   6.647  1.3339  1.1700  0.2172
   88MOL   H47749371   7.941   3.116   6.582  0.6087 -0.1637 -1.4292
   88MOL   C47849372   0.690   3.934   6.448 -0.2911  0.3889  0.1725
   88MOL   C47949373   0.770   4.059   6.472 -0.1053 -0.3009  0.3892
   88MOL   C48049374   0.877   4.066   6.561 -0.3308  0.4143  0.1007
   88MOL   C48149375   0.933   4.188   6.594 -0.5693  1.1344 -0.1801
   88MOL   C48249376   0.882   4.311   6.542  0.5196  0.4551 -0.4525
   88MOL   C48349377   0.906   4.442   6.611 -0.3412  0.1509  0.5575
   88MOL   N48449378   1.013   4.450   6.688  0.1814 -0.1942 -0.4660
   88MOL   C48549379   1.072   4.553   6.769  0.4208 -0.1365  0.0875
   88MOL   C48649380   1.203   4.526   6.817 -0.0525  0.3528  0.8501
   88MOL   C48749381   1.268   4.614   6.903 -0.0700 -0.2597  0.2278
   88MOL   C48849382   1.189   4.729   6.943 -0.0154  0.2364  0.4464
   88MOL   N48949383   1.246   4.828   7.025 -0.4442  0.5427  0.4174
   88MOL   C49049384   1.066   4.760   6.889 -0.2370 -0.4998  0.0294
   88MOL   C49149385   1.003   4.669   6.801  0.0765  0.0725  0.3188
   88MOL   O49249386   0.828   4.538   6.589  0.4153  0.2626  0.1326
   88MOL   C49349387   0.786   4.303   6.440 -0.2627  0.9062  0.3285
   88MOL   C49449388   0.729   4.178   6.408 -0.2326 -0.2815  0.2697
   88MOL   O49549389   0.745   3.829   6.467  0.1504 -0.4867 -0.6276
   88MOL   H49649390   0.907   3.977   6.613 -1.5103  1.1901  2.2248
   88MOL   H49749391   1.013   4.185   6.666 -0.1915 -0.1286 -0.6226
   88MOL   H49849392   1.073   4.370   6.687 -0.6576 -0.8152 -2.3317
   88MOL   H49949393   1.260   4.439   6.788 -1.9058 -0.4455 -0.5028
   88MOL   H50049394   1.367   4.581   6.932 -1.0977 -1.5894  2.3709
   88MOL   H50149395   1.199   4.918   7.023 -0.8928  0.3075  0.1000
   88MOL   H50249396   1.014   4.853   6.907  1.2780  0.1545  1.1235
   88MOL   H50349397   0.909   4.695   6.755  0.1066 -1.3382 -0.5720
   88MOL   H50449398   0.757   4.396   6.392  2.5348  1.0623 -1.1485
   88MOL   H50549399   0.650   4.179   6.334 -0.0044  2.1680  0.0278
   88MOL   C50649400   1.332   4.812   7.125 -0.4243  0.1769  0.1344
   88MOL   C50749401   1.360   4.934   7.205 -0.2848  0.0628  0.1273
   88MOL   C50849402   1.491   4.963   7.241 -0.4044 -0.2098  0.7919
   88MOL   C50949403   1.528   5.096   7.289  0.0733  0.2305  0.4049
   88MOL   C51049404   1.425   5.190   7.322  0.0231 -0.1957 -0.1327
   88MOL   C51149405   1.460   5.331   7.362  0.1727  0.4067 -0.4900
   88MOL   N51249406   1.580   5.353   7.411  0.0410 -0.2597 -0.3931
   88MOL   C51349407   1.631   5.467   7.473 -0.1640 -0.6827 -0.6177
   88MOL   C51449408   1.549   5.562   7.537  0.1139 -0.7323  0.1979
   88MOL   C51549409   1.598   5.670   7.610 -0.7436 -0.6334 -0.2287
   88MOL   C51649410   1.739   5.675   7.637  0.5717 -0.5539 -0.0049
   88MOL   N51749411   1.796   5.774   7.715 -0.7490  0.0112  0.5444
   88MOL   C51849412   1.826   5.588   7.558 -0.1540  0.0212 -0.0622
   88MOL   C51949413   1.770   5.489   7.476  0.1655  0.2822 -0.0456
   88MOL   O52049414   1.383   5.422   7.337  0.7429  0.0998 -0.4826
   88MOL   C52149415   1.291   5.152   7.294 -0.7080 -0.9012  0.2476
   88MOL   C52249416   1.262   5.027   7.243 -0.4547  0.0391  0.4009
   88MOL   O52349417   1.383   4.704   7.161 -0.3932  0.1056  0.8328
   88MOL   H52449418   1.570   4.896   7.208 -2.1646 -1.7066 -0.4925
   88MOL   H52549419   1.634   5.112   7.303  0.1527  1.3415 -1.2882
   88MOL   H52649420   1.653   5.285   7.389 -0.4494 -0.1524 -2.4061
   88MOL   H52749421   1.441   5.564   7.535  0.1119 -1.5594 -1.0925
   88MOL   H52849422   1.530   5.749   7.639  0.4974  0.6218 -0.6809
   88MOL   H52949423   1.887   5.741   7.744 -0.9509 -0.9932  0.0591
   88MOL   H53049424   1.933   5.596   7.557 -0.1157 -0.3333  0.6955
   88MOL   H53149425   1.825   5.432   7.402 -0.0932 -0.5242  0.3717
   88MOL   H53249426   1.215   5.227   7.312  0.3314  0.2086  0.0320
   88MOL   H53349427   1.162   5.011   7.207  0.6375 -1.1459 -2.1859
   88MOL   C53449428   1.771   5.906   7.707  0.0644 -0.1219  0.0740
   88MOL   C53549429   1.860   5.992   7.794  0.0686  0.7565  0.1927
   88MOL   C53649430   1.806   6.105   7.860  0.1400  0.0691  0.0633
   88MOL   C53749431   1.888   6.182   7.945  0.1369 -0.1149  0.5432
   88MOL   C53849432   2.027   6.155   7.960  0.1356  0.3916 -0.7100
   88MOL   C53949433   2.113   6.231   8.055 -0.1761 -0.1797 -0.3504
   88MOL   N54049434   2.074   6.361   8.063  0.3888 -0.0281  0.7652
   88MOL   C54149435   2.141   6.454   8.142  0.3960 -0.3213  0.7736
   88MOL   C54249436   2.055   6.537   0.069 -0.5120  0.2133 -0.1046
   88MOL   C54349437   2.107   6.635   0.156 -1.2387 -0.3239  0.0203
   88MOL   C54449438   2.247   6.637   0.162  0.1342 -0.6662 -0.0758
   88MOL   N54549439   2.314   6.724   0.246 -0.3849 -0.5943 -0.8128
   88MOL   C54649440   2.336   6.560   0.081  0.3453  0.1932 -0.7294
   88MOL   C54749441   2.276   6.472   8.137 -0.0689 -0.2944  0.2292
   88MOL   O54849442   2.202   6.182   8.121  0.2191  0.7886  0.0615
   88MOL   C54949443   2.081   6.051   7.882 -0.3061 -0.1617  0.5398
   88MOL   C55049444   2.000   5.962   7.814 -0.2815  0.5284 -0.3903
   88MOL   O55149445   1.682   5.955   7.648 -0.1953 -0.3937  0.6221
   88MOL   H55249446   1.702   6.128   7.842  0.1403 -0.6738 -0.9339
   88MOL   H55349447   1.834   6.263   7.993 -1.4012 -0.6788 -0.1903
   88MOL   H55449448   1.997   6.392   8.005  2.0029  0.7860 -1.0258
   88MOL   H55549449   1.947   6.532   0.061 -0.5650  1.5489 -0.2501
   88MOL   H55649450   2.035   6.684   0.220 -2.1212  1.1242 -2.0221
   88MOL   H55749451   2.406   6.698   0.277  0.1279  3.7125  1.7095
   88MOL   H55849452   2.442   6.559   0.098  0.1384 -1.7228  0.5956
   88MOL   H55949453   2.335   6.401   8.081 -0.7561 -1.2069  0.6552
   88MOL   H56049454   2.180   6.015   7.904 -1.6856 -3.6902  1.4564
   88MOL   H56149455   2.048   5.873   7.774 -3.2020 -1.5584  0.5704
   88MOL   H56249456   2.317   6.815   0.203 -0.9698  1.4070  3.1110
   8.14586   8.14586   8.14586
