;
; Gromacs include topology (itp) file.
; For Molecular Group XYZ
; Force field scheme: opls2005
; Produced from DL_FIELD v4.11
;


[ moleculetype ]
; name    nrexcl
XYZ    3

[ atoms ]
; nr   type   resnr   residu    atom    cgnr    charge    mass
    1       CO4    1  MOL      C1     1   0.5650000   12.0115
    2        CA    1  MOL      C2     2  -0.1150000   12.0115
    3        CA    1  MOL      C3     3  -0.1150000   12.0115
    4        CA    1  MOL      C4     4  -0.1150000   12.0115
    5        CA    1  MOL      C5     5  -0.1150000   12.0115
    6         C    1  MOL      C6     6   0.6150000   12.0115
    7         N    1  MOL      N7     7  -0.3850000   14.0067
    8        CA    1  MOL      C8     8   0.0850000   12.0115
    9        CA    1  MOL      C9     9  -0.1150000   12.0115
   10        CA    1  MOL     C10    10  -0.1150000   12.0115
   11        CA    1  MOL     C11    11   0.0850000   12.0115
   12         N    1  MOL     N12    12  -0.3850000   14.0067
   13        CA    1  MOL     C13    13  -0.1150000   12.0115
   14        CA    1  MOL     C14    14  -0.1150000   12.0115
   15         O    1  MOL     O15    15  -0.5000000   15.9994
   16        CA    1  MOL     C16    16  -0.1150000   12.0115
   17        CA    1  MOL     C17    17  -0.1150000   12.0115
   18         O    1  MOL     O18    18  -0.4500000   15.9994
   19        HA    1  MOL     H19    19   0.1150000    1.0080
   20        HA    1  MOL     H20    20   0.1150000    1.0080
   21         H    1  MOL     H21    21   0.3000000    1.0080
   22        HA    1  MOL     H22    22   0.1150000    1.0080
   23        HA    1  MOL     H23    23   0.1150000    1.0080
   24         H    1  MOL     H24    24   0.3000000    1.0080
   25        HA    1  MOL     H25    25   0.1150000    1.0080
   26        HA    1  MOL     H26    26   0.1150000    1.0080
   27        HA    1  MOL     H27    27   0.1150000    1.0080
   28        HA    1  MOL     H28    28   0.1150000    1.0080
   29       HAE    1  MOL     H29    29   0.0000000    1.0080
   30         C    1  MOL     C30    30   0.6150000   12.0115
   31        CA    1  MOL     C31    31  -0.1150000   12.0115
   32        CA    1  MOL     C32    32  -0.1150000   12.0115
   33        CA    1  MOL     C33    33  -0.1150000   12.0115
   34        CA    1  MOL     C34    34  -0.1150000   12.0115
   35         C    1  MOL     C35    35   0.6150000   12.0115
   36         N    1  MOL     N36    36  -0.3850000   14.0067
   37        CA    1  MOL     C37    37   0.0850000   12.0115
   38        CA    1  MOL     C38    38  -0.1150000   12.0115
   39        CA    1  MOL     C39    39  -0.1150000   12.0115
   40        CA    1  MOL     C40    40   0.0850000   12.0115
   41         N    1  MOL     N41    41  -0.3850000   14.0067
   42        CA    1  MOL     C42    42  -0.1150000   12.0115
   43        CA    1  MOL     C43    43  -0.1150000   12.0115
   44         O    1  MOL     O44    44  -0.5000000   15.9994
   45        CA    1  MOL     C45    45  -0.1150000   12.0115
   46        CA    1  MOL     C46    46  -0.1150000   12.0115
   47         O    1  MOL     O47    47  -0.5000000   15.9994
   48        HA    1  MOL     H48    48   0.1150000    1.0080
   49        HA    1  MOL     H49    49   0.1150000    1.0080
   50         H    1  MOL     H50    50   0.3000000    1.0080
   51        HA    1  MOL     H51    51   0.1150000    1.0080
   52        HA    1  MOL     H52    52   0.1150000    1.0080
   53         H    1  MOL     H53    53   0.3000000    1.0080
   54        HA    1  MOL     H54    54   0.1150000    1.0080
   55        HA    1  MOL     H55    55   0.1150000    1.0080
   56        HA    1  MOL     H56    56   0.1150000    1.0080
   57        HA    1  MOL     H57    57   0.1150000    1.0080
   58         C    1  MOL     C58    58   0.6150000   12.0115
   59        CA    1  MOL     C59    59  -0.1150000   12.0115
   60        CA    1  MOL     C60    60  -0.1150000   12.0115
   61        CA    1  MOL     C61    61  -0.1150000   12.0115
   62        CA    1  MOL     C62    62  -0.1150000   12.0115
   63         C    1  MOL     C63    63   0.6150000   12.0115
   64         N    1  MOL     N64    64  -0.3850000   14.0067
   65        CA    1  MOL     C65    65   0.0850000   12.0115
   66        CA    1  MOL     C66    66  -0.1150000   12.0115
   67        CA    1  MOL     C67    67  -0.1150000   12.0115
   68        CA    1  MOL     C68    68   0.0850000   12.0115
   69         N    1  MOL     N69    69  -0.3850000   14.0067
   70        CA    1  MOL     C70    70  -0.1150000   12.0115
   71        CA    1  MOL     C71    71  -0.1150000   12.0115
   72         O    1  MOL     O72    72  -0.5000000   15.9994
   73        CA    1  MOL     C73    73  -0.1150000   12.0115
   74        CA    1  MOL     C74    74  -0.1150000   12.0115
   75         O    1  MOL     O75    75  -0.5000000   15.9994
   76        HA    1  MOL     H76    76   0.1150000    1.0080
   77        HA    1  MOL     H77    77   0.1150000    1.0080
   78         H    1  MOL     H78    78   0.3000000    1.0080
   79        HA    1  MOL     H79    79   0.1150000    1.0080
   80        HA    1  MOL     H80    80   0.1150000    1.0080
   81         H    1  MOL     H81    81   0.3000000    1.0080
   82        HA    1  MOL     H82    82   0.1150000    1.0080
   83        HA    1  MOL     H83    83   0.1150000    1.0080
   84        HA    1  MOL     H84    84   0.1150000    1.0080
   85        HA    1  MOL     H85    85   0.1150000    1.0080
   86         C    1  MOL     C86    86   0.6150000   12.0115
   87        CA    1  MOL     C87    87  -0.1150000   12.0115
   88        CA    1  MOL     C88    88  -0.1150000   12.0115
   89        CA    1  MOL     C89    89  -0.1150000   12.0115
   90        CA    1  MOL     C90    90  -0.1150000   12.0115
   91         C    1  MOL     C91    91   0.6150000   12.0115
   92         N    1  MOL     N92    92  -0.3850000   14.0067
   93        CA    1  MOL     C93    93   0.0850000   12.0115
   94        CA    1  MOL     C94    94  -0.1150000   12.0115
   95        CA    1  MOL     C95    95  -0.1150000   12.0115
   96        CA    1  MOL     C96    96   0.0850000   12.0115
   97         N    1  MOL     N97    97  -0.3850000   14.0067
   98        CA    1  MOL     C98    98  -0.1150000   12.0115
   99        CA    1  MOL     C99    99  -0.1150000   12.0115
  100         O    1  MOL    O100   100  -0.5000000   15.9994
  101        CA    1  MOL    C101   101  -0.1150000   12.0115
  102        CA    1  MOL    C102   102  -0.1150000   12.0115
  103         O    1  MOL    O103   103  -0.5000000   15.9994
  104        HA    1  MOL    H104   104   0.1150000    1.0080
  105        HA    1  MOL    H105   105   0.1150000    1.0080
  106         H    1  MOL    H106   106   0.3000000    1.0080
  107        HA    1  MOL    H107   107   0.1150000    1.0080
  108        HA    1  MOL    H108   108   0.1150000    1.0080
  109         H    1  MOL    H109   109   0.3000000    1.0080
  110        HA    1  MOL    H110   110   0.1150000    1.0080
  111        HA    1  MOL    H111   111   0.1150000    1.0080
  112        HA    1  MOL    H112   112   0.1150000    1.0080
  113        HA    1  MOL    H113   113   0.1150000    1.0080
  114         C    1  MOL    C114   114   0.6150000   12.0115
  115        CA    1  MOL    C115   115  -0.1150000   12.0115
  116        CA    1  MOL    C116   116  -0.1150000   12.0115
  117        CA    1  MOL    C117   117  -0.1150000   12.0115
  118        CA    1  MOL    C118   118  -0.1150000   12.0115
  119         C    1  MOL    C119   119   0.6150000   12.0115
  120         N    1  MOL    N120   120  -0.3850000   14.0067
  121        CA    1  MOL    C121   121   0.0850000   12.0115
  122        CA    1  MOL    C122   122  -0.1150000   12.0115
  123        CA    1  MOL    C123   123  -0.1150000   12.0115
  124        CA    1  MOL    C124   124   0.0850000   12.0115
  125         N    1  MOL    N125   125  -0.3850000   14.0067
  126        CA    1  MOL    C126   126  -0.1150000   12.0115
  127        CA    1  MOL    C127   127  -0.1150000   12.0115
  128         O    1  MOL    O128   128  -0.5000000   15.9994
  129        CA    1  MOL    C129   129  -0.1150000   12.0115
  130        CA    1  MOL    C130   130  -0.1150000   12.0115
  131         O    1  MOL    O131   131  -0.5000000   15.9994
  132        HA    1  MOL    H132   132   0.1150000    1.0080
  133        HA    1  MOL    H133   133   0.1150000    1.0080
  134         H    1  MOL    H134   134   0.3000000    1.0080
  135        HA    1  MOL    H135   135   0.1150000    1.0080
  136        HA    1  MOL    H136   136   0.1150000    1.0080
  137         H    1  MOL    H137   137   0.3000000    1.0080
  138        HA    1  MOL    H138   138   0.1150000    1.0080
  139        HA    1  MOL    H139   139   0.1150000    1.0080
  140        HA    1  MOL    H140   140   0.1150000    1.0080
  141        HA    1  MOL    H141   141   0.1150000    1.0080
  142         C    1  MOL    C142   142   0.6150000   12.0115
  143        CA    1  MOL    C143   143  -0.1150000   12.0115
  144        CA    1  MOL    C144   144  -0.1150000   12.0115
  145        CA    1  MOL    C145   145  -0.1150000   12.0115
  146        CA    1  MOL    C146   146  -0.1150000   12.0115
  147         C    1  MOL    C147   147   0.6150000   12.0115
  148         N    1  MOL    N148   148  -0.3850000   14.0067
  149        CA    1  MOL    C149   149   0.0850000   12.0115
  150        CA    1  MOL    C150   150  -0.1150000   12.0115
  151        CA    1  MOL    C151   151  -0.1150000   12.0115
  152        CA    1  MOL    C152   152   0.0850000   12.0115
  153         N    1  MOL    N153   153  -0.3850000   14.0067
  154        CA    1  MOL    C154   154  -0.1150000   12.0115
  155        CA    1  MOL    C155   155  -0.1150000   12.0115
  156         O    1  MOL    O156   156  -0.5000000   15.9994
  157        CA    1  MOL    C157   157  -0.1150000   12.0115
  158        CA    1  MOL    C158   158  -0.1150000   12.0115
  159         O    1  MOL    O159   159  -0.5000000   15.9994
  160        HA    1  MOL    H160   160   0.1150000    1.0080
  161        HA    1  MOL    H161   161   0.1150000    1.0080
  162         H    1  MOL    H162   162   0.3000000    1.0080
  163        HA    1  MOL    H163   163   0.1150000    1.0080
  164        HA    1  MOL    H164   164   0.1150000    1.0080
  165         H    1  MOL    H165   165   0.3000000    1.0080
  166        HA    1  MOL    H166   166   0.1150000    1.0080
  167        HA    1  MOL    H167   167   0.1150000    1.0080
  168        HA    1  MOL    H168   168   0.1150000    1.0080
  169        HA    1  MOL    H169   169   0.1150000    1.0080
  170         C    1  MOL    C170   170   0.6150000   12.0115
  171        CA    1  MOL    C171   171  -0.1150000   12.0115
  172        CA    1  MOL    C172   172  -0.1150000   12.0115
  173        CA    1  MOL    C173   173  -0.1150000   12.0115
  174        CA    1  MOL    C174   174  -0.1150000   12.0115
  175         C    1  MOL    C175   175   0.6150000   12.0115
  176         N    1  MOL    N176   176  -0.3850000   14.0067
  177        CA    1  MOL    C177   177   0.0850000   12.0115
  178        CA    1  MOL    C178   178  -0.1150000   12.0115
  179        CA    1  MOL    C179   179  -0.1150000   12.0115
  180        CA    1  MOL    C180   180   0.0850000   12.0115
  181         N    1  MOL    N181   181  -0.3850000   14.0067
  182        CA    1  MOL    C182   182  -0.1150000   12.0115
  183        CA    1  MOL    C183   183  -0.1150000   12.0115
  184         O    1  MOL    O184   184  -0.5000000   15.9994
  185        CA    1  MOL    C185   185  -0.1150000   12.0115
  186        CA    1  MOL    C186   186  -0.1150000   12.0115
  187         O    1  MOL    O187   187  -0.5000000   15.9994
  188        HA    1  MOL    H188   188   0.1150000    1.0080
  189        HA    1  MOL    H189   189   0.1150000    1.0080
  190         H    1  MOL    H190   190   0.3000000    1.0080
  191        HA    1  MOL    H191   191   0.1150000    1.0080
  192        HA    1  MOL    H192   192   0.1150000    1.0080
  193         H    1  MOL    H193   193   0.3000000    1.0080
  194        HA    1  MOL    H194   194   0.1150000    1.0080
  195        HA    1  MOL    H195   195   0.1150000    1.0080
  196        HA    1  MOL    H196   196   0.1150000    1.0080
  197        HA    1  MOL    H197   197   0.1150000    1.0080
  198         C    1  MOL    C198   198   0.6150000   12.0115
  199        CA    1  MOL    C199   199  -0.1150000   12.0115
  200        CA    1  MOL    C200   200  -0.1150000   12.0115
  201        CA    1  MOL    C201   201  -0.1150000   12.0115
  202        CA    1  MOL    C202   202  -0.1150000   12.0115
  203         C    1  MOL    C203   203   0.6150000   12.0115
  204         N    1  MOL    N204   204  -0.3850000   14.0067
  205        CA    1  MOL    C205   205   0.0850000   12.0115
  206        CA    1  MOL    C206   206  -0.1150000   12.0115
  207        CA    1  MOL    C207   207  -0.1150000   12.0115
  208        CA    1  MOL    C208   208   0.0850000   12.0115
  209         N    1  MOL    N209   209  -0.3850000   14.0067
  210        CA    1  MOL    C210   210  -0.1150000   12.0115
  211        CA    1  MOL    C211   211  -0.1150000   12.0115
  212         O    1  MOL    O212   212  -0.5000000   15.9994
  213        CA    1  MOL    C213   213  -0.1150000   12.0115
  214        CA    1  MOL    C214   214  -0.1150000   12.0115
  215         O    1  MOL    O215   215  -0.5000000   15.9994
  216        HA    1  MOL    H216   216   0.1150000    1.0080
  217        HA    1  MOL    H217   217   0.1150000    1.0080
  218         H    1  MOL    H218   218   0.3000000    1.0080
  219        HA    1  MOL    H219   219   0.1150000    1.0080
  220        HA    1  MOL    H220   220   0.1150000    1.0080
  221         H    1  MOL    H221   221   0.3000000    1.0080
  222        HA    1  MOL    H222   222   0.1150000    1.0080
  223        HA    1  MOL    H223   223   0.1150000    1.0080
  224        HA    1  MOL    H224   224   0.1150000    1.0080
  225        HA    1  MOL    H225   225   0.1150000    1.0080
  226         C    1  MOL    C226   226   0.6150000   12.0115
  227        CA    1  MOL    C227   227  -0.1150000   12.0115
  228        CA    1  MOL    C228   228  -0.1150000   12.0115
  229        CA    1  MOL    C229   229  -0.1150000   12.0115
  230        CA    1  MOL    C230   230  -0.1150000   12.0115
  231         C    1  MOL    C231   231   0.6150000   12.0115
  232         N    1  MOL    N232   232  -0.3850000   14.0067
  233        CA    1  MOL    C233   233   0.0850000   12.0115
  234        CA    1  MOL    C234   234  -0.1150000   12.0115
  235        CA    1  MOL    C235   235  -0.1150000   12.0115
  236        CA    1  MOL    C236   236   0.0850000   12.0115
  237         N    1  MOL    N237   237  -0.3850000   14.0067
  238        CA    1  MOL    C238   238  -0.1150000   12.0115
  239        CA    1  MOL    C239   239  -0.1150000   12.0115
  240         O    1  MOL    O240   240  -0.5000000   15.9994
  241        CA    1  MOL    C241   241  -0.1150000   12.0115
  242        CA    1  MOL    C242   242  -0.1150000   12.0115
  243         O    1  MOL    O243   243  -0.5000000   15.9994
  244        HA    1  MOL    H244   244   0.1150000    1.0080
  245        HA    1  MOL    H245   245   0.1150000    1.0080
  246         H    1  MOL    H246   246   0.3000000    1.0080
  247        HA    1  MOL    H247   247   0.1150000    1.0080
  248        HA    1  MOL    H248   248   0.1150000    1.0080
  249         H    1  MOL    H249   249   0.3000000    1.0080
  250        HA    1  MOL    H250   250   0.1150000    1.0080
  251        HA    1  MOL    H251   251   0.1150000    1.0080
  252        HA    1  MOL    H252   252   0.1150000    1.0080
  253        HA    1  MOL    H253   253   0.1150000    1.0080
  254         C    1  MOL    C254   254   0.6150000   12.0115
  255        CA    1  MOL    C255   255  -0.1150000   12.0115
  256        CA    1  MOL    C256   256  -0.1150000   12.0115
  257        CA    1  MOL    C257   257  -0.1150000   12.0115
  258        CA    1  MOL    C258   258  -0.1150000   12.0115
  259         C    1  MOL    C259   259   0.6150000   12.0115
  260         N    1  MOL    N260   260  -0.3850000   14.0067
  261        CA    1  MOL    C261   261   0.0850000   12.0115
  262        CA    1  MOL    C262   262  -0.1150000   12.0115
  263        CA    1  MOL    C263   263  -0.1150000   12.0115
  264        CA    1  MOL    C264   264   0.0850000   12.0115
  265         N    1  MOL    N265   265  -0.3850000   14.0067
  266        CA    1  MOL    C266   266  -0.1150000   12.0115
  267        CA    1  MOL    C267   267  -0.1150000   12.0115
  268         O    1  MOL    O268   268  -0.5000000   15.9994
  269        CA    1  MOL    C269   269  -0.1150000   12.0115
  270        CA    1  MOL    C270   270  -0.1150000   12.0115
  271         O    1  MOL    O271   271  -0.5000000   15.9994
  272        HA    1  MOL    H272   272   0.1150000    1.0080
  273        HA    1  MOL    H273   273   0.1150000    1.0080
  274         H    1  MOL    H274   274   0.3000000    1.0080
  275        HA    1  MOL    H275   275   0.1150000    1.0080
  276        HA    1  MOL    H276   276   0.1150000    1.0080
  277         H    1  MOL    H277   277   0.3000000    1.0080
  278        HA    1  MOL    H278   278   0.1150000    1.0080
  279        HA    1  MOL    H279   279   0.1150000    1.0080
  280        HA    1  MOL    H280   280   0.1150000    1.0080
  281        HA    1  MOL    H281   281   0.1150000    1.0080
  282         C    1  MOL    C282   282   0.6150000   12.0115
  283        CA    1  MOL    C283   283  -0.1150000   12.0115
  284        CA    1  MOL    C284   284  -0.1150000   12.0115
  285        CA    1  MOL    C285   285  -0.1150000   12.0115
  286        CA    1  MOL    C286   286  -0.1150000   12.0115
  287         C    1  MOL    C287   287   0.6150000   12.0115
  288         N    1  MOL    N288   288  -0.3850000   14.0067
  289        CA    1  MOL    C289   289   0.0850000   12.0115
  290        CA    1  MOL    C290   290  -0.1150000   12.0115
  291        CA    1  MOL    C291   291  -0.1150000   12.0115
  292        CA    1  MOL    C292   292   0.0850000   12.0115
  293         N    1  MOL    N293   293  -0.3850000   14.0067
  294        CA    1  MOL    C294   294  -0.1150000   12.0115
  295        CA    1  MOL    C295   295  -0.1150000   12.0115
  296         O    1  MOL    O296   296  -0.5000000   15.9994
  297        CA    1  MOL    C297   297  -0.1150000   12.0115
  298        CA    1  MOL    C298   298  -0.1150000   12.0115
  299         O    1  MOL    O299   299  -0.5000000   15.9994
  300        HA    1  MOL    H300   300   0.1150000    1.0080
  301        HA    1  MOL    H301   301   0.1150000    1.0080
  302         H    1  MOL    H302   302   0.3000000    1.0080
  303        HA    1  MOL    H303   303   0.1150000    1.0080
  304        HA    1  MOL    H304   304   0.1150000    1.0080
  305         H    1  MOL    H305   305   0.3000000    1.0080
  306        HA    1  MOL    H306   306   0.1150000    1.0080
  307        HA    1  MOL    H307   307   0.1150000    1.0080
  308        HA    1  MOL    H308   308   0.1150000    1.0080
  309        HA    1  MOL    H309   309   0.1150000    1.0080
  310         C    1  MOL    C310   310   0.6150000   12.0115
  311        CA    1  MOL    C311   311  -0.1150000   12.0115
  312        CA    1  MOL    C312   312  -0.1150000   12.0115
  313        CA    1  MOL    C313   313  -0.1150000   12.0115
  314        CA    1  MOL    C314   314  -0.1150000   12.0115
  315         C    1  MOL    C315   315   0.6150000   12.0115
  316         N    1  MOL    N316   316  -0.3850000   14.0067
  317        CA    1  MOL    C317   317   0.0850000   12.0115
  318        CA    1  MOL    C318   318  -0.1150000   12.0115
  319        CA    1  MOL    C319   319  -0.1150000   12.0115
  320        CA    1  MOL    C320   320   0.0850000   12.0115
  321         N    1  MOL    N321   321  -0.3850000   14.0067
  322        CA    1  MOL    C322   322  -0.1150000   12.0115
  323        CA    1  MOL    C323   323  -0.1150000   12.0115
  324         O    1  MOL    O324   324  -0.5000000   15.9994
  325        CA    1  MOL    C325   325  -0.1150000   12.0115
  326        CA    1  MOL    C326   326  -0.1150000   12.0115
  327         O    1  MOL    O327   327  -0.5000000   15.9994
  328        HA    1  MOL    H328   328   0.1150000    1.0080
  329        HA    1  MOL    H329   329   0.1150000    1.0080
  330         H    1  MOL    H330   330   0.3000000    1.0080
  331        HA    1  MOL    H331   331   0.1150000    1.0080
  332        HA    1  MOL    H332   332   0.1150000    1.0080
  333         H    1  MOL    H333   333   0.3000000    1.0080
  334        HA    1  MOL    H334   334   0.1150000    1.0080
  335        HA    1  MOL    H335   335   0.1150000    1.0080
  336        HA    1  MOL    H336   336   0.1150000    1.0080
  337        HA    1  MOL    H337   337   0.1150000    1.0080
  338         C    1  MOL    C338   338   0.6150000   12.0115
  339        CA    1  MOL    C339   339  -0.1150000   12.0115
  340        CA    1  MOL    C340   340  -0.1150000   12.0115
  341        CA    1  MOL    C341   341  -0.1150000   12.0115
  342        CA    1  MOL    C342   342  -0.1150000   12.0115
  343         C    1  MOL    C343   343   0.6150000   12.0115
  344         N    1  MOL    N344   344  -0.3850000   14.0067
  345        CA    1  MOL    C345   345   0.0850000   12.0115
  346        CA    1  MOL    C346   346  -0.1150000   12.0115
  347        CA    1  MOL    C347   347  -0.1150000   12.0115
  348        CA    1  MOL    C348   348   0.0850000   12.0115
  349         N    1  MOL    N349   349  -0.3850000   14.0067
  350        CA    1  MOL    C350   350  -0.1150000   12.0115
  351        CA    1  MOL    C351   351  -0.1150000   12.0115
  352         O    1  MOL    O352   352  -0.5000000   15.9994
  353        CA    1  MOL    C353   353  -0.1150000   12.0115
  354        CA    1  MOL    C354   354  -0.1150000   12.0115
  355         O    1  MOL    O355   355  -0.5000000   15.9994
  356        HA    1  MOL    H356   356   0.1150000    1.0080
  357        HA    1  MOL    H357   357   0.1150000    1.0080
  358         H    1  MOL    H358   358   0.3000000    1.0080
  359        HA    1  MOL    H359   359   0.1150000    1.0080
  360        HA    1  MOL    H360   360   0.1150000    1.0080
  361         H    1  MOL    H361   361   0.3000000    1.0080
  362        HA    1  MOL    H362   362   0.1150000    1.0080
  363        HA    1  MOL    H363   363   0.1150000    1.0080
  364        HA    1  MOL    H364   364   0.1150000    1.0080
  365        HA    1  MOL    H365   365   0.1150000    1.0080
  366         C    1  MOL    C366   366   0.6150000   12.0115
  367        CA    1  MOL    C367   367  -0.1150000   12.0115
  368        CA    1  MOL    C368   368  -0.1150000   12.0115
  369        CA    1  MOL    C369   369  -0.1150000   12.0115
  370        CA    1  MOL    C370   370  -0.1150000   12.0115
  371         C    1  MOL    C371   371   0.6150000   12.0115
  372         N    1  MOL    N372   372  -0.3850000   14.0067
  373        CA    1  MOL    C373   373   0.0850000   12.0115
  374        CA    1  MOL    C374   374  -0.1150000   12.0115
  375        CA    1  MOL    C375   375  -0.1150000   12.0115
  376        CA    1  MOL    C376   376   0.0850000   12.0115
  377         N    1  MOL    N377   377  -0.3850000   14.0067
  378        CA    1  MOL    C378   378  -0.1150000   12.0115
  379        CA    1  MOL    C379   379  -0.1150000   12.0115
  380         O    1  MOL    O380   380  -0.5000000   15.9994
  381        CA    1  MOL    C381   381  -0.1150000   12.0115
  382        CA    1  MOL    C382   382  -0.1150000   12.0115
  383         O    1  MOL    O383   383  -0.5000000   15.9994
  384        HA    1  MOL    H384   384   0.1150000    1.0080
  385        HA    1  MOL    H385   385   0.1150000    1.0080
  386         H    1  MOL    H386   386   0.3000000    1.0080
  387        HA    1  MOL    H387   387   0.1150000    1.0080
  388        HA    1  MOL    H388   388   0.1150000    1.0080
  389         H    1  MOL    H389   389   0.3000000    1.0080
  390        HA    1  MOL    H390   390   0.1150000    1.0080
  391        HA    1  MOL    H391   391   0.1150000    1.0080
  392        HA    1  MOL    H392   392   0.1150000    1.0080
  393        HA    1  MOL    H393   393   0.1150000    1.0080
  394         C    1  MOL    C394   394   0.6150000   12.0115
  395        CA    1  MOL    C395   395  -0.1150000   12.0115
  396        CA    1  MOL    C396   396  -0.1150000   12.0115
  397        CA    1  MOL    C397   397  -0.1150000   12.0115
  398        CA    1  MOL    C398   398  -0.1150000   12.0115
  399         C    1  MOL    C399   399   0.6150000   12.0115
  400         N    1  MOL    N400   400  -0.3850000   14.0067
  401        CA    1  MOL    C401   401   0.0850000   12.0115
  402        CA    1  MOL    C402   402  -0.1150000   12.0115
  403        CA    1  MOL    C403   403  -0.1150000   12.0115
  404        CA    1  MOL    C404   404   0.0850000   12.0115
  405         N    1  MOL    N405   405  -0.3850000   14.0067
  406        CA    1  MOL    C406   406  -0.1150000   12.0115
  407        CA    1  MOL    C407   407  -0.1150000   12.0115
  408         O    1  MOL    O408   408  -0.5000000   15.9994
  409        CA    1  MOL    C409   409  -0.1150000   12.0115
  410        CA    1  MOL    C410   410  -0.1150000   12.0115
  411         O    1  MOL    O411   411  -0.5000000   15.9994
  412        HA    1  MOL    H412   412   0.1150000    1.0080
  413        HA    1  MOL    H413   413   0.1150000    1.0080
  414         H    1  MOL    H414   414   0.3000000    1.0080
  415        HA    1  MOL    H415   415   0.1150000    1.0080
  416        HA    1  MOL    H416   416   0.1150000    1.0080
  417         H    1  MOL    H417   417   0.3000000    1.0080
  418        HA    1  MOL    H418   418   0.1150000    1.0080
  419        HA    1  MOL    H419   419   0.1150000    1.0080
  420        HA    1  MOL    H420   420   0.1150000    1.0080
  421        HA    1  MOL    H421   421   0.1150000    1.0080
  422         C    1  MOL    C422   422   0.6150000   12.0115
  423        CA    1  MOL    C423   423  -0.1150000   12.0115
  424        CA    1  MOL    C424   424  -0.1150000   12.0115
  425        CA    1  MOL    C425   425  -0.1150000   12.0115
  426        CA    1  MOL    C426   426  -0.1150000   12.0115
  427         C    1  MOL    C427   427   0.6150000   12.0115
  428         N    1  MOL    N428   428  -0.3850000   14.0067
  429        CA    1  MOL    C429   429   0.0850000   12.0115
  430        CA    1  MOL    C430   430  -0.1150000   12.0115
  431        CA    1  MOL    C431   431  -0.1150000   12.0115
  432        CA    1  MOL    C432   432   0.0850000   12.0115
  433         N    1  MOL    N433   433  -0.3850000   14.0067
  434        CA    1  MOL    C434   434  -0.1150000   12.0115
  435        CA    1  MOL    C435   435  -0.1150000   12.0115
  436         O    1  MOL    O436   436  -0.5000000   15.9994
  437        CA    1  MOL    C437   437  -0.1150000   12.0115
  438        CA    1  MOL    C438   438  -0.1150000   12.0115
  439         O    1  MOL    O439   439  -0.5000000   15.9994
  440        HA    1  MOL    H440   440   0.1150000    1.0080
  441        HA    1  MOL    H441   441   0.1150000    1.0080
  442         H    1  MOL    H442   442   0.3000000    1.0080
  443        HA    1  MOL    H443   443   0.1150000    1.0080
  444        HA    1  MOL    H444   444   0.1150000    1.0080
  445         H    1  MOL    H445   445   0.3000000    1.0080
  446        HA    1  MOL    H446   446   0.1150000    1.0080
  447        HA    1  MOL    H447   447   0.1150000    1.0080
  448        HA    1  MOL    H448   448   0.1150000    1.0080
  449        HA    1  MOL    H449   449   0.1150000    1.0080
  450         C    1  MOL    C450   450   0.6150000   12.0115
  451        CA    1  MOL    C451   451  -0.1150000   12.0115
  452        CA    1  MOL    C452   452  -0.1150000   12.0115
  453        CA    1  MOL    C453   453  -0.1150000   12.0115
  454        CA    1  MOL    C454   454  -0.1150000   12.0115
  455         C    1  MOL    C455   455   0.6150000   12.0115
  456         N    1  MOL    N456   456  -0.3850000   14.0067
  457        CA    1  MOL    C457   457   0.0850000   12.0115
  458        CA    1  MOL    C458   458  -0.1150000   12.0115
  459        CA    1  MOL    C459   459  -0.1150000   12.0115
  460        CA    1  MOL    C460   460   0.0850000   12.0115
  461         N    1  MOL    N461   461  -0.3850000   14.0067
  462        CA    1  MOL    C462   462  -0.1150000   12.0115
  463        CA    1  MOL    C463   463  -0.1150000   12.0115
  464         O    1  MOL    O464   464  -0.5000000   15.9994
  465        CA    1  MOL    C465   465  -0.1150000   12.0115
  466        CA    1  MOL    C466   466  -0.1150000   12.0115
  467         O    1  MOL    O467   467  -0.5000000   15.9994
  468        HA    1  MOL    H468   468   0.1150000    1.0080
  469        HA    1  MOL    H469   469   0.1150000    1.0080
  470         H    1  MOL    H470   470   0.3000000    1.0080
  471        HA    1  MOL    H471   471   0.1150000    1.0080
  472        HA    1  MOL    H472   472   0.1150000    1.0080
  473         H    1  MOL    H473   473   0.3000000    1.0080
  474        HA    1  MOL    H474   474   0.1150000    1.0080
  475        HA    1  MOL    H475   475   0.1150000    1.0080
  476        HA    1  MOL    H476   476   0.1150000    1.0080
  477        HA    1  MOL    H477   477   0.1150000    1.0080
  478         C    1  MOL    C478   478   0.6150000   12.0115
  479        CA    1  MOL    C479   479  -0.1150000   12.0115
  480        CA    1  MOL    C480   480  -0.1150000   12.0115
  481        CA    1  MOL    C481   481  -0.1150000   12.0115
  482        CA    1  MOL    C482   482  -0.1150000   12.0115
  483         C    1  MOL    C483   483   0.6150000   12.0115
  484         N    1  MOL    N484   484  -0.3850000   14.0067
  485        CA    1  MOL    C485   485   0.0850000   12.0115
  486        CA    1  MOL    C486   486  -0.1150000   12.0115
  487        CA    1  MOL    C487   487  -0.1150000   12.0115
  488        CA    1  MOL    C488   488   0.0850000   12.0115
  489         N    1  MOL    N489   489  -0.3850000   14.0067
  490        CA    1  MOL    C490   490  -0.1150000   12.0115
  491        CA    1  MOL    C491   491  -0.1150000   12.0115
  492         O    1  MOL    O492   492  -0.5000000   15.9994
  493        CA    1  MOL    C493   493  -0.1150000   12.0115
  494        CA    1  MOL    C494   494  -0.1150000   12.0115
  495         O    1  MOL    O495   495  -0.5000000   15.9994
  496        HA    1  MOL    H496   496   0.1150000    1.0080
  497        HA    1  MOL    H497   497   0.1150000    1.0080
  498         H    1  MOL    H498   498   0.3000000    1.0080
  499        HA    1  MOL    H499   499   0.1150000    1.0080
  500        HA    1  MOL    H500   500   0.1150000    1.0080
  501         H    1  MOL    H501   501   0.3000000    1.0080
  502        HA    1  MOL    H502   502   0.1150000    1.0080
  503        HA    1  MOL    H503   503   0.1150000    1.0080
  504        HA    1  MOL    H504   504   0.1150000    1.0080
  505        HA    1  MOL    H505   505   0.1150000    1.0080
  506         C    1  MOL    C506   506   0.6150000   12.0115
  507        CA    1  MOL    C507   507  -0.1150000   12.0115
  508        CA    1  MOL    C508   508  -0.1150000   12.0115
  509        CA    1  MOL    C509   509  -0.1150000   12.0115
  510        CA    1  MOL    C510   510  -0.1150000   12.0115
  511         C    1  MOL    C511   511   0.6150000   12.0115
  512         N    1  MOL    N512   512  -0.3850000   14.0067
  513        CA    1  MOL    C513   513   0.0850000   12.0115
  514        CA    1  MOL    C514   514  -0.1150000   12.0115
  515        CA    1  MOL    C515   515  -0.1150000   12.0115
  516        CA    1  MOL    C516   516   0.0850000   12.0115
  517         N    1  MOL    N517   517  -0.3850000   14.0067
  518        CA    1  MOL    C518   518  -0.1150000   12.0115
  519        CA    1  MOL    C519   519  -0.1150000   12.0115
  520         O    1  MOL    O520   520  -0.5000000   15.9994
  521        CA    1  MOL    C521   521  -0.1150000   12.0115
  522        CA    1  MOL    C522   522  -0.1150000   12.0115
  523         O    1  MOL    O523   523  -0.5000000   15.9994
  524        HA    1  MOL    H524   524   0.1150000    1.0080
  525        HA    1  MOL    H525   525   0.1150000    1.0080
  526         H    1  MOL    H526   526   0.3000000    1.0080
  527        HA    1  MOL    H527   527   0.1150000    1.0080
  528        HA    1  MOL    H528   528   0.1150000    1.0080
  529         H    1  MOL    H529   529   0.3000000    1.0080
  530        HA    1  MOL    H530   530   0.1150000    1.0080
  531        HA    1  MOL    H531   531   0.1150000    1.0080
  532        HA    1  MOL    H532   532   0.1150000    1.0080
  533        HA    1  MOL    H533   533   0.1150000    1.0080
  534         C    1  MOL    C534   534   0.6150000   12.0115
  535        CA    1  MOL    C535   535  -0.1150000   12.0115
  536        CA    1  MOL    C536   536  -0.1150000   12.0115
  537        CA    1  MOL    C537   537  -0.1150000   12.0115
  538        CA    1  MOL    C538   538  -0.1150000   12.0115
  539         C    1  MOL    C539   539   0.6150000   12.0115
  540         N    1  MOL    N540   540  -0.3850000   14.0067
  541        CA    1  MOL    C541   541   0.0850000   12.0115
  542        CA    1  MOL    C542   542  -0.1150000   12.0115
  543        CA    1  MOL    C543   543  -0.1150000   12.0115
  544        CA    1  MOL    C544   544   0.1800000   12.0115
  545        NE    1  MOL    N545   545  -0.9000000   14.0067
  546        CA    1  MOL    C546   546  -0.1150000   12.0115
  547        CA    1  MOL    C547   547  -0.1150000   12.0115
  548         O    1  MOL    O548   548  -0.5000000   15.9994
  549        CA    1  MOL    C549   549  -0.1150000   12.0115
  550        CA    1  MOL    C550   550  -0.1150000   12.0115
  551         O    1  MOL    O551   551  -0.5000000   15.9994
  552        HA    1  MOL    H552   552   0.1150000    1.0080
  553        HA    1  MOL    H553   553   0.1150000    1.0080
  554         H    1  MOL    H554   554   0.3000000    1.0080
  555        HA    1  MOL    H555   555   0.1150000    1.0080
  556        HA    1  MOL    H556   556   0.1150000    1.0080
  557         H    1  MOL    H557   557   0.3600000    1.0080
  558        HA    1  MOL    H558   558   0.1150000    1.0080
  559        HA    1  MOL    H559   559   0.1150000    1.0080
  560        HA    1  MOL    H560   560   0.1150000    1.0080
  561        HA    1  MOL    H561   561   0.1150000    1.0080
  562         H    1  MOL    H562   562   0.3600000    1.0080

[ bonds ]
      1      2   1      0.1470 259408.0000
      1     18   1      0.1229 476976.0000
      1     29   1      0.1090 284512.0000
      2      3   1      0.1400 392459.2000
      2     17   1      0.1400 392459.2000
      3      4   1      0.1400 392459.2000
      3     19   1      0.1080 307105.6000
      4      5   1      0.1400 392459.2000
      4     20   1      0.1080 307105.6000
      5      6   1      0.1490 334720.0000
      5     16   1      0.1400 392459.2000
      6      7   1      0.1335 410032.0000
      6     15   1      0.1229 476976.0000
      7      8   1      0.1404 301248.0000
      7     21   1      0.1010 363171.2000
      8      9   1      0.1400 392459.2000
      8     14   1      0.1400 392459.2000
      9     10   1      0.1400 392459.2000
      9     22   1      0.1080 307105.6000
     10     11   1      0.1400 392459.2000
     10     23   1      0.1080 307105.6000
     11     12   1      0.1404 301248.0000
     11     13   1      0.1400 392459.2000
     12     24   1      0.1010 363171.2000
     12     30   1      0.1335 410032.0000
     13     14   1      0.1400 392459.2000
     13     25   1      0.1080 307105.6000
     14     26   1      0.1080 307105.6000
     16     17   1      0.1400 392459.2000
     16     27   1      0.1080 307105.6000
     17     28   1      0.1080 307105.6000
     30     31   1      0.1490 334720.0000
     30     47   1      0.1229 476976.0000
     31     32   1      0.1400 392459.2000
     31     46   1      0.1400 392459.2000
     32     33   1      0.1400 392459.2000
     32     48   1      0.1080 307105.6000
     33     34   1      0.1400 392459.2000
     33     49   1      0.1080 307105.6000
     34     35   1      0.1490 334720.0000
     34     45   1      0.1400 392459.2000
     35     36   1      0.1335 410032.0000
     35     44   1      0.1229 476976.0000
     36     37   1      0.1404 301248.0000
     36     50   1      0.1010 363171.2000
     37     38   1      0.1400 392459.2000
     37     43   1      0.1400 392459.2000
     38     39   1      0.1400 392459.2000
     38     51   1      0.1080 307105.6000
     39     40   1      0.1400 392459.2000
     39     52   1      0.1080 307105.6000
     40     41   1      0.1404 301248.0000
     40     42   1      0.1400 392459.2000
     41     53   1      0.1010 363171.2000
     41     58   1      0.1335 410032.0000
     42     43   1      0.1400 392459.2000
     42     54   1      0.1080 307105.6000
     43     55   1      0.1080 307105.6000
     45     46   1      0.1400 392459.2000
     45     56   1      0.1080 307105.6000
     46     57   1      0.1080 307105.6000
     58     59   1      0.1490 334720.0000
     58     75   1      0.1229 476976.0000
     59     60   1      0.1400 392459.2000
     59     74   1      0.1400 392459.2000
     60     61   1      0.1400 392459.2000
     60     76   1      0.1080 307105.6000
     61     62   1      0.1400 392459.2000
     61     77   1      0.1080 307105.6000
     62     63   1      0.1490 334720.0000
     62     73   1      0.1400 392459.2000
     63     64   1      0.1335 410032.0000
     63     72   1      0.1229 476976.0000
     64     65   1      0.1404 301248.0000
     64     78   1      0.1010 363171.2000
     65     66   1      0.1400 392459.2000
     65     71   1      0.1400 392459.2000
     66     67   1      0.1400 392459.2000
     66     79   1      0.1080 307105.6000
     67     68   1      0.1400 392459.2000
     67     80   1      0.1080 307105.6000
     68     69   1      0.1404 301248.0000
     68     70   1      0.1400 392459.2000
     69     81   1      0.1010 363171.2000
     69     86   1      0.1335 410032.0000
     70     71   1      0.1400 392459.2000
     70     82   1      0.1080 307105.6000
     71     83   1      0.1080 307105.6000
     73     74   1      0.1400 392459.2000
     73     84   1      0.1080 307105.6000
     74     85   1      0.1080 307105.6000
     86     87   1      0.1490 334720.0000
     86    103   1      0.1229 476976.0000
     87     88   1      0.1400 392459.2000
     87    102   1      0.1400 392459.2000
     88     89   1      0.1400 392459.2000
     88    104   1      0.1080 307105.6000
     89     90   1      0.1400 392459.2000
     89    105   1      0.1080 307105.6000
     90     91   1      0.1490 334720.0000
     90    101   1      0.1400 392459.2000
     91     92   1      0.1335 410032.0000
     91    100   1      0.1229 476976.0000
     92     93   1      0.1404 301248.0000
     92    106   1      0.1010 363171.2000
     93     94   1      0.1400 392459.2000
     93     99   1      0.1400 392459.2000
     94     95   1      0.1400 392459.2000
     94    107   1      0.1080 307105.6000
     95     96   1      0.1400 392459.2000
     95    108   1      0.1080 307105.6000
     96     97   1      0.1404 301248.0000
     96     98   1      0.1400 392459.2000
     97    109   1      0.1010 363171.2000
     97    114   1      0.1335 410032.0000
     98     99   1      0.1400 392459.2000
     98    110   1      0.1080 307105.6000
     99    111   1      0.1080 307105.6000
    101    102   1      0.1400 392459.2000
    101    112   1      0.1080 307105.6000
    102    113   1      0.1080 307105.6000
    114    115   1      0.1490 334720.0000
    114    131   1      0.1229 476976.0000
    115    116   1      0.1400 392459.2000
    115    130   1      0.1400 392459.2000
    116    117   1      0.1400 392459.2000
    116    132   1      0.1080 307105.6000
    117    118   1      0.1400 392459.2000
    117    133   1      0.1080 307105.6000
    118    119   1      0.1490 334720.0000
    118    129   1      0.1400 392459.2000
    119    120   1      0.1335 410032.0000
    119    128   1      0.1229 476976.0000
    120    121   1      0.1404 301248.0000
    120    134   1      0.1010 363171.2000
    121    122   1      0.1400 392459.2000
    121    127   1      0.1400 392459.2000
    122    123   1      0.1400 392459.2000
    122    135   1      0.1080 307105.6000
    123    124   1      0.1400 392459.2000
    123    136   1      0.1080 307105.6000
    124    125   1      0.1404 301248.0000
    124    126   1      0.1400 392459.2000
    125    137   1      0.1010 363171.2000
    125    142   1      0.1335 410032.0000
    126    127   1      0.1400 392459.2000
    126    138   1      0.1080 307105.6000
    127    139   1      0.1080 307105.6000
    129    130   1      0.1400 392459.2000
    129    140   1      0.1080 307105.6000
    130    141   1      0.1080 307105.6000
    142    143   1      0.1490 334720.0000
    142    159   1      0.1229 476976.0000
    143    144   1      0.1400 392459.2000
    143    158   1      0.1400 392459.2000
    144    145   1      0.1400 392459.2000
    144    160   1      0.1080 307105.6000
    145    146   1      0.1400 392459.2000
    145    161   1      0.1080 307105.6000
    146    147   1      0.1490 334720.0000
    146    157   1      0.1400 392459.2000
    147    148   1      0.1335 410032.0000
    147    156   1      0.1229 476976.0000
    148    149   1      0.1404 301248.0000
    148    162   1      0.1010 363171.2000
    149    150   1      0.1400 392459.2000
    149    155   1      0.1400 392459.2000
    150    151   1      0.1400 392459.2000
    150    163   1      0.1080 307105.6000
    151    152   1      0.1400 392459.2000
    151    164   1      0.1080 307105.6000
    152    153   1      0.1404 301248.0000
    152    154   1      0.1400 392459.2000
    153    165   1      0.1010 363171.2000
    153    170   1      0.1335 410032.0000
    154    155   1      0.1400 392459.2000
    154    166   1      0.1080 307105.6000
    155    167   1      0.1080 307105.6000
    157    158   1      0.1400 392459.2000
    157    168   1      0.1080 307105.6000
    158    169   1      0.1080 307105.6000
    170    171   1      0.1490 334720.0000
    170    187   1      0.1229 476976.0000
    171    172   1      0.1400 392459.2000
    171    186   1      0.1400 392459.2000
    172    173   1      0.1400 392459.2000
    172    188   1      0.1080 307105.6000
    173    174   1      0.1400 392459.2000
    173    189   1      0.1080 307105.6000
    174    175   1      0.1490 334720.0000
    174    185   1      0.1400 392459.2000
    175    176   1      0.1335 410032.0000
    175    184   1      0.1229 476976.0000
    176    177   1      0.1404 301248.0000
    176    190   1      0.1010 363171.2000
    177    178   1      0.1400 392459.2000
    177    183   1      0.1400 392459.2000
    178    179   1      0.1400 392459.2000
    178    191   1      0.1080 307105.6000
    179    180   1      0.1400 392459.2000
    179    192   1      0.1080 307105.6000
    180    181   1      0.1404 301248.0000
    180    182   1      0.1400 392459.2000
    181    193   1      0.1010 363171.2000
    181    198   1      0.1335 410032.0000
    182    183   1      0.1400 392459.2000
    182    194   1      0.1080 307105.6000
    183    195   1      0.1080 307105.6000
    185    186   1      0.1400 392459.2000
    185    196   1      0.1080 307105.6000
    186    197   1      0.1080 307105.6000
    198    199   1      0.1490 334720.0000
    198    215   1      0.1229 476976.0000
    199    200   1      0.1400 392459.2000
    199    214   1      0.1400 392459.2000
    200    201   1      0.1400 392459.2000
    200    216   1      0.1080 307105.6000
    201    202   1      0.1400 392459.2000
    201    217   1      0.1080 307105.6000
    202    203   1      0.1490 334720.0000
    202    213   1      0.1400 392459.2000
    203    204   1      0.1335 410032.0000
    203    212   1      0.1229 476976.0000
    204    205   1      0.1404 301248.0000
    204    218   1      0.1010 363171.2000
    205    206   1      0.1400 392459.2000
    205    211   1      0.1400 392459.2000
    206    207   1      0.1400 392459.2000
    206    219   1      0.1080 307105.6000
    207    208   1      0.1400 392459.2000
    207    220   1      0.1080 307105.6000
    208    209   1      0.1404 301248.0000
    208    210   1      0.1400 392459.2000
    209    221   1      0.1010 363171.2000
    209    226   1      0.1335 410032.0000
    210    211   1      0.1400 392459.2000
    210    222   1      0.1080 307105.6000
    211    223   1      0.1080 307105.6000
    213    214   1      0.1400 392459.2000
    213    224   1      0.1080 307105.6000
    214    225   1      0.1080 307105.6000
    226    227   1      0.1490 334720.0000
    226    243   1      0.1229 476976.0000
    227    228   1      0.1400 392459.2000
    227    242   1      0.1400 392459.2000
    228    229   1      0.1400 392459.2000
    228    244   1      0.1080 307105.6000
    229    230   1      0.1400 392459.2000
    229    245   1      0.1080 307105.6000
    230    231   1      0.1490 334720.0000
    230    241   1      0.1400 392459.2000
    231    232   1      0.1335 410032.0000
    231    240   1      0.1229 476976.0000
    232    233   1      0.1404 301248.0000
    232    246   1      0.1010 363171.2000
    233    234   1      0.1400 392459.2000
    233    239   1      0.1400 392459.2000
    234    235   1      0.1400 392459.2000
    234    247   1      0.1080 307105.6000
    235    236   1      0.1400 392459.2000
    235    248   1      0.1080 307105.6000
    236    237   1      0.1404 301248.0000
    236    238   1      0.1400 392459.2000
    237    249   1      0.1010 363171.2000
    237    254   1      0.1335 410032.0000
    238    239   1      0.1400 392459.2000
    238    250   1      0.1080 307105.6000
    239    251   1      0.1080 307105.6000
    241    242   1      0.1400 392459.2000
    241    252   1      0.1080 307105.6000
    242    253   1      0.1080 307105.6000
    254    255   1      0.1490 334720.0000
    254    271   1      0.1229 476976.0000
    255    256   1      0.1400 392459.2000
    255    270   1      0.1400 392459.2000
    256    257   1      0.1400 392459.2000
    256    272   1      0.1080 307105.6000
    257    258   1      0.1400 392459.2000
    257    273   1      0.1080 307105.6000
    258    259   1      0.1490 334720.0000
    258    269   1      0.1400 392459.2000
    259    260   1      0.1335 410032.0000
    259    268   1      0.1229 476976.0000
    260    261   1      0.1404 301248.0000
    260    274   1      0.1010 363171.2000
    261    262   1      0.1400 392459.2000
    261    267   1      0.1400 392459.2000
    262    263   1      0.1400 392459.2000
    262    275   1      0.1080 307105.6000
    263    264   1      0.1400 392459.2000
    263    276   1      0.1080 307105.6000
    264    265   1      0.1404 301248.0000
    264    266   1      0.1400 392459.2000
    265    277   1      0.1010 363171.2000
    265    282   1      0.1335 410032.0000
    266    267   1      0.1400 392459.2000
    266    278   1      0.1080 307105.6000
    267    279   1      0.1080 307105.6000
    269    270   1      0.1400 392459.2000
    269    280   1      0.1080 307105.6000
    270    281   1      0.1080 307105.6000
    282    283   1      0.1490 334720.0000
    282    299   1      0.1229 476976.0000
    283    284   1      0.1400 392459.2000
    283    298   1      0.1400 392459.2000
    284    285   1      0.1400 392459.2000
    284    300   1      0.1080 307105.6000
    285    286   1      0.1400 392459.2000
    285    301   1      0.1080 307105.6000
    286    287   1      0.1490 334720.0000
    286    297   1      0.1400 392459.2000
    287    288   1      0.1335 410032.0000
    287    296   1      0.1229 476976.0000
    288    289   1      0.1404 301248.0000
    288    302   1      0.1010 363171.2000
    289    290   1      0.1400 392459.2000
    289    295   1      0.1400 392459.2000
    290    291   1      0.1400 392459.2000
    290    303   1      0.1080 307105.6000
    291    292   1      0.1400 392459.2000
    291    304   1      0.1080 307105.6000
    292    293   1      0.1404 301248.0000
    292    294   1      0.1400 392459.2000
    293    305   1      0.1010 363171.2000
    293    310   1      0.1335 410032.0000
    294    295   1      0.1400 392459.2000
    294    306   1      0.1080 307105.6000
    295    307   1      0.1080 307105.6000
    297    298   1      0.1400 392459.2000
    297    308   1      0.1080 307105.6000
    298    309   1      0.1080 307105.6000
    310    311   1      0.1490 334720.0000
    310    327   1      0.1229 476976.0000
    311    312   1      0.1400 392459.2000
    311    326   1      0.1400 392459.2000
    312    313   1      0.1400 392459.2000
    312    328   1      0.1080 307105.6000
    313    314   1      0.1400 392459.2000
    313    329   1      0.1080 307105.6000
    314    315   1      0.1490 334720.0000
    314    325   1      0.1400 392459.2000
    315    316   1      0.1335 410032.0000
    315    324   1      0.1229 476976.0000
    316    317   1      0.1404 301248.0000
    316    330   1      0.1010 363171.2000
    317    318   1      0.1400 392459.2000
    317    323   1      0.1400 392459.2000
    318    319   1      0.1400 392459.2000
    318    331   1      0.1080 307105.6000
    319    320   1      0.1400 392459.2000
    319    332   1      0.1080 307105.6000
    320    321   1      0.1404 301248.0000
    320    322   1      0.1400 392459.2000
    321    333   1      0.1010 363171.2000
    321    338   1      0.1335 410032.0000
    322    323   1      0.1400 392459.2000
    322    334   1      0.1080 307105.6000
    323    335   1      0.1080 307105.6000
    325    326   1      0.1400 392459.2000
    325    336   1      0.1080 307105.6000
    326    337   1      0.1080 307105.6000
    338    339   1      0.1490 334720.0000
    338    355   1      0.1229 476976.0000
    339    340   1      0.1400 392459.2000
    339    354   1      0.1400 392459.2000
    340    341   1      0.1400 392459.2000
    340    356   1      0.1080 307105.6000
    341    342   1      0.1400 392459.2000
    341    357   1      0.1080 307105.6000
    342    343   1      0.1490 334720.0000
    342    353   1      0.1400 392459.2000
    343    344   1      0.1335 410032.0000
    343    352   1      0.1229 476976.0000
    344    345   1      0.1404 301248.0000
    344    358   1      0.1010 363171.2000
    345    346   1      0.1400 392459.2000
    345    351   1      0.1400 392459.2000
    346    347   1      0.1400 392459.2000
    346    359   1      0.1080 307105.6000
    347    348   1      0.1400 392459.2000
    347    360   1      0.1080 307105.6000
    348    349   1      0.1404 301248.0000
    348    350   1      0.1400 392459.2000
    349    361   1      0.1010 363171.2000
    349    366   1      0.1335 410032.0000
    350    351   1      0.1400 392459.2000
    350    362   1      0.1080 307105.6000
    351    363   1      0.1080 307105.6000
    353    354   1      0.1400 392459.2000
    353    364   1      0.1080 307105.6000
    354    365   1      0.1080 307105.6000
    366    367   1      0.1490 334720.0000
    366    383   1      0.1229 476976.0000
    367    368   1      0.1400 392459.2000
    367    382   1      0.1400 392459.2000
    368    369   1      0.1400 392459.2000
    368    384   1      0.1080 307105.6000
    369    370   1      0.1400 392459.2000
    369    385   1      0.1080 307105.6000
    370    371   1      0.1490 334720.0000
    370    381   1      0.1400 392459.2000
    371    372   1      0.1335 410032.0000
    371    380   1      0.1229 476976.0000
    372    373   1      0.1404 301248.0000
    372    386   1      0.1010 363171.2000
    373    374   1      0.1400 392459.2000
    373    379   1      0.1400 392459.2000
    374    375   1      0.1400 392459.2000
    374    387   1      0.1080 307105.6000
    375    376   1      0.1400 392459.2000
    375    388   1      0.1080 307105.6000
    376    377   1      0.1404 301248.0000
    376    378   1      0.1400 392459.2000
    377    389   1      0.1010 363171.2000
    377    394   1      0.1335 410032.0000
    378    379   1      0.1400 392459.2000
    378    390   1      0.1080 307105.6000
    379    391   1      0.1080 307105.6000
    381    382   1      0.1400 392459.2000
    381    392   1      0.1080 307105.6000
    382    393   1      0.1080 307105.6000
    394    395   1      0.1490 334720.0000
    394    411   1      0.1229 476976.0000
    395    396   1      0.1400 392459.2000
    395    410   1      0.1400 392459.2000
    396    397   1      0.1400 392459.2000
    396    412   1      0.1080 307105.6000
    397    398   1      0.1400 392459.2000
    397    413   1      0.1080 307105.6000
    398    399   1      0.1490 334720.0000
    398    409   1      0.1400 392459.2000
    399    400   1      0.1335 410032.0000
    399    408   1      0.1229 476976.0000
    400    401   1      0.1404 301248.0000
    400    414   1      0.1010 363171.2000
    401    402   1      0.1400 392459.2000
    401    407   1      0.1400 392459.2000
    402    403   1      0.1400 392459.2000
    402    415   1      0.1080 307105.6000
    403    404   1      0.1400 392459.2000
    403    416   1      0.1080 307105.6000
    404    405   1      0.1404 301248.0000
    404    406   1      0.1400 392459.2000
    405    417   1      0.1010 363171.2000
    405    422   1      0.1335 410032.0000
    406    407   1      0.1400 392459.2000
    406    418   1      0.1080 307105.6000
    407    419   1      0.1080 307105.6000
    409    410   1      0.1400 392459.2000
    409    420   1      0.1080 307105.6000
    410    421   1      0.1080 307105.6000
    422    423   1      0.1490 334720.0000
    422    439   1      0.1229 476976.0000
    423    424   1      0.1400 392459.2000
    423    438   1      0.1400 392459.2000
    424    425   1      0.1400 392459.2000
    424    440   1      0.1080 307105.6000
    425    426   1      0.1400 392459.2000
    425    441   1      0.1080 307105.6000
    426    427   1      0.1490 334720.0000
    426    437   1      0.1400 392459.2000
    427    428   1      0.1335 410032.0000
    427    436   1      0.1229 476976.0000
    428    429   1      0.1404 301248.0000
    428    442   1      0.1010 363171.2000
    429    430   1      0.1400 392459.2000
    429    435   1      0.1400 392459.2000
    430    431   1      0.1400 392459.2000
    430    443   1      0.1080 307105.6000
    431    432   1      0.1400 392459.2000
    431    444   1      0.1080 307105.6000
    432    433   1      0.1404 301248.0000
    432    434   1      0.1400 392459.2000
    433    445   1      0.1010 363171.2000
    433    450   1      0.1335 410032.0000
    434    435   1      0.1400 392459.2000
    434    446   1      0.1080 307105.6000
    435    447   1      0.1080 307105.6000
    437    438   1      0.1400 392459.2000
    437    448   1      0.1080 307105.6000
    438    449   1      0.1080 307105.6000
    450    451   1      0.1490 334720.0000
    450    467   1      0.1229 476976.0000
    451    452   1      0.1400 392459.2000
    451    466   1      0.1400 392459.2000
    452    453   1      0.1400 392459.2000
    452    468   1      0.1080 307105.6000
    453    454   1      0.1400 392459.2000
    453    469   1      0.1080 307105.6000
    454    455   1      0.1490 334720.0000
    454    465   1      0.1400 392459.2000
    455    456   1      0.1335 410032.0000
    455    464   1      0.1229 476976.0000
    456    457   1      0.1404 301248.0000
    456    470   1      0.1010 363171.2000
    457    458   1      0.1400 392459.2000
    457    463   1      0.1400 392459.2000
    458    459   1      0.1400 392459.2000
    458    471   1      0.1080 307105.6000
    459    460   1      0.1400 392459.2000
    459    472   1      0.1080 307105.6000
    460    461   1      0.1404 301248.0000
    460    462   1      0.1400 392459.2000
    461    473   1      0.1010 363171.2000
    461    478   1      0.1335 410032.0000
    462    463   1      0.1400 392459.2000
    462    474   1      0.1080 307105.6000
    463    475   1      0.1080 307105.6000
    465    466   1      0.1400 392459.2000
    465    476   1      0.1080 307105.6000
    466    477   1      0.1080 307105.6000
    478    479   1      0.1490 334720.0000
    478    495   1      0.1229 476976.0000
    479    480   1      0.1400 392459.2000
    479    494   1      0.1400 392459.2000
    480    481   1      0.1400 392459.2000
    480    496   1      0.1080 307105.6000
    481    482   1      0.1400 392459.2000
    481    497   1      0.1080 307105.6000
    482    483   1      0.1490 334720.0000
    482    493   1      0.1400 392459.2000
    483    484   1      0.1335 410032.0000
    483    492   1      0.1229 476976.0000
    484    485   1      0.1404 301248.0000
    484    498   1      0.1010 363171.2000
    485    486   1      0.1400 392459.2000
    485    491   1      0.1400 392459.2000
    486    487   1      0.1400 392459.2000
    486    499   1      0.1080 307105.6000
    487    488   1      0.1400 392459.2000
    487    500   1      0.1080 307105.6000
    488    489   1      0.1404 301248.0000
    488    490   1      0.1400 392459.2000
    489    501   1      0.1010 363171.2000
    489    506   1      0.1335 410032.0000
    490    491   1      0.1400 392459.2000
    490    502   1      0.1080 307105.6000
    491    503   1      0.1080 307105.6000
    493    494   1      0.1400 392459.2000
    493    504   1      0.1080 307105.6000
    494    505   1      0.1080 307105.6000
    506    507   1      0.1490 334720.0000
    506    523   1      0.1229 476976.0000
    507    508   1      0.1400 392459.2000
    507    522   1      0.1400 392459.2000
    508    509   1      0.1400 392459.2000
    508    524   1      0.1080 307105.6000
    509    510   1      0.1400 392459.2000
    509    525   1      0.1080 307105.6000
    510    511   1      0.1490 334720.0000
    510    521   1      0.1400 392459.2000
    511    512   1      0.1335 410032.0000
    511    520   1      0.1229 476976.0000
    512    513   1      0.1404 301248.0000
    512    526   1      0.1010 363171.2000
    513    514   1      0.1400 392459.2000
    513    519   1      0.1400 392459.2000
    514    515   1      0.1400 392459.2000
    514    527   1      0.1080 307105.6000
    515    516   1      0.1400 392459.2000
    515    528   1      0.1080 307105.6000
    516    517   1      0.1404 301248.0000
    516    518   1      0.1400 392459.2000
    517    529   1      0.1010 363171.2000
    517    534   1      0.1335 410032.0000
    518    519   1      0.1400 392459.2000
    518    530   1      0.1080 307105.6000
    519    531   1      0.1080 307105.6000
    521    522   1      0.1400 392459.2000
    521    532   1      0.1080 307105.6000
    522    533   1      0.1080 307105.6000
    534    535   1      0.1490 334720.0000
    534    551   1      0.1229 476976.0000
    535    536   1      0.1400 392459.2000
    535    550   1      0.1400 392459.2000
    536    537   1      0.1400 392459.2000
    536    552   1      0.1080 307105.6000
    537    538   1      0.1400 392459.2000
    537    553   1      0.1080 307105.6000
    538    539   1      0.1490 334720.0000
    538    549   1      0.1400 392459.2000
    539    540   1      0.1335 410032.0000
    539    548   1      0.1229 476976.0000
    540    541   1      0.1404 301248.0000
    540    554   1      0.1010 363171.2000
    541    542   1      0.1400 392459.2000
    541    547   1      0.1400 392459.2000
    542    543   1      0.1400 392459.2000
    542    555   1      0.1080 307105.6000
    543    544   1      0.1400 392459.2000
    543    556   1      0.1080 307105.6000
    544    545   1      0.1393 402500.8000
    544    546   1      0.1400 392459.2000
    545    557   1      0.1010 363171.2000
    545    562   1      0.1010 363171.2000
    546    547   1      0.1400 392459.2000
    546    558   1      0.1080 307105.6000
    547    559   1      0.1080 307105.6000
    549    550   1      0.1400 392459.2000
    549    560   1      0.1080 307105.6000
    550    561   1      0.1080 307105.6000

[ pairs ]
; ai   aj   funct   fudge_QQ  charge_i   charge_j   c6    c12
     18      3   2   0.50000    -0.4500000   -0.1150000   1.177174e-03  1.365843e-06
     18     17   2   0.50000    -0.4500000   -0.1150000   1.177174e-03  1.365843e-06
     29      3   2   0.50000     0.0000000   -0.1150000   1.719283e-04  1.090131e-07
     29     17   2   0.50000     0.0000000   -0.1150000   1.719283e-04  1.090131e-07
      1      4   2   0.50000     0.5650000   -0.1150000   1.692561e-03  3.993218e-06
      1     19   2   0.50000     0.5650000    0.1150000   3.510079e-04  2.623353e-07
     17      4   2   0.50000    -0.1150000   -0.1150000   1.172438e-03  2.346713e-06
     17     19   2   0.50000    -0.1150000    0.1150000   2.431434e-04  1.541678e-07
      1     16   2   0.50000     0.5650000   -0.1150000   1.692561e-03  3.993218e-06
      1     28   2   0.50000     0.5650000    0.1150000   3.510079e-04  2.623353e-07
      3     16   2   0.50000    -0.1150000   -0.1150000   1.172438e-03  2.346713e-06
      3     28   2   0.50000    -0.1150000    0.1150000   2.431434e-04  1.541678e-07
      2      5   2   0.50000    -0.1150000   -0.1150000   1.172438e-03  2.346713e-06
      2     20   2   0.50000    -0.1150000    0.1150000   2.431434e-04  1.541678e-07
     19      5   2   0.50000     0.1150000   -0.1150000   2.431434e-04  1.541678e-07
     19     20   2   0.50000     0.1150000    0.1150000   5.042375e-05  1.012808e-08
      3      6   2   0.50000    -0.1150000    0.6150000   1.692561e-03  3.993218e-06
     20      6   2   0.50000     0.1150000    0.6150000   3.510079e-04  2.623353e-07
     20     16   2   0.50000     0.1150000   -0.1150000   2.431434e-04  1.541678e-07
      4      7   2   0.50000    -0.1150000   -0.3850000   1.401943e-03  2.153106e-06
      4     15   2   0.50000    -0.1150000   -0.5000000   1.177174e-03  1.365843e-06
     16      7   2   0.50000    -0.1150000   -0.3850000   1.401943e-03  2.153106e-06
     16     15   2   0.50000    -0.1150000   -0.5000000   1.177174e-03  1.365843e-06
      4     27   2   0.50000    -0.1150000    0.1150000   2.431434e-04  1.541678e-07
      6     17   2   0.50000     0.6150000   -0.1150000   1.692561e-03  3.993218e-06
      6     27   2   0.50000     0.6150000    0.1150000   3.510079e-04  2.623353e-07
      5      8   2   0.50000    -0.1150000    0.0850000   1.172438e-03  2.346713e-06
      5     21   2   0.50000    -0.1150000    0.3000000   2.144502e-06  1.199282e-11
     15      8   2   0.50000    -0.5000000    0.0850000   1.177174e-03  1.365843e-06
     15     21   2   0.50000    -0.5000000    0.3000000   2.153164e-06  6.980110e-12
      6      9   2   0.50000     0.6150000   -0.1150000   1.692561e-03  3.993218e-06
      6     14   2   0.50000     0.6150000   -0.1150000   1.692561e-03  3.993218e-06
     21      9   2   0.50000     0.3000000   -0.1150000   2.144502e-06  1.199282e-11
     21     14   2   0.50000     0.3000000   -0.1150000   2.144502e-06  1.199282e-11
      7     10   2   0.50000    -0.3850000   -0.1150000   1.401943e-03  2.153106e-06
      7     22   2   0.50000    -0.3850000    0.1150000   2.907388e-04  1.414488e-07
     14     10   2   0.50000    -0.1150000   -0.1150000   1.172438e-03  2.346713e-06
     14     22   2   0.50000    -0.1150000    0.1150000   2.431434e-04  1.541678e-07
      7     13   2   0.50000    -0.3850000   -0.1150000   1.401943e-03  2.153106e-06
      7     26   2   0.50000    -0.3850000    0.1150000   2.907388e-04  1.414488e-07
      9     13   2   0.50000    -0.1150000   -0.1150000   1.172438e-03  2.346713e-06
      9     26   2   0.50000    -0.1150000    0.1150000   2.431434e-04  1.541678e-07
      8     11   2   0.50000     0.0850000    0.0850000   1.172438e-03  2.346713e-06
      8     23   2   0.50000     0.0850000    0.1150000   2.431434e-04  1.541678e-07
     22     11   2   0.50000     0.1150000    0.0850000   2.431434e-04  1.541678e-07
     22     23   2   0.50000     0.1150000    0.1150000   5.042375e-05  1.012808e-08
      9     12   2   0.50000    -0.1150000   -0.3850000   1.401943e-03  2.153106e-06
     23     12   2   0.50000     0.1150000   -0.3850000   2.907388e-04  1.414488e-07
     23     13   2   0.50000     0.1150000   -0.1150000   2.431434e-04  1.541678e-07
     10     24   2   0.50000    -0.1150000    0.3000000   2.144502e-06  1.199282e-11
     10     30   2   0.50000    -0.1150000    0.6150000   1.692561e-03  3.993218e-06
     13     24   2   0.50000    -0.1150000    0.3000000   2.144502e-06  1.199282e-11
     13     30   2   0.50000    -0.1150000    0.6150000   1.692561e-03  3.993218e-06
     10     25   2   0.50000    -0.1150000    0.1150000   2.431434e-04  1.541678e-07
     12     14   2   0.50000    -0.3850000   -0.1150000   1.401943e-03  2.153106e-06
     12     25   2   0.50000    -0.3850000    0.1150000   2.907388e-04  1.414488e-07
     11     31   2   0.50000     0.0850000   -0.1150000   1.172438e-03  2.346713e-06
     11     47   2   0.50000     0.0850000   -0.5000000   1.177174e-03  1.365843e-06
     24     31   2   0.50000     0.3000000   -0.1150000   2.144502e-06  1.199282e-11
     24     47   2   0.50000     0.3000000   -0.5000000   2.153164e-06  6.980110e-12
     11     26   2   0.50000     0.0850000    0.1150000   2.431434e-04  1.541678e-07
     25      8   2   0.50000     0.1150000    0.0850000   2.431434e-04  1.541678e-07
     25     26   2   0.50000     0.1150000    0.1150000   5.042375e-05  1.012808e-08
      5     28   2   0.50000    -0.1150000    0.1150000   2.431434e-04  1.541678e-07
     27      2   2   0.50000     0.1150000   -0.1150000   2.431434e-04  1.541678e-07
     27     28   2   0.50000     0.1150000    0.1150000   5.042375e-05  1.012808e-08
     12     32   2   0.50000    -0.3850000   -0.1150000   1.401943e-03  2.153106e-06
     12     46   2   0.50000    -0.3850000   -0.1150000   1.401943e-03  2.153106e-06
     47     32   2   0.50000    -0.5000000   -0.1150000   1.177174e-03  1.365843e-06
     47     46   2   0.50000    -0.5000000   -0.1150000   1.177174e-03  1.365843e-06
     30     33   2   0.50000     0.6150000   -0.1150000   1.692561e-03  3.993218e-06
     30     48   2   0.50000     0.6150000    0.1150000   3.510079e-04  2.623353e-07
     46     33   2   0.50000    -0.1150000   -0.1150000   1.172438e-03  2.346713e-06
     46     48   2   0.50000    -0.1150000    0.1150000   2.431434e-04  1.541678e-07
     30     45   2   0.50000     0.6150000   -0.1150000   1.692561e-03  3.993218e-06
     30     57   2   0.50000     0.6150000    0.1150000   3.510079e-04  2.623353e-07
     32     45   2   0.50000    -0.1150000   -0.1150000   1.172438e-03  2.346713e-06
     32     57   2   0.50000    -0.1150000    0.1150000   2.431434e-04  1.541678e-07
     31     34   2   0.50000    -0.1150000   -0.1150000   1.172438e-03  2.346713e-06
     31     49   2   0.50000    -0.1150000    0.1150000   2.431434e-04  1.541678e-07
     48     34   2   0.50000     0.1150000   -0.1150000   2.431434e-04  1.541678e-07
     48     49   2   0.50000     0.1150000    0.1150000   5.042375e-05  1.012808e-08
     32     35   2   0.50000    -0.1150000    0.6150000   1.692561e-03  3.993218e-06
     49     35   2   0.50000     0.1150000    0.6150000   3.510079e-04  2.623353e-07
     49     45   2   0.50000     0.1150000   -0.1150000   2.431434e-04  1.541678e-07
     33     36   2   0.50000    -0.1150000   -0.3850000   1.401943e-03  2.153106e-06
     33     44   2   0.50000    -0.1150000   -0.5000000   1.177174e-03  1.365843e-06
     45     36   2   0.50000    -0.1150000   -0.3850000   1.401943e-03  2.153106e-06
     45     44   2   0.50000    -0.1150000   -0.5000000   1.177174e-03  1.365843e-06
     33     56   2   0.50000    -0.1150000    0.1150000   2.431434e-04  1.541678e-07
     35     46   2   0.50000     0.6150000   -0.1150000   1.692561e-03  3.993218e-06
     35     56   2   0.50000     0.6150000    0.1150000   3.510079e-04  2.623353e-07
     34     37   2   0.50000    -0.1150000    0.0850000   1.172438e-03  2.346713e-06
     34     50   2   0.50000    -0.1150000    0.3000000   2.144502e-06  1.199282e-11
     44     37   2   0.50000    -0.5000000    0.0850000   1.177174e-03  1.365843e-06
     44     50   2   0.50000    -0.5000000    0.3000000   2.153164e-06  6.980110e-12
     35     38   2   0.50000     0.6150000   -0.1150000   1.692561e-03  3.993218e-06
     35     43   2   0.50000     0.6150000   -0.1150000   1.692561e-03  3.993218e-06
     50     38   2   0.50000     0.3000000   -0.1150000   2.144502e-06  1.199282e-11
     50     43   2   0.50000     0.3000000   -0.1150000   2.144502e-06  1.199282e-11
     36     39   2   0.50000    -0.3850000   -0.1150000   1.401943e-03  2.153106e-06
     36     51   2   0.50000    -0.3850000    0.1150000   2.907388e-04  1.414488e-07
     43     39   2   0.50000    -0.1150000   -0.1150000   1.172438e-03  2.346713e-06
     43     51   2   0.50000    -0.1150000    0.1150000   2.431434e-04  1.541678e-07
     36     42   2   0.50000    -0.3850000   -0.1150000   1.401943e-03  2.153106e-06
     36     55   2   0.50000    -0.3850000    0.1150000   2.907388e-04  1.414488e-07
     38     42   2   0.50000    -0.1150000   -0.1150000   1.172438e-03  2.346713e-06
     38     55   2   0.50000    -0.1150000    0.1150000   2.431434e-04  1.541678e-07
     37     40   2   0.50000     0.0850000    0.0850000   1.172438e-03  2.346713e-06
     37     52   2   0.50000     0.0850000    0.1150000   2.431434e-04  1.541678e-07
     51     40   2   0.50000     0.1150000    0.0850000   2.431434e-04  1.541678e-07
     51     52   2   0.50000     0.1150000    0.1150000   5.042375e-05  1.012808e-08
     38     41   2   0.50000    -0.1150000   -0.3850000   1.401943e-03  2.153106e-06
     52     41   2   0.50000     0.1150000   -0.3850000   2.907388e-04  1.414488e-07
     52     42   2   0.50000     0.1150000   -0.1150000   2.431434e-04  1.541678e-07
     39     53   2   0.50000    -0.1150000    0.3000000   2.144502e-06  1.199282e-11
     39     58   2   0.50000    -0.1150000    0.6150000   1.692561e-03  3.993218e-06
     42     53   2   0.50000    -0.1150000    0.3000000   2.144502e-06  1.199282e-11
     42     58   2   0.50000    -0.1150000    0.6150000   1.692561e-03  3.993218e-06
     39     54   2   0.50000    -0.1150000    0.1150000   2.431434e-04  1.541678e-07
     41     43   2   0.50000    -0.3850000   -0.1150000   1.401943e-03  2.153106e-06
     41     54   2   0.50000    -0.3850000    0.1150000   2.907388e-04  1.414488e-07
     40     59   2   0.50000     0.0850000   -0.1150000   1.172438e-03  2.346713e-06
     40     75   2   0.50000     0.0850000   -0.5000000   1.177174e-03  1.365843e-06
     53     59   2   0.50000     0.3000000   -0.1150000   2.144502e-06  1.199282e-11
     53     75   2   0.50000     0.3000000   -0.5000000   2.153164e-06  6.980110e-12
     40     55   2   0.50000     0.0850000    0.1150000   2.431434e-04  1.541678e-07
     54     37   2   0.50000     0.1150000    0.0850000   2.431434e-04  1.541678e-07
     54     55   2   0.50000     0.1150000    0.1150000   5.042375e-05  1.012808e-08
     34     57   2   0.50000    -0.1150000    0.1150000   2.431434e-04  1.541678e-07
     56     31   2   0.50000     0.1150000   -0.1150000   2.431434e-04  1.541678e-07
     56     57   2   0.50000     0.1150000    0.1150000   5.042375e-05  1.012808e-08
     41     60   2   0.50000    -0.3850000   -0.1150000   1.401943e-03  2.153106e-06
     41     74   2   0.50000    -0.3850000   -0.1150000   1.401943e-03  2.153106e-06
     75     60   2   0.50000    -0.5000000   -0.1150000   1.177174e-03  1.365843e-06
     75     74   2   0.50000    -0.5000000   -0.1150000   1.177174e-03  1.365843e-06
     58     61   2   0.50000     0.6150000   -0.1150000   1.692561e-03  3.993218e-06
     58     76   2   0.50000     0.6150000    0.1150000   3.510079e-04  2.623353e-07
     74     61   2   0.50000    -0.1150000   -0.1150000   1.172438e-03  2.346713e-06
     74     76   2   0.50000    -0.1150000    0.1150000   2.431434e-04  1.541678e-07
     58     73   2   0.50000     0.6150000   -0.1150000   1.692561e-03  3.993218e-06
     58     85   2   0.50000     0.6150000    0.1150000   3.510079e-04  2.623353e-07
     60     73   2   0.50000    -0.1150000   -0.1150000   1.172438e-03  2.346713e-06
     60     85   2   0.50000    -0.1150000    0.1150000   2.431434e-04  1.541678e-07
     59     62   2   0.50000    -0.1150000   -0.1150000   1.172438e-03  2.346713e-06
     59     77   2   0.50000    -0.1150000    0.1150000   2.431434e-04  1.541678e-07
     76     62   2   0.50000     0.1150000   -0.1150000   2.431434e-04  1.541678e-07
     76     77   2   0.50000     0.1150000    0.1150000   5.042375e-05  1.012808e-08
     60     63   2   0.50000    -0.1150000    0.6150000   1.692561e-03  3.993218e-06
     77     63   2   0.50000     0.1150000    0.6150000   3.510079e-04  2.623353e-07
     77     73   2   0.50000     0.1150000   -0.1150000   2.431434e-04  1.541678e-07
     61     64   2   0.50000    -0.1150000   -0.3850000   1.401943e-03  2.153106e-06
     61     72   2   0.50000    -0.1150000   -0.5000000   1.177174e-03  1.365843e-06
     73     64   2   0.50000    -0.1150000   -0.3850000   1.401943e-03  2.153106e-06
     73     72   2   0.50000    -0.1150000   -0.5000000   1.177174e-03  1.365843e-06
     61     84   2   0.50000    -0.1150000    0.1150000   2.431434e-04  1.541678e-07
     63     74   2   0.50000     0.6150000   -0.1150000   1.692561e-03  3.993218e-06
     63     84   2   0.50000     0.6150000    0.1150000   3.510079e-04  2.623353e-07
     62     65   2   0.50000    -0.1150000    0.0850000   1.172438e-03  2.346713e-06
     62     78   2   0.50000    -0.1150000    0.3000000   2.144502e-06  1.199282e-11
     72     65   2   0.50000    -0.5000000    0.0850000   1.177174e-03  1.365843e-06
     72     78   2   0.50000    -0.5000000    0.3000000   2.153164e-06  6.980110e-12
     63     66   2   0.50000     0.6150000   -0.1150000   1.692561e-03  3.993218e-06
     63     71   2   0.50000     0.6150000   -0.1150000   1.692561e-03  3.993218e-06
     78     66   2   0.50000     0.3000000   -0.1150000   2.144502e-06  1.199282e-11
     78     71   2   0.50000     0.3000000   -0.1150000   2.144502e-06  1.199282e-11
     64     67   2   0.50000    -0.3850000   -0.1150000   1.401943e-03  2.153106e-06
     64     79   2   0.50000    -0.3850000    0.1150000   2.907388e-04  1.414488e-07
     71     67   2   0.50000    -0.1150000   -0.1150000   1.172438e-03  2.346713e-06
     71     79   2   0.50000    -0.1150000    0.1150000   2.431434e-04  1.541678e-07
     64     70   2   0.50000    -0.3850000   -0.1150000   1.401943e-03  2.153106e-06
     64     83   2   0.50000    -0.3850000    0.1150000   2.907388e-04  1.414488e-07
     66     70   2   0.50000    -0.1150000   -0.1150000   1.172438e-03  2.346713e-06
     66     83   2   0.50000    -0.1150000    0.1150000   2.431434e-04  1.541678e-07
     65     68   2   0.50000     0.0850000    0.0850000   1.172438e-03  2.346713e-06
     65     80   2   0.50000     0.0850000    0.1150000   2.431434e-04  1.541678e-07
     79     68   2   0.50000     0.1150000    0.0850000   2.431434e-04  1.541678e-07
     79     80   2   0.50000     0.1150000    0.1150000   5.042375e-05  1.012808e-08
     66     69   2   0.50000    -0.1150000   -0.3850000   1.401943e-03  2.153106e-06
     80     69   2   0.50000     0.1150000   -0.3850000   2.907388e-04  1.414488e-07
     80     70   2   0.50000     0.1150000   -0.1150000   2.431434e-04  1.541678e-07
     67     81   2   0.50000    -0.1150000    0.3000000   2.144502e-06  1.199282e-11
     67     86   2   0.50000    -0.1150000    0.6150000   1.692561e-03  3.993218e-06
     70     81   2   0.50000    -0.1150000    0.3000000   2.144502e-06  1.199282e-11
     70     86   2   0.50000    -0.1150000    0.6150000   1.692561e-03  3.993218e-06
     67     82   2   0.50000    -0.1150000    0.1150000   2.431434e-04  1.541678e-07
     69     71   2   0.50000    -0.3850000   -0.1150000   1.401943e-03  2.153106e-06
     69     82   2   0.50000    -0.3850000    0.1150000   2.907388e-04  1.414488e-07
     68     87   2   0.50000     0.0850000   -0.1150000   1.172438e-03  2.346713e-06
     68    103   2   0.50000     0.0850000   -0.5000000   1.177174e-03  1.365843e-06
     81     87   2   0.50000     0.3000000   -0.1150000   2.144502e-06  1.199282e-11
     81    103   2   0.50000     0.3000000   -0.5000000   2.153164e-06  6.980110e-12
     68     83   2   0.50000     0.0850000    0.1150000   2.431434e-04  1.541678e-07
     82     65   2   0.50000     0.1150000    0.0850000   2.431434e-04  1.541678e-07
     82     83   2   0.50000     0.1150000    0.1150000   5.042375e-05  1.012808e-08
     62     85   2   0.50000    -0.1150000    0.1150000   2.431434e-04  1.541678e-07
     84     59   2   0.50000     0.1150000   -0.1150000   2.431434e-04  1.541678e-07
     84     85   2   0.50000     0.1150000    0.1150000   5.042375e-05  1.012808e-08
     69     88   2   0.50000    -0.3850000   -0.1150000   1.401943e-03  2.153106e-06
     69    102   2   0.50000    -0.3850000   -0.1150000   1.401943e-03  2.153106e-06
    103     88   2   0.50000    -0.5000000   -0.1150000   1.177174e-03  1.365843e-06
    103    102   2   0.50000    -0.5000000   -0.1150000   1.177174e-03  1.365843e-06
     86     89   2   0.50000     0.6150000   -0.1150000   1.692561e-03  3.993218e-06
     86    104   2   0.50000     0.6150000    0.1150000   3.510079e-04  2.623353e-07
    102     89   2   0.50000    -0.1150000   -0.1150000   1.172438e-03  2.346713e-06
    102    104   2   0.50000    -0.1150000    0.1150000   2.431434e-04  1.541678e-07
     86    101   2   0.50000     0.6150000   -0.1150000   1.692561e-03  3.993218e-06
     86    113   2   0.50000     0.6150000    0.1150000   3.510079e-04  2.623353e-07
     88    101   2   0.50000    -0.1150000   -0.1150000   1.172438e-03  2.346713e-06
     88    113   2   0.50000    -0.1150000    0.1150000   2.431434e-04  1.541678e-07
     87     90   2   0.50000    -0.1150000   -0.1150000   1.172438e-03  2.346713e-06
     87    105   2   0.50000    -0.1150000    0.1150000   2.431434e-04  1.541678e-07
    104     90   2   0.50000     0.1150000   -0.1150000   2.431434e-04  1.541678e-07
    104    105   2   0.50000     0.1150000    0.1150000   5.042375e-05  1.012808e-08
     88     91   2   0.50000    -0.1150000    0.6150000   1.692561e-03  3.993218e-06
    105     91   2   0.50000     0.1150000    0.6150000   3.510079e-04  2.623353e-07
    105    101   2   0.50000     0.1150000   -0.1150000   2.431434e-04  1.541678e-07
     89     92   2   0.50000    -0.1150000   -0.3850000   1.401943e-03  2.153106e-06
     89    100   2   0.50000    -0.1150000   -0.5000000   1.177174e-03  1.365843e-06
    101     92   2   0.50000    -0.1150000   -0.3850000   1.401943e-03  2.153106e-06
    101    100   2   0.50000    -0.1150000   -0.5000000   1.177174e-03  1.365843e-06
     89    112   2   0.50000    -0.1150000    0.1150000   2.431434e-04  1.541678e-07
     91    102   2   0.50000     0.6150000   -0.1150000   1.692561e-03  3.993218e-06
     91    112   2   0.50000     0.6150000    0.1150000   3.510079e-04  2.623353e-07
     90     93   2   0.50000    -0.1150000    0.0850000   1.172438e-03  2.346713e-06
     90    106   2   0.50000    -0.1150000    0.3000000   2.144502e-06  1.199282e-11
    100     93   2   0.50000    -0.5000000    0.0850000   1.177174e-03  1.365843e-06
    100    106   2   0.50000    -0.5000000    0.3000000   2.153164e-06  6.980110e-12
     91     94   2   0.50000     0.6150000   -0.1150000   1.692561e-03  3.993218e-06
     91     99   2   0.50000     0.6150000   -0.1150000   1.692561e-03  3.993218e-06
    106     94   2   0.50000     0.3000000   -0.1150000   2.144502e-06  1.199282e-11
    106     99   2   0.50000     0.3000000   -0.1150000   2.144502e-06  1.199282e-11
     92     95   2   0.50000    -0.3850000   -0.1150000   1.401943e-03  2.153106e-06
     92    107   2   0.50000    -0.3850000    0.1150000   2.907388e-04  1.414488e-07
     99     95   2   0.50000    -0.1150000   -0.1150000   1.172438e-03  2.346713e-06
     99    107   2   0.50000    -0.1150000    0.1150000   2.431434e-04  1.541678e-07
     92     98   2   0.50000    -0.3850000   -0.1150000   1.401943e-03  2.153106e-06
     92    111   2   0.50000    -0.3850000    0.1150000   2.907388e-04  1.414488e-07
     94     98   2   0.50000    -0.1150000   -0.1150000   1.172438e-03  2.346713e-06
     94    111   2   0.50000    -0.1150000    0.1150000   2.431434e-04  1.541678e-07
     93     96   2   0.50000     0.0850000    0.0850000   1.172438e-03  2.346713e-06
     93    108   2   0.50000     0.0850000    0.1150000   2.431434e-04  1.541678e-07
    107     96   2   0.50000     0.1150000    0.0850000   2.431434e-04  1.541678e-07
    107    108   2   0.50000     0.1150000    0.1150000   5.042375e-05  1.012808e-08
     94     97   2   0.50000    -0.1150000   -0.3850000   1.401943e-03  2.153106e-06
    108     97   2   0.50000     0.1150000   -0.3850000   2.907388e-04  1.414488e-07
    108     98   2   0.50000     0.1150000   -0.1150000   2.431434e-04  1.541678e-07
     95    109   2   0.50000    -0.1150000    0.3000000   2.144502e-06  1.199282e-11
     95    114   2   0.50000    -0.1150000    0.6150000   1.692561e-03  3.993218e-06
     98    109   2   0.50000    -0.1150000    0.3000000   2.144502e-06  1.199282e-11
     98    114   2   0.50000    -0.1150000    0.6150000   1.692561e-03  3.993218e-06
     95    110   2   0.50000    -0.1150000    0.1150000   2.431434e-04  1.541678e-07
     97     99   2   0.50000    -0.3850000   -0.1150000   1.401943e-03  2.153106e-06
     97    110   2   0.50000    -0.3850000    0.1150000   2.907388e-04  1.414488e-07
     96    115   2   0.50000     0.0850000   -0.1150000   1.172438e-03  2.346713e-06
     96    131   2   0.50000     0.0850000   -0.5000000   1.177174e-03  1.365843e-06
    109    115   2   0.50000     0.3000000   -0.1150000   2.144502e-06  1.199282e-11
    109    131   2   0.50000     0.3000000   -0.5000000   2.153164e-06  6.980110e-12
     96    111   2   0.50000     0.0850000    0.1150000   2.431434e-04  1.541678e-07
    110     93   2   0.50000     0.1150000    0.0850000   2.431434e-04  1.541678e-07
    110    111   2   0.50000     0.1150000    0.1150000   5.042375e-05  1.012808e-08
     90    113   2   0.50000    -0.1150000    0.1150000   2.431434e-04  1.541678e-07
    112     87   2   0.50000     0.1150000   -0.1150000   2.431434e-04  1.541678e-07
    112    113   2   0.50000     0.1150000    0.1150000   5.042375e-05  1.012808e-08
     97    116   2   0.50000    -0.3850000   -0.1150000   1.401943e-03  2.153106e-06
     97    130   2   0.50000    -0.3850000   -0.1150000   1.401943e-03  2.153106e-06
    131    116   2   0.50000    -0.5000000   -0.1150000   1.177174e-03  1.365843e-06
    131    130   2   0.50000    -0.5000000   -0.1150000   1.177174e-03  1.365843e-06
    114    117   2   0.50000     0.6150000   -0.1150000   1.692561e-03  3.993218e-06
    114    132   2   0.50000     0.6150000    0.1150000   3.510079e-04  2.623353e-07
    130    117   2   0.50000    -0.1150000   -0.1150000   1.172438e-03  2.346713e-06
    130    132   2   0.50000    -0.1150000    0.1150000   2.431434e-04  1.541678e-07
    114    129   2   0.50000     0.6150000   -0.1150000   1.692561e-03  3.993218e-06
    114    141   2   0.50000     0.6150000    0.1150000   3.510079e-04  2.623353e-07
    116    129   2   0.50000    -0.1150000   -0.1150000   1.172438e-03  2.346713e-06
    116    141   2   0.50000    -0.1150000    0.1150000   2.431434e-04  1.541678e-07
    115    118   2   0.50000    -0.1150000   -0.1150000   1.172438e-03  2.346713e-06
    115    133   2   0.50000    -0.1150000    0.1150000   2.431434e-04  1.541678e-07
    132    118   2   0.50000     0.1150000   -0.1150000   2.431434e-04  1.541678e-07
    132    133   2   0.50000     0.1150000    0.1150000   5.042375e-05  1.012808e-08
    116    119   2   0.50000    -0.1150000    0.6150000   1.692561e-03  3.993218e-06
    133    119   2   0.50000     0.1150000    0.6150000   3.510079e-04  2.623353e-07
    133    129   2   0.50000     0.1150000   -0.1150000   2.431434e-04  1.541678e-07
    117    120   2   0.50000    -0.1150000   -0.3850000   1.401943e-03  2.153106e-06
    117    128   2   0.50000    -0.1150000   -0.5000000   1.177174e-03  1.365843e-06
    129    120   2   0.50000    -0.1150000   -0.3850000   1.401943e-03  2.153106e-06
    129    128   2   0.50000    -0.1150000   -0.5000000   1.177174e-03  1.365843e-06
    117    140   2   0.50000    -0.1150000    0.1150000   2.431434e-04  1.541678e-07
    119    130   2   0.50000     0.6150000   -0.1150000   1.692561e-03  3.993218e-06
    119    140   2   0.50000     0.6150000    0.1150000   3.510079e-04  2.623353e-07
    118    121   2   0.50000    -0.1150000    0.0850000   1.172438e-03  2.346713e-06
    118    134   2   0.50000    -0.1150000    0.3000000   2.144502e-06  1.199282e-11
    128    121   2   0.50000    -0.5000000    0.0850000   1.177174e-03  1.365843e-06
    128    134   2   0.50000    -0.5000000    0.3000000   2.153164e-06  6.980110e-12
    119    122   2   0.50000     0.6150000   -0.1150000   1.692561e-03  3.993218e-06
    119    127   2   0.50000     0.6150000   -0.1150000   1.692561e-03  3.993218e-06
    134    122   2   0.50000     0.3000000   -0.1150000   2.144502e-06  1.199282e-11
    134    127   2   0.50000     0.3000000   -0.1150000   2.144502e-06  1.199282e-11
    120    123   2   0.50000    -0.3850000   -0.1150000   1.401943e-03  2.153106e-06
    120    135   2   0.50000    -0.3850000    0.1150000   2.907388e-04  1.414488e-07
    127    123   2   0.50000    -0.1150000   -0.1150000   1.172438e-03  2.346713e-06
    127    135   2   0.50000    -0.1150000    0.1150000   2.431434e-04  1.541678e-07
    120    126   2   0.50000    -0.3850000   -0.1150000   1.401943e-03  2.153106e-06
    120    139   2   0.50000    -0.3850000    0.1150000   2.907388e-04  1.414488e-07
    122    126   2   0.50000    -0.1150000   -0.1150000   1.172438e-03  2.346713e-06
    122    139   2   0.50000    -0.1150000    0.1150000   2.431434e-04  1.541678e-07
    121    124   2   0.50000     0.0850000    0.0850000   1.172438e-03  2.346713e-06
    121    136   2   0.50000     0.0850000    0.1150000   2.431434e-04  1.541678e-07
    135    124   2   0.50000     0.1150000    0.0850000   2.431434e-04  1.541678e-07
    135    136   2   0.50000     0.1150000    0.1150000   5.042375e-05  1.012808e-08
    122    125   2   0.50000    -0.1150000   -0.3850000   1.401943e-03  2.153106e-06
    136    125   2   0.50000     0.1150000   -0.3850000   2.907388e-04  1.414488e-07
    136    126   2   0.50000     0.1150000   -0.1150000   2.431434e-04  1.541678e-07
    123    137   2   0.50000    -0.1150000    0.3000000   2.144502e-06  1.199282e-11
    123    142   2   0.50000    -0.1150000    0.6150000   1.692561e-03  3.993218e-06
    126    137   2   0.50000    -0.1150000    0.3000000   2.144502e-06  1.199282e-11
    126    142   2   0.50000    -0.1150000    0.6150000   1.692561e-03  3.993218e-06
    123    138   2   0.50000    -0.1150000    0.1150000   2.431434e-04  1.541678e-07
    125    127   2   0.50000    -0.3850000   -0.1150000   1.401943e-03  2.153106e-06
    125    138   2   0.50000    -0.3850000    0.1150000   2.907388e-04  1.414488e-07
    124    143   2   0.50000     0.0850000   -0.1150000   1.172438e-03  2.346713e-06
    124    159   2   0.50000     0.0850000   -0.5000000   1.177174e-03  1.365843e-06
    137    143   2   0.50000     0.3000000   -0.1150000   2.144502e-06  1.199282e-11
    137    159   2   0.50000     0.3000000   -0.5000000   2.153164e-06  6.980110e-12
    124    139   2   0.50000     0.0850000    0.1150000   2.431434e-04  1.541678e-07
    138    121   2   0.50000     0.1150000    0.0850000   2.431434e-04  1.541678e-07
    138    139   2   0.50000     0.1150000    0.1150000   5.042375e-05  1.012808e-08
    118    141   2   0.50000    -0.1150000    0.1150000   2.431434e-04  1.541678e-07
    140    115   2   0.50000     0.1150000   -0.1150000   2.431434e-04  1.541678e-07
    140    141   2   0.50000     0.1150000    0.1150000   5.042375e-05  1.012808e-08
    125    144   2   0.50000    -0.3850000   -0.1150000   1.401943e-03  2.153106e-06
    125    158   2   0.50000    -0.3850000   -0.1150000   1.401943e-03  2.153106e-06
    159    144   2   0.50000    -0.5000000   -0.1150000   1.177174e-03  1.365843e-06
    159    158   2   0.50000    -0.5000000   -0.1150000   1.177174e-03  1.365843e-06
    142    145   2   0.50000     0.6150000   -0.1150000   1.692561e-03  3.993218e-06
    142    160   2   0.50000     0.6150000    0.1150000   3.510079e-04  2.623353e-07
    158    145   2   0.50000    -0.1150000   -0.1150000   1.172438e-03  2.346713e-06
    158    160   2   0.50000    -0.1150000    0.1150000   2.431434e-04  1.541678e-07
    142    157   2   0.50000     0.6150000   -0.1150000   1.692561e-03  3.993218e-06
    142    169   2   0.50000     0.6150000    0.1150000   3.510079e-04  2.623353e-07
    144    157   2   0.50000    -0.1150000   -0.1150000   1.172438e-03  2.346713e-06
    144    169   2   0.50000    -0.1150000    0.1150000   2.431434e-04  1.541678e-07
    143    146   2   0.50000    -0.1150000   -0.1150000   1.172438e-03  2.346713e-06
    143    161   2   0.50000    -0.1150000    0.1150000   2.431434e-04  1.541678e-07
    160    146   2   0.50000     0.1150000   -0.1150000   2.431434e-04  1.541678e-07
    160    161   2   0.50000     0.1150000    0.1150000   5.042375e-05  1.012808e-08
    144    147   2   0.50000    -0.1150000    0.6150000   1.692561e-03  3.993218e-06
    161    147   2   0.50000     0.1150000    0.6150000   3.510079e-04  2.623353e-07
    161    157   2   0.50000     0.1150000   -0.1150000   2.431434e-04  1.541678e-07
    145    148   2   0.50000    -0.1150000   -0.3850000   1.401943e-03  2.153106e-06
    145    156   2   0.50000    -0.1150000   -0.5000000   1.177174e-03  1.365843e-06
    157    148   2   0.50000    -0.1150000   -0.3850000   1.401943e-03  2.153106e-06
    157    156   2   0.50000    -0.1150000   -0.5000000   1.177174e-03  1.365843e-06
    145    168   2   0.50000    -0.1150000    0.1150000   2.431434e-04  1.541678e-07
    147    158   2   0.50000     0.6150000   -0.1150000   1.692561e-03  3.993218e-06
    147    168   2   0.50000     0.6150000    0.1150000   3.510079e-04  2.623353e-07
    146    149   2   0.50000    -0.1150000    0.0850000   1.172438e-03  2.346713e-06
    146    162   2   0.50000    -0.1150000    0.3000000   2.144502e-06  1.199282e-11
    156    149   2   0.50000    -0.5000000    0.0850000   1.177174e-03  1.365843e-06
    156    162   2   0.50000    -0.5000000    0.3000000   2.153164e-06  6.980110e-12
    147    150   2   0.50000     0.6150000   -0.1150000   1.692561e-03  3.993218e-06
    147    155   2   0.50000     0.6150000   -0.1150000   1.692561e-03  3.993218e-06
    162    150   2   0.50000     0.3000000   -0.1150000   2.144502e-06  1.199282e-11
    162    155   2   0.50000     0.3000000   -0.1150000   2.144502e-06  1.199282e-11
    148    151   2   0.50000    -0.3850000   -0.1150000   1.401943e-03  2.153106e-06
    148    163   2   0.50000    -0.3850000    0.1150000   2.907388e-04  1.414488e-07
    155    151   2   0.50000    -0.1150000   -0.1150000   1.172438e-03  2.346713e-06
    155    163   2   0.50000    -0.1150000    0.1150000   2.431434e-04  1.541678e-07
    148    154   2   0.50000    -0.3850000   -0.1150000   1.401943e-03  2.153106e-06
    148    167   2   0.50000    -0.3850000    0.1150000   2.907388e-04  1.414488e-07
    150    154   2   0.50000    -0.1150000   -0.1150000   1.172438e-03  2.346713e-06
    150    167   2   0.50000    -0.1150000    0.1150000   2.431434e-04  1.541678e-07
    149    152   2   0.50000     0.0850000    0.0850000   1.172438e-03  2.346713e-06
    149    164   2   0.50000     0.0850000    0.1150000   2.431434e-04  1.541678e-07
    163    152   2   0.50000     0.1150000    0.0850000   2.431434e-04  1.541678e-07
    163    164   2   0.50000     0.1150000    0.1150000   5.042375e-05  1.012808e-08
    150    153   2   0.50000    -0.1150000   -0.3850000   1.401943e-03  2.153106e-06
    164    153   2   0.50000     0.1150000   -0.3850000   2.907388e-04  1.414488e-07
    164    154   2   0.50000     0.1150000   -0.1150000   2.431434e-04  1.541678e-07
    151    165   2   0.50000    -0.1150000    0.3000000   2.144502e-06  1.199282e-11
    151    170   2   0.50000    -0.1150000    0.6150000   1.692561e-03  3.993218e-06
    154    165   2   0.50000    -0.1150000    0.3000000   2.144502e-06  1.199282e-11
    154    170   2   0.50000    -0.1150000    0.6150000   1.692561e-03  3.993218e-06
    151    166   2   0.50000    -0.1150000    0.1150000   2.431434e-04  1.541678e-07
    153    155   2   0.50000    -0.3850000   -0.1150000   1.401943e-03  2.153106e-06
    153    166   2   0.50000    -0.3850000    0.1150000   2.907388e-04  1.414488e-07
    152    171   2   0.50000     0.0850000   -0.1150000   1.172438e-03  2.346713e-06
    152    187   2   0.50000     0.0850000   -0.5000000   1.177174e-03  1.365843e-06
    165    171   2   0.50000     0.3000000   -0.1150000   2.144502e-06  1.199282e-11
    165    187   2   0.50000     0.3000000   -0.5000000   2.153164e-06  6.980110e-12
    152    167   2   0.50000     0.0850000    0.1150000   2.431434e-04  1.541678e-07
    166    149   2   0.50000     0.1150000    0.0850000   2.431434e-04  1.541678e-07
    166    167   2   0.50000     0.1150000    0.1150000   5.042375e-05  1.012808e-08
    146    169   2   0.50000    -0.1150000    0.1150000   2.431434e-04  1.541678e-07
    168    143   2   0.50000     0.1150000   -0.1150000   2.431434e-04  1.541678e-07
    168    169   2   0.50000     0.1150000    0.1150000   5.042375e-05  1.012808e-08
    153    172   2   0.50000    -0.3850000   -0.1150000   1.401943e-03  2.153106e-06
    153    186   2   0.50000    -0.3850000   -0.1150000   1.401943e-03  2.153106e-06
    187    172   2   0.50000    -0.5000000   -0.1150000   1.177174e-03  1.365843e-06
    187    186   2   0.50000    -0.5000000   -0.1150000   1.177174e-03  1.365843e-06
    170    173   2   0.50000     0.6150000   -0.1150000   1.692561e-03  3.993218e-06
    170    188   2   0.50000     0.6150000    0.1150000   3.510079e-04  2.623353e-07
    186    173   2   0.50000    -0.1150000   -0.1150000   1.172438e-03  2.346713e-06
    186    188   2   0.50000    -0.1150000    0.1150000   2.431434e-04  1.541678e-07
    170    185   2   0.50000     0.6150000   -0.1150000   1.692561e-03  3.993218e-06
    170    197   2   0.50000     0.6150000    0.1150000   3.510079e-04  2.623353e-07
    172    185   2   0.50000    -0.1150000   -0.1150000   1.172438e-03  2.346713e-06
    172    197   2   0.50000    -0.1150000    0.1150000   2.431434e-04  1.541678e-07
    171    174   2   0.50000    -0.1150000   -0.1150000   1.172438e-03  2.346713e-06
    171    189   2   0.50000    -0.1150000    0.1150000   2.431434e-04  1.541678e-07
    188    174   2   0.50000     0.1150000   -0.1150000   2.431434e-04  1.541678e-07
    188    189   2   0.50000     0.1150000    0.1150000   5.042375e-05  1.012808e-08
    172    175   2   0.50000    -0.1150000    0.6150000   1.692561e-03  3.993218e-06
    189    175   2   0.50000     0.1150000    0.6150000   3.510079e-04  2.623353e-07
    189    185   2   0.50000     0.1150000   -0.1150000   2.431434e-04  1.541678e-07
    173    176   2   0.50000    -0.1150000   -0.3850000   1.401943e-03  2.153106e-06
    173    184   2   0.50000    -0.1150000   -0.5000000   1.177174e-03  1.365843e-06
    185    176   2   0.50000    -0.1150000   -0.3850000   1.401943e-03  2.153106e-06
    185    184   2   0.50000    -0.1150000   -0.5000000   1.177174e-03  1.365843e-06
    173    196   2   0.50000    -0.1150000    0.1150000   2.431434e-04  1.541678e-07
    175    186   2   0.50000     0.6150000   -0.1150000   1.692561e-03  3.993218e-06
    175    196   2   0.50000     0.6150000    0.1150000   3.510079e-04  2.623353e-07
    174    177   2   0.50000    -0.1150000    0.0850000   1.172438e-03  2.346713e-06
    174    190   2   0.50000    -0.1150000    0.3000000   2.144502e-06  1.199282e-11
    184    177   2   0.50000    -0.5000000    0.0850000   1.177174e-03  1.365843e-06
    184    190   2   0.50000    -0.5000000    0.3000000   2.153164e-06  6.980110e-12
    175    178   2   0.50000     0.6150000   -0.1150000   1.692561e-03  3.993218e-06
    175    183   2   0.50000     0.6150000   -0.1150000   1.692561e-03  3.993218e-06
    190    178   2   0.50000     0.3000000   -0.1150000   2.144502e-06  1.199282e-11
    190    183   2   0.50000     0.3000000   -0.1150000   2.144502e-06  1.199282e-11
    176    179   2   0.50000    -0.3850000   -0.1150000   1.401943e-03  2.153106e-06
    176    191   2   0.50000    -0.3850000    0.1150000   2.907388e-04  1.414488e-07
    183    179   2   0.50000    -0.1150000   -0.1150000   1.172438e-03  2.346713e-06
    183    191   2   0.50000    -0.1150000    0.1150000   2.431434e-04  1.541678e-07
    176    182   2   0.50000    -0.3850000   -0.1150000   1.401943e-03  2.153106e-06
    176    195   2   0.50000    -0.3850000    0.1150000   2.907388e-04  1.414488e-07
    178    182   2   0.50000    -0.1150000   -0.1150000   1.172438e-03  2.346713e-06
    178    195   2   0.50000    -0.1150000    0.1150000   2.431434e-04  1.541678e-07
    177    180   2   0.50000     0.0850000    0.0850000   1.172438e-03  2.346713e-06
    177    192   2   0.50000     0.0850000    0.1150000   2.431434e-04  1.541678e-07
    191    180   2   0.50000     0.1150000    0.0850000   2.431434e-04  1.541678e-07
    191    192   2   0.50000     0.1150000    0.1150000   5.042375e-05  1.012808e-08
    178    181   2   0.50000    -0.1150000   -0.3850000   1.401943e-03  2.153106e-06
    192    181   2   0.50000     0.1150000   -0.3850000   2.907388e-04  1.414488e-07
    192    182   2   0.50000     0.1150000   -0.1150000   2.431434e-04  1.541678e-07
    179    193   2   0.50000    -0.1150000    0.3000000   2.144502e-06  1.199282e-11
    179    198   2   0.50000    -0.1150000    0.6150000   1.692561e-03  3.993218e-06
    182    193   2   0.50000    -0.1150000    0.3000000   2.144502e-06  1.199282e-11
    182    198   2   0.50000    -0.1150000    0.6150000   1.692561e-03  3.993218e-06
    179    194   2   0.50000    -0.1150000    0.1150000   2.431434e-04  1.541678e-07
    181    183   2   0.50000    -0.3850000   -0.1150000   1.401943e-03  2.153106e-06
    181    194   2   0.50000    -0.3850000    0.1150000   2.907388e-04  1.414488e-07
    180    199   2   0.50000     0.0850000   -0.1150000   1.172438e-03  2.346713e-06
    180    215   2   0.50000     0.0850000   -0.5000000   1.177174e-03  1.365843e-06
    193    199   2   0.50000     0.3000000   -0.1150000   2.144502e-06  1.199282e-11
    193    215   2   0.50000     0.3000000   -0.5000000   2.153164e-06  6.980110e-12
    180    195   2   0.50000     0.0850000    0.1150000   2.431434e-04  1.541678e-07
    194    177   2   0.50000     0.1150000    0.0850000   2.431434e-04  1.541678e-07
    194    195   2   0.50000     0.1150000    0.1150000   5.042375e-05  1.012808e-08
    174    197   2   0.50000    -0.1150000    0.1150000   2.431434e-04  1.541678e-07
    196    171   2   0.50000     0.1150000   -0.1150000   2.431434e-04  1.541678e-07
    196    197   2   0.50000     0.1150000    0.1150000   5.042375e-05  1.012808e-08
    181    200   2   0.50000    -0.3850000   -0.1150000   1.401943e-03  2.153106e-06
    181    214   2   0.50000    -0.3850000   -0.1150000   1.401943e-03  2.153106e-06
    215    200   2   0.50000    -0.5000000   -0.1150000   1.177174e-03  1.365843e-06
    215    214   2   0.50000    -0.5000000   -0.1150000   1.177174e-03  1.365843e-06
    198    201   2   0.50000     0.6150000   -0.1150000   1.692561e-03  3.993218e-06
    198    216   2   0.50000     0.6150000    0.1150000   3.510079e-04  2.623353e-07
    214    201   2   0.50000    -0.1150000   -0.1150000   1.172438e-03  2.346713e-06
    214    216   2   0.50000    -0.1150000    0.1150000   2.431434e-04  1.541678e-07
    198    213   2   0.50000     0.6150000   -0.1150000   1.692561e-03  3.993218e-06
    198    225   2   0.50000     0.6150000    0.1150000   3.510079e-04  2.623353e-07
    200    213   2   0.50000    -0.1150000   -0.1150000   1.172438e-03  2.346713e-06
    200    225   2   0.50000    -0.1150000    0.1150000   2.431434e-04  1.541678e-07
    199    202   2   0.50000    -0.1150000   -0.1150000   1.172438e-03  2.346713e-06
    199    217   2   0.50000    -0.1150000    0.1150000   2.431434e-04  1.541678e-07
    216    202   2   0.50000     0.1150000   -0.1150000   2.431434e-04  1.541678e-07
    216    217   2   0.50000     0.1150000    0.1150000   5.042375e-05  1.012808e-08
    200    203   2   0.50000    -0.1150000    0.6150000   1.692561e-03  3.993218e-06
    217    203   2   0.50000     0.1150000    0.6150000   3.510079e-04  2.623353e-07
    217    213   2   0.50000     0.1150000   -0.1150000   2.431434e-04  1.541678e-07
    201    204   2   0.50000    -0.1150000   -0.3850000   1.401943e-03  2.153106e-06
    201    212   2   0.50000    -0.1150000   -0.5000000   1.177174e-03  1.365843e-06
    213    204   2   0.50000    -0.1150000   -0.3850000   1.401943e-03  2.153106e-06
    213    212   2   0.50000    -0.1150000   -0.5000000   1.177174e-03  1.365843e-06
    201    224   2   0.50000    -0.1150000    0.1150000   2.431434e-04  1.541678e-07
    203    214   2   0.50000     0.6150000   -0.1150000   1.692561e-03  3.993218e-06
    203    224   2   0.50000     0.6150000    0.1150000   3.510079e-04  2.623353e-07
    202    205   2   0.50000    -0.1150000    0.0850000   1.172438e-03  2.346713e-06
    202    218   2   0.50000    -0.1150000    0.3000000   2.144502e-06  1.199282e-11
    212    205   2   0.50000    -0.5000000    0.0850000   1.177174e-03  1.365843e-06
    212    218   2   0.50000    -0.5000000    0.3000000   2.153164e-06  6.980110e-12
    203    206   2   0.50000     0.6150000   -0.1150000   1.692561e-03  3.993218e-06
    203    211   2   0.50000     0.6150000   -0.1150000   1.692561e-03  3.993218e-06
    218    206   2   0.50000     0.3000000   -0.1150000   2.144502e-06  1.199282e-11
    218    211   2   0.50000     0.3000000   -0.1150000   2.144502e-06  1.199282e-11
    204    207   2   0.50000    -0.3850000   -0.1150000   1.401943e-03  2.153106e-06
    204    219   2   0.50000    -0.3850000    0.1150000   2.907388e-04  1.414488e-07
    211    207   2   0.50000    -0.1150000   -0.1150000   1.172438e-03  2.346713e-06
    211    219   2   0.50000    -0.1150000    0.1150000   2.431434e-04  1.541678e-07
    204    210   2   0.50000    -0.3850000   -0.1150000   1.401943e-03  2.153106e-06
    204    223   2   0.50000    -0.3850000    0.1150000   2.907388e-04  1.414488e-07
    206    210   2   0.50000    -0.1150000   -0.1150000   1.172438e-03  2.346713e-06
    206    223   2   0.50000    -0.1150000    0.1150000   2.431434e-04  1.541678e-07
    205    208   2   0.50000     0.0850000    0.0850000   1.172438e-03  2.346713e-06
    205    220   2   0.50000     0.0850000    0.1150000   2.431434e-04  1.541678e-07
    219    208   2   0.50000     0.1150000    0.0850000   2.431434e-04  1.541678e-07
    219    220   2   0.50000     0.1150000    0.1150000   5.042375e-05  1.012808e-08
    206    209   2   0.50000    -0.1150000   -0.3850000   1.401943e-03  2.153106e-06
    220    209   2   0.50000     0.1150000   -0.3850000   2.907388e-04  1.414488e-07
    220    210   2   0.50000     0.1150000   -0.1150000   2.431434e-04  1.541678e-07
    207    221   2   0.50000    -0.1150000    0.3000000   2.144502e-06  1.199282e-11
    207    226   2   0.50000    -0.1150000    0.6150000   1.692561e-03  3.993218e-06
    210    221   2   0.50000    -0.1150000    0.3000000   2.144502e-06  1.199282e-11
    210    226   2   0.50000    -0.1150000    0.6150000   1.692561e-03  3.993218e-06
    207    222   2   0.50000    -0.1150000    0.1150000   2.431434e-04  1.541678e-07
    209    211   2   0.50000    -0.3850000   -0.1150000   1.401943e-03  2.153106e-06
    209    222   2   0.50000    -0.3850000    0.1150000   2.907388e-04  1.414488e-07
    208    227   2   0.50000     0.0850000   -0.1150000   1.172438e-03  2.346713e-06
    208    243   2   0.50000     0.0850000   -0.5000000   1.177174e-03  1.365843e-06
    221    227   2   0.50000     0.3000000   -0.1150000   2.144502e-06  1.199282e-11
    221    243   2   0.50000     0.3000000   -0.5000000   2.153164e-06  6.980110e-12
    208    223   2   0.50000     0.0850000    0.1150000   2.431434e-04  1.541678e-07
    222    205   2   0.50000     0.1150000    0.0850000   2.431434e-04  1.541678e-07
    222    223   2   0.50000     0.1150000    0.1150000   5.042375e-05  1.012808e-08
    202    225   2   0.50000    -0.1150000    0.1150000   2.431434e-04  1.541678e-07
    224    199   2   0.50000     0.1150000   -0.1150000   2.431434e-04  1.541678e-07
    224    225   2   0.50000     0.1150000    0.1150000   5.042375e-05  1.012808e-08
    209    228   2   0.50000    -0.3850000   -0.1150000   1.401943e-03  2.153106e-06
    209    242   2   0.50000    -0.3850000   -0.1150000   1.401943e-03  2.153106e-06
    243    228   2   0.50000    -0.5000000   -0.1150000   1.177174e-03  1.365843e-06
    243    242   2   0.50000    -0.5000000   -0.1150000   1.177174e-03  1.365843e-06
    226    229   2   0.50000     0.6150000   -0.1150000   1.692561e-03  3.993218e-06
    226    244   2   0.50000     0.6150000    0.1150000   3.510079e-04  2.623353e-07
    242    229   2   0.50000    -0.1150000   -0.1150000   1.172438e-03  2.346713e-06
    242    244   2   0.50000    -0.1150000    0.1150000   2.431434e-04  1.541678e-07
    226    241   2   0.50000     0.6150000   -0.1150000   1.692561e-03  3.993218e-06
    226    253   2   0.50000     0.6150000    0.1150000   3.510079e-04  2.623353e-07
    228    241   2   0.50000    -0.1150000   -0.1150000   1.172438e-03  2.346713e-06
    228    253   2   0.50000    -0.1150000    0.1150000   2.431434e-04  1.541678e-07
    227    230   2   0.50000    -0.1150000   -0.1150000   1.172438e-03  2.346713e-06
    227    245   2   0.50000    -0.1150000    0.1150000   2.431434e-04  1.541678e-07
    244    230   2   0.50000     0.1150000   -0.1150000   2.431434e-04  1.541678e-07
    244    245   2   0.50000     0.1150000    0.1150000   5.042375e-05  1.012808e-08
    228    231   2   0.50000    -0.1150000    0.6150000   1.692561e-03  3.993218e-06
    245    231   2   0.50000     0.1150000    0.6150000   3.510079e-04  2.623353e-07
    245    241   2   0.50000     0.1150000   -0.1150000   2.431434e-04  1.541678e-07
    229    232   2   0.50000    -0.1150000   -0.3850000   1.401943e-03  2.153106e-06
    229    240   2   0.50000    -0.1150000   -0.5000000   1.177174e-03  1.365843e-06
    241    232   2   0.50000    -0.1150000   -0.3850000   1.401943e-03  2.153106e-06
    241    240   2   0.50000    -0.1150000   -0.5000000   1.177174e-03  1.365843e-06
    229    252   2   0.50000    -0.1150000    0.1150000   2.431434e-04  1.541678e-07
    231    242   2   0.50000     0.6150000   -0.1150000   1.692561e-03  3.993218e-06
    231    252   2   0.50000     0.6150000    0.1150000   3.510079e-04  2.623353e-07
    230    233   2   0.50000    -0.1150000    0.0850000   1.172438e-03  2.346713e-06
    230    246   2   0.50000    -0.1150000    0.3000000   2.144502e-06  1.199282e-11
    240    233   2   0.50000    -0.5000000    0.0850000   1.177174e-03  1.365843e-06
    240    246   2   0.50000    -0.5000000    0.3000000   2.153164e-06  6.980110e-12
    231    234   2   0.50000     0.6150000   -0.1150000   1.692561e-03  3.993218e-06
    231    239   2   0.50000     0.6150000   -0.1150000   1.692561e-03  3.993218e-06
    246    234   2   0.50000     0.3000000   -0.1150000   2.144502e-06  1.199282e-11
    246    239   2   0.50000     0.3000000   -0.1150000   2.144502e-06  1.199282e-11
    232    235   2   0.50000    -0.3850000   -0.1150000   1.401943e-03  2.153106e-06
    232    247   2   0.50000    -0.3850000    0.1150000   2.907388e-04  1.414488e-07
    239    235   2   0.50000    -0.1150000   -0.1150000   1.172438e-03  2.346713e-06
    239    247   2   0.50000    -0.1150000    0.1150000   2.431434e-04  1.541678e-07
    232    238   2   0.50000    -0.3850000   -0.1150000   1.401943e-03  2.153106e-06
    232    251   2   0.50000    -0.3850000    0.1150000   2.907388e-04  1.414488e-07
    234    238   2   0.50000    -0.1150000   -0.1150000   1.172438e-03  2.346713e-06
    234    251   2   0.50000    -0.1150000    0.1150000   2.431434e-04  1.541678e-07
    233    236   2   0.50000     0.0850000    0.0850000   1.172438e-03  2.346713e-06
    233    248   2   0.50000     0.0850000    0.1150000   2.431434e-04  1.541678e-07
    247    236   2   0.50000     0.1150000    0.0850000   2.431434e-04  1.541678e-07
    247    248   2   0.50000     0.1150000    0.1150000   5.042375e-05  1.012808e-08
    234    237   2   0.50000    -0.1150000   -0.3850000   1.401943e-03  2.153106e-06
    248    237   2   0.50000     0.1150000   -0.3850000   2.907388e-04  1.414488e-07
    248    238   2   0.50000     0.1150000   -0.1150000   2.431434e-04  1.541678e-07
    235    249   2   0.50000    -0.1150000    0.3000000   2.144502e-06  1.199282e-11
    235    254   2   0.50000    -0.1150000    0.6150000   1.692561e-03  3.993218e-06
    238    249   2   0.50000    -0.1150000    0.3000000   2.144502e-06  1.199282e-11
    238    254   2   0.50000    -0.1150000    0.6150000   1.692561e-03  3.993218e-06
    235    250   2   0.50000    -0.1150000    0.1150000   2.431434e-04  1.541678e-07
    237    239   2   0.50000    -0.3850000   -0.1150000   1.401943e-03  2.153106e-06
    237    250   2   0.50000    -0.3850000    0.1150000   2.907388e-04  1.414488e-07
    236    255   2   0.50000     0.0850000   -0.1150000   1.172438e-03  2.346713e-06
    236    271   2   0.50000     0.0850000   -0.5000000   1.177174e-03  1.365843e-06
    249    255   2   0.50000     0.3000000   -0.1150000   2.144502e-06  1.199282e-11
    249    271   2   0.50000     0.3000000   -0.5000000   2.153164e-06  6.980110e-12
    236    251   2   0.50000     0.0850000    0.1150000   2.431434e-04  1.541678e-07
    250    233   2   0.50000     0.1150000    0.0850000   2.431434e-04  1.541678e-07
    250    251   2   0.50000     0.1150000    0.1150000   5.042375e-05  1.012808e-08
    230    253   2   0.50000    -0.1150000    0.1150000   2.431434e-04  1.541678e-07
    252    227   2   0.50000     0.1150000   -0.1150000   2.431434e-04  1.541678e-07
    252    253   2   0.50000     0.1150000    0.1150000   5.042375e-05  1.012808e-08
    237    256   2   0.50000    -0.3850000   -0.1150000   1.401943e-03  2.153106e-06
    237    270   2   0.50000    -0.3850000   -0.1150000   1.401943e-03  2.153106e-06
    271    256   2   0.50000    -0.5000000   -0.1150000   1.177174e-03  1.365843e-06
    271    270   2   0.50000    -0.5000000   -0.1150000   1.177174e-03  1.365843e-06
    254    257   2   0.50000     0.6150000   -0.1150000   1.692561e-03  3.993218e-06
    254    272   2   0.50000     0.6150000    0.1150000   3.510079e-04  2.623353e-07
    270    257   2   0.50000    -0.1150000   -0.1150000   1.172438e-03  2.346713e-06
    270    272   2   0.50000    -0.1150000    0.1150000   2.431434e-04  1.541678e-07
    254    269   2   0.50000     0.6150000   -0.1150000   1.692561e-03  3.993218e-06
    254    281   2   0.50000     0.6150000    0.1150000   3.510079e-04  2.623353e-07
    256    269   2   0.50000    -0.1150000   -0.1150000   1.172438e-03  2.346713e-06
    256    281   2   0.50000    -0.1150000    0.1150000   2.431434e-04  1.541678e-07
    255    258   2   0.50000    -0.1150000   -0.1150000   1.172438e-03  2.346713e-06
    255    273   2   0.50000    -0.1150000    0.1150000   2.431434e-04  1.541678e-07
    272    258   2   0.50000     0.1150000   -0.1150000   2.431434e-04  1.541678e-07
    272    273   2   0.50000     0.1150000    0.1150000   5.042375e-05  1.012808e-08
    256    259   2   0.50000    -0.1150000    0.6150000   1.692561e-03  3.993218e-06
    273    259   2   0.50000     0.1150000    0.6150000   3.510079e-04  2.623353e-07
    273    269   2   0.50000     0.1150000   -0.1150000   2.431434e-04  1.541678e-07
    257    260   2   0.50000    -0.1150000   -0.3850000   1.401943e-03  2.153106e-06
    257    268   2   0.50000    -0.1150000   -0.5000000   1.177174e-03  1.365843e-06
    269    260   2   0.50000    -0.1150000   -0.3850000   1.401943e-03  2.153106e-06
    269    268   2   0.50000    -0.1150000   -0.5000000   1.177174e-03  1.365843e-06
    257    280   2   0.50000    -0.1150000    0.1150000   2.431434e-04  1.541678e-07
    259    270   2   0.50000     0.6150000   -0.1150000   1.692561e-03  3.993218e-06
    259    280   2   0.50000     0.6150000    0.1150000   3.510079e-04  2.623353e-07
    258    261   2   0.50000    -0.1150000    0.0850000   1.172438e-03  2.346713e-06
    258    274   2   0.50000    -0.1150000    0.3000000   2.144502e-06  1.199282e-11
    268    261   2   0.50000    -0.5000000    0.0850000   1.177174e-03  1.365843e-06
    268    274   2   0.50000    -0.5000000    0.3000000   2.153164e-06  6.980110e-12
    259    262   2   0.50000     0.6150000   -0.1150000   1.692561e-03  3.993218e-06
    259    267   2   0.50000     0.6150000   -0.1150000   1.692561e-03  3.993218e-06
    274    262   2   0.50000     0.3000000   -0.1150000   2.144502e-06  1.199282e-11
    274    267   2   0.50000     0.3000000   -0.1150000   2.144502e-06  1.199282e-11
    260    263   2   0.50000    -0.3850000   -0.1150000   1.401943e-03  2.153106e-06
    260    275   2   0.50000    -0.3850000    0.1150000   2.907388e-04  1.414488e-07
    267    263   2   0.50000    -0.1150000   -0.1150000   1.172438e-03  2.346713e-06
    267    275   2   0.50000    -0.1150000    0.1150000   2.431434e-04  1.541678e-07
    260    266   2   0.50000    -0.3850000   -0.1150000   1.401943e-03  2.153106e-06
    260    279   2   0.50000    -0.3850000    0.1150000   2.907388e-04  1.414488e-07
    262    266   2   0.50000    -0.1150000   -0.1150000   1.172438e-03  2.346713e-06
    262    279   2   0.50000    -0.1150000    0.1150000   2.431434e-04  1.541678e-07
    261    264   2   0.50000     0.0850000    0.0850000   1.172438e-03  2.346713e-06
    261    276   2   0.50000     0.0850000    0.1150000   2.431434e-04  1.541678e-07
    275    264   2   0.50000     0.1150000    0.0850000   2.431434e-04  1.541678e-07
    275    276   2   0.50000     0.1150000    0.1150000   5.042375e-05  1.012808e-08
    262    265   2   0.50000    -0.1150000   -0.3850000   1.401943e-03  2.153106e-06
    276    265   2   0.50000     0.1150000   -0.3850000   2.907388e-04  1.414488e-07
    276    266   2   0.50000     0.1150000   -0.1150000   2.431434e-04  1.541678e-07
    263    277   2   0.50000    -0.1150000    0.3000000   2.144502e-06  1.199282e-11
    263    282   2   0.50000    -0.1150000    0.6150000   1.692561e-03  3.993218e-06
    266    277   2   0.50000    -0.1150000    0.3000000   2.144502e-06  1.199282e-11
    266    282   2   0.50000    -0.1150000    0.6150000   1.692561e-03  3.993218e-06
    263    278   2   0.50000    -0.1150000    0.1150000   2.431434e-04  1.541678e-07
    265    267   2   0.50000    -0.3850000   -0.1150000   1.401943e-03  2.153106e-06
    265    278   2   0.50000    -0.3850000    0.1150000   2.907388e-04  1.414488e-07
    264    283   2   0.50000     0.0850000   -0.1150000   1.172438e-03  2.346713e-06
    264    299   2   0.50000     0.0850000   -0.5000000   1.177174e-03  1.365843e-06
    277    283   2   0.50000     0.3000000   -0.1150000   2.144502e-06  1.199282e-11
    277    299   2   0.50000     0.3000000   -0.5000000   2.153164e-06  6.980110e-12
    264    279   2   0.50000     0.0850000    0.1150000   2.431434e-04  1.541678e-07
    278    261   2   0.50000     0.1150000    0.0850000   2.431434e-04  1.541678e-07
    278    279   2   0.50000     0.1150000    0.1150000   5.042375e-05  1.012808e-08
    258    281   2   0.50000    -0.1150000    0.1150000   2.431434e-04  1.541678e-07
    280    255   2   0.50000     0.1150000   -0.1150000   2.431434e-04  1.541678e-07
    280    281   2   0.50000     0.1150000    0.1150000   5.042375e-05  1.012808e-08
    265    284   2   0.50000    -0.3850000   -0.1150000   1.401943e-03  2.153106e-06
    265    298   2   0.50000    -0.3850000   -0.1150000   1.401943e-03  2.153106e-06
    299    284   2   0.50000    -0.5000000   -0.1150000   1.177174e-03  1.365843e-06
    299    298   2   0.50000    -0.5000000   -0.1150000   1.177174e-03  1.365843e-06
    282    285   2   0.50000     0.6150000   -0.1150000   1.692561e-03  3.993218e-06
    282    300   2   0.50000     0.6150000    0.1150000   3.510079e-04  2.623353e-07
    298    285   2   0.50000    -0.1150000   -0.1150000   1.172438e-03  2.346713e-06
    298    300   2   0.50000    -0.1150000    0.1150000   2.431434e-04  1.541678e-07
    282    297   2   0.50000     0.6150000   -0.1150000   1.692561e-03  3.993218e-06
    282    309   2   0.50000     0.6150000    0.1150000   3.510079e-04  2.623353e-07
    284    297   2   0.50000    -0.1150000   -0.1150000   1.172438e-03  2.346713e-06
    284    309   2   0.50000    -0.1150000    0.1150000   2.431434e-04  1.541678e-07
    283    286   2   0.50000    -0.1150000   -0.1150000   1.172438e-03  2.346713e-06
    283    301   2   0.50000    -0.1150000    0.1150000   2.431434e-04  1.541678e-07
    300    286   2   0.50000     0.1150000   -0.1150000   2.431434e-04  1.541678e-07
    300    301   2   0.50000     0.1150000    0.1150000   5.042375e-05  1.012808e-08
    284    287   2   0.50000    -0.1150000    0.6150000   1.692561e-03  3.993218e-06
    301    287   2   0.50000     0.1150000    0.6150000   3.510079e-04  2.623353e-07
    301    297   2   0.50000     0.1150000   -0.1150000   2.431434e-04  1.541678e-07
    285    288   2   0.50000    -0.1150000   -0.3850000   1.401943e-03  2.153106e-06
    285    296   2   0.50000    -0.1150000   -0.5000000   1.177174e-03  1.365843e-06
    297    288   2   0.50000    -0.1150000   -0.3850000   1.401943e-03  2.153106e-06
    297    296   2   0.50000    -0.1150000   -0.5000000   1.177174e-03  1.365843e-06
    285    308   2   0.50000    -0.1150000    0.1150000   2.431434e-04  1.541678e-07
    287    298   2   0.50000     0.6150000   -0.1150000   1.692561e-03  3.993218e-06
    287    308   2   0.50000     0.6150000    0.1150000   3.510079e-04  2.623353e-07
    286    289   2   0.50000    -0.1150000    0.0850000   1.172438e-03  2.346713e-06
    286    302   2   0.50000    -0.1150000    0.3000000   2.144502e-06  1.199282e-11
    296    289   2   0.50000    -0.5000000    0.0850000   1.177174e-03  1.365843e-06
    296    302   2   0.50000    -0.5000000    0.3000000   2.153164e-06  6.980110e-12
    287    290   2   0.50000     0.6150000   -0.1150000   1.692561e-03  3.993218e-06
    287    295   2   0.50000     0.6150000   -0.1150000   1.692561e-03  3.993218e-06
    302    290   2   0.50000     0.3000000   -0.1150000   2.144502e-06  1.199282e-11
    302    295   2   0.50000     0.3000000   -0.1150000   2.144502e-06  1.199282e-11
    288    291   2   0.50000    -0.3850000   -0.1150000   1.401943e-03  2.153106e-06
    288    303   2   0.50000    -0.3850000    0.1150000   2.907388e-04  1.414488e-07
    295    291   2   0.50000    -0.1150000   -0.1150000   1.172438e-03  2.346713e-06
    295    303   2   0.50000    -0.1150000    0.1150000   2.431434e-04  1.541678e-07
    288    294   2   0.50000    -0.3850000   -0.1150000   1.401943e-03  2.153106e-06
    288    307   2   0.50000    -0.3850000    0.1150000   2.907388e-04  1.414488e-07
    290    294   2   0.50000    -0.1150000   -0.1150000   1.172438e-03  2.346713e-06
    290    307   2   0.50000    -0.1150000    0.1150000   2.431434e-04  1.541678e-07
    289    292   2   0.50000     0.0850000    0.0850000   1.172438e-03  2.346713e-06
    289    304   2   0.50000     0.0850000    0.1150000   2.431434e-04  1.541678e-07
    303    292   2   0.50000     0.1150000    0.0850000   2.431434e-04  1.541678e-07
    303    304   2   0.50000     0.1150000    0.1150000   5.042375e-05  1.012808e-08
    290    293   2   0.50000    -0.1150000   -0.3850000   1.401943e-03  2.153106e-06
    304    293   2   0.50000     0.1150000   -0.3850000   2.907388e-04  1.414488e-07
    304    294   2   0.50000     0.1150000   -0.1150000   2.431434e-04  1.541678e-07
    291    305   2   0.50000    -0.1150000    0.3000000   2.144502e-06  1.199282e-11
    291    310   2   0.50000    -0.1150000    0.6150000   1.692561e-03  3.993218e-06
    294    305   2   0.50000    -0.1150000    0.3000000   2.144502e-06  1.199282e-11
    294    310   2   0.50000    -0.1150000    0.6150000   1.692561e-03  3.993218e-06
    291    306   2   0.50000    -0.1150000    0.1150000   2.431434e-04  1.541678e-07
    293    295   2   0.50000    -0.3850000   -0.1150000   1.401943e-03  2.153106e-06
    293    306   2   0.50000    -0.3850000    0.1150000   2.907388e-04  1.414488e-07
    292    311   2   0.50000     0.0850000   -0.1150000   1.172438e-03  2.346713e-06
    292    327   2   0.50000     0.0850000   -0.5000000   1.177174e-03  1.365843e-06
    305    311   2   0.50000     0.3000000   -0.1150000   2.144502e-06  1.199282e-11
    305    327   2   0.50000     0.3000000   -0.5000000   2.153164e-06  6.980110e-12
    292    307   2   0.50000     0.0850000    0.1150000   2.431434e-04  1.541678e-07
    306    289   2   0.50000     0.1150000    0.0850000   2.431434e-04  1.541678e-07
    306    307   2   0.50000     0.1150000    0.1150000   5.042375e-05  1.012808e-08
    286    309   2   0.50000    -0.1150000    0.1150000   2.431434e-04  1.541678e-07
    308    283   2   0.50000     0.1150000   -0.1150000   2.431434e-04  1.541678e-07
    308    309   2   0.50000     0.1150000    0.1150000   5.042375e-05  1.012808e-08
    293    312   2   0.50000    -0.3850000   -0.1150000   1.401943e-03  2.153106e-06
    293    326   2   0.50000    -0.3850000   -0.1150000   1.401943e-03  2.153106e-06
    327    312   2   0.50000    -0.5000000   -0.1150000   1.177174e-03  1.365843e-06
    327    326   2   0.50000    -0.5000000   -0.1150000   1.177174e-03  1.365843e-06
    310    313   2   0.50000     0.6150000   -0.1150000   1.692561e-03  3.993218e-06
    310    328   2   0.50000     0.6150000    0.1150000   3.510079e-04  2.623353e-07
    326    313   2   0.50000    -0.1150000   -0.1150000   1.172438e-03  2.346713e-06
    326    328   2   0.50000    -0.1150000    0.1150000   2.431434e-04  1.541678e-07
    310    325   2   0.50000     0.6150000   -0.1150000   1.692561e-03  3.993218e-06
    310    337   2   0.50000     0.6150000    0.1150000   3.510079e-04  2.623353e-07
    312    325   2   0.50000    -0.1150000   -0.1150000   1.172438e-03  2.346713e-06
    312    337   2   0.50000    -0.1150000    0.1150000   2.431434e-04  1.541678e-07
    311    314   2   0.50000    -0.1150000   -0.1150000   1.172438e-03  2.346713e-06
    311    329   2   0.50000    -0.1150000    0.1150000   2.431434e-04  1.541678e-07
    328    314   2   0.50000     0.1150000   -0.1150000   2.431434e-04  1.541678e-07
    328    329   2   0.50000     0.1150000    0.1150000   5.042375e-05  1.012808e-08
    312    315   2   0.50000    -0.1150000    0.6150000   1.692561e-03  3.993218e-06
    329    315   2   0.50000     0.1150000    0.6150000   3.510079e-04  2.623353e-07
    329    325   2   0.50000     0.1150000   -0.1150000   2.431434e-04  1.541678e-07
    313    316   2   0.50000    -0.1150000   -0.3850000   1.401943e-03  2.153106e-06
    313    324   2   0.50000    -0.1150000   -0.5000000   1.177174e-03  1.365843e-06
    325    316   2   0.50000    -0.1150000   -0.3850000   1.401943e-03  2.153106e-06
    325    324   2   0.50000    -0.1150000   -0.5000000   1.177174e-03  1.365843e-06
    313    336   2   0.50000    -0.1150000    0.1150000   2.431434e-04  1.541678e-07
    315    326   2   0.50000     0.6150000   -0.1150000   1.692561e-03  3.993218e-06
    315    336   2   0.50000     0.6150000    0.1150000   3.510079e-04  2.623353e-07
    314    317   2   0.50000    -0.1150000    0.0850000   1.172438e-03  2.346713e-06
    314    330   2   0.50000    -0.1150000    0.3000000   2.144502e-06  1.199282e-11
    324    317   2   0.50000    -0.5000000    0.0850000   1.177174e-03  1.365843e-06
    324    330   2   0.50000    -0.5000000    0.3000000   2.153164e-06  6.980110e-12
    315    318   2   0.50000     0.6150000   -0.1150000   1.692561e-03  3.993218e-06
    315    323   2   0.50000     0.6150000   -0.1150000   1.692561e-03  3.993218e-06
    330    318   2   0.50000     0.3000000   -0.1150000   2.144502e-06  1.199282e-11
    330    323   2   0.50000     0.3000000   -0.1150000   2.144502e-06  1.199282e-11
    316    319   2   0.50000    -0.3850000   -0.1150000   1.401943e-03  2.153106e-06
    316    331   2   0.50000    -0.3850000    0.1150000   2.907388e-04  1.414488e-07
    323    319   2   0.50000    -0.1150000   -0.1150000   1.172438e-03  2.346713e-06
    323    331   2   0.50000    -0.1150000    0.1150000   2.431434e-04  1.541678e-07
    316    322   2   0.50000    -0.3850000   -0.1150000   1.401943e-03  2.153106e-06
    316    335   2   0.50000    -0.3850000    0.1150000   2.907388e-04  1.414488e-07
    318    322   2   0.50000    -0.1150000   -0.1150000   1.172438e-03  2.346713e-06
    318    335   2   0.50000    -0.1150000    0.1150000   2.431434e-04  1.541678e-07
    317    320   2   0.50000     0.0850000    0.0850000   1.172438e-03  2.346713e-06
    317    332   2   0.50000     0.0850000    0.1150000   2.431434e-04  1.541678e-07
    331    320   2   0.50000     0.1150000    0.0850000   2.431434e-04  1.541678e-07
    331    332   2   0.50000     0.1150000    0.1150000   5.042375e-05  1.012808e-08
    318    321   2   0.50000    -0.1150000   -0.3850000   1.401943e-03  2.153106e-06
    332    321   2   0.50000     0.1150000   -0.3850000   2.907388e-04  1.414488e-07
    332    322   2   0.50000     0.1150000   -0.1150000   2.431434e-04  1.541678e-07
    319    333   2   0.50000    -0.1150000    0.3000000   2.144502e-06  1.199282e-11
    319    338   2   0.50000    -0.1150000    0.6150000   1.692561e-03  3.993218e-06
    322    333   2   0.50000    -0.1150000    0.3000000   2.144502e-06  1.199282e-11
    322    338   2   0.50000    -0.1150000    0.6150000   1.692561e-03  3.993218e-06
    319    334   2   0.50000    -0.1150000    0.1150000   2.431434e-04  1.541678e-07
    321    323   2   0.50000    -0.3850000   -0.1150000   1.401943e-03  2.153106e-06
    321    334   2   0.50000    -0.3850000    0.1150000   2.907388e-04  1.414488e-07
    320    339   2   0.50000     0.0850000   -0.1150000   1.172438e-03  2.346713e-06
    320    355   2   0.50000     0.0850000   -0.5000000   1.177174e-03  1.365843e-06
    333    339   2   0.50000     0.3000000   -0.1150000   2.144502e-06  1.199282e-11
    333    355   2   0.50000     0.3000000   -0.5000000   2.153164e-06  6.980110e-12
    320    335   2   0.50000     0.0850000    0.1150000   2.431434e-04  1.541678e-07
    334    317   2   0.50000     0.1150000    0.0850000   2.431434e-04  1.541678e-07
    334    335   2   0.50000     0.1150000    0.1150000   5.042375e-05  1.012808e-08
    314    337   2   0.50000    -0.1150000    0.1150000   2.431434e-04  1.541678e-07
    336    311   2   0.50000     0.1150000   -0.1150000   2.431434e-04  1.541678e-07
    336    337   2   0.50000     0.1150000    0.1150000   5.042375e-05  1.012808e-08
    321    340   2   0.50000    -0.3850000   -0.1150000   1.401943e-03  2.153106e-06
    321    354   2   0.50000    -0.3850000   -0.1150000   1.401943e-03  2.153106e-06
    355    340   2   0.50000    -0.5000000   -0.1150000   1.177174e-03  1.365843e-06
    355    354   2   0.50000    -0.5000000   -0.1150000   1.177174e-03  1.365843e-06
    338    341   2   0.50000     0.6150000   -0.1150000   1.692561e-03  3.993218e-06
    338    356   2   0.50000     0.6150000    0.1150000   3.510079e-04  2.623353e-07
    354    341   2   0.50000    -0.1150000   -0.1150000   1.172438e-03  2.346713e-06
    354    356   2   0.50000    -0.1150000    0.1150000   2.431434e-04  1.541678e-07
    338    353   2   0.50000     0.6150000   -0.1150000   1.692561e-03  3.993218e-06
    338    365   2   0.50000     0.6150000    0.1150000   3.510079e-04  2.623353e-07
    340    353   2   0.50000    -0.1150000   -0.1150000   1.172438e-03  2.346713e-06
    340    365   2   0.50000    -0.1150000    0.1150000   2.431434e-04  1.541678e-07
    339    342   2   0.50000    -0.1150000   -0.1150000   1.172438e-03  2.346713e-06
    339    357   2   0.50000    -0.1150000    0.1150000   2.431434e-04  1.541678e-07
    356    342   2   0.50000     0.1150000   -0.1150000   2.431434e-04  1.541678e-07
    356    357   2   0.50000     0.1150000    0.1150000   5.042375e-05  1.012808e-08
    340    343   2   0.50000    -0.1150000    0.6150000   1.692561e-03  3.993218e-06
    357    343   2   0.50000     0.1150000    0.6150000   3.510079e-04  2.623353e-07
    357    353   2   0.50000     0.1150000   -0.1150000   2.431434e-04  1.541678e-07
    341    344   2   0.50000    -0.1150000   -0.3850000   1.401943e-03  2.153106e-06
    341    352   2   0.50000    -0.1150000   -0.5000000   1.177174e-03  1.365843e-06
    353    344   2   0.50000    -0.1150000   -0.3850000   1.401943e-03  2.153106e-06
    353    352   2   0.50000    -0.1150000   -0.5000000   1.177174e-03  1.365843e-06
    341    364   2   0.50000    -0.1150000    0.1150000   2.431434e-04  1.541678e-07
    343    354   2   0.50000     0.6150000   -0.1150000   1.692561e-03  3.993218e-06
    343    364   2   0.50000     0.6150000    0.1150000   3.510079e-04  2.623353e-07
    342    345   2   0.50000    -0.1150000    0.0850000   1.172438e-03  2.346713e-06
    342    358   2   0.50000    -0.1150000    0.3000000   2.144502e-06  1.199282e-11
    352    345   2   0.50000    -0.5000000    0.0850000   1.177174e-03  1.365843e-06
    352    358   2   0.50000    -0.5000000    0.3000000   2.153164e-06  6.980110e-12
    343    346   2   0.50000     0.6150000   -0.1150000   1.692561e-03  3.993218e-06
    343    351   2   0.50000     0.6150000   -0.1150000   1.692561e-03  3.993218e-06
    358    346   2   0.50000     0.3000000   -0.1150000   2.144502e-06  1.199282e-11
    358    351   2   0.50000     0.3000000   -0.1150000   2.144502e-06  1.199282e-11
    344    347   2   0.50000    -0.3850000   -0.1150000   1.401943e-03  2.153106e-06
    344    359   2   0.50000    -0.3850000    0.1150000   2.907388e-04  1.414488e-07
    351    347   2   0.50000    -0.1150000   -0.1150000   1.172438e-03  2.346713e-06
    351    359   2   0.50000    -0.1150000    0.1150000   2.431434e-04  1.541678e-07
    344    350   2   0.50000    -0.3850000   -0.1150000   1.401943e-03  2.153106e-06
    344    363   2   0.50000    -0.3850000    0.1150000   2.907388e-04  1.414488e-07
    346    350   2   0.50000    -0.1150000   -0.1150000   1.172438e-03  2.346713e-06
    346    363   2   0.50000    -0.1150000    0.1150000   2.431434e-04  1.541678e-07
    345    348   2   0.50000     0.0850000    0.0850000   1.172438e-03  2.346713e-06
    345    360   2   0.50000     0.0850000    0.1150000   2.431434e-04  1.541678e-07
    359    348   2   0.50000     0.1150000    0.0850000   2.431434e-04  1.541678e-07
    359    360   2   0.50000     0.1150000    0.1150000   5.042375e-05  1.012808e-08
    346    349   2   0.50000    -0.1150000   -0.3850000   1.401943e-03  2.153106e-06
    360    349   2   0.50000     0.1150000   -0.3850000   2.907388e-04  1.414488e-07
    360    350   2   0.50000     0.1150000   -0.1150000   2.431434e-04  1.541678e-07
    347    361   2   0.50000    -0.1150000    0.3000000   2.144502e-06  1.199282e-11
    347    366   2   0.50000    -0.1150000    0.6150000   1.692561e-03  3.993218e-06
    350    361   2   0.50000    -0.1150000    0.3000000   2.144502e-06  1.199282e-11
    350    366   2   0.50000    -0.1150000    0.6150000   1.692561e-03  3.993218e-06
    347    362   2   0.50000    -0.1150000    0.1150000   2.431434e-04  1.541678e-07
    349    351   2   0.50000    -0.3850000   -0.1150000   1.401943e-03  2.153106e-06
    349    362   2   0.50000    -0.3850000    0.1150000   2.907388e-04  1.414488e-07
    348    367   2   0.50000     0.0850000   -0.1150000   1.172438e-03  2.346713e-06
    348    383   2   0.50000     0.0850000   -0.5000000   1.177174e-03  1.365843e-06
    361    367   2   0.50000     0.3000000   -0.1150000   2.144502e-06  1.199282e-11
    361    383   2   0.50000     0.3000000   -0.5000000   2.153164e-06  6.980110e-12
    348    363   2   0.50000     0.0850000    0.1150000   2.431434e-04  1.541678e-07
    362    345   2   0.50000     0.1150000    0.0850000   2.431434e-04  1.541678e-07
    362    363   2   0.50000     0.1150000    0.1150000   5.042375e-05  1.012808e-08
    342    365   2   0.50000    -0.1150000    0.1150000   2.431434e-04  1.541678e-07
    364    339   2   0.50000     0.1150000   -0.1150000   2.431434e-04  1.541678e-07
    364    365   2   0.50000     0.1150000    0.1150000   5.042375e-05  1.012808e-08
    349    368   2   0.50000    -0.3850000   -0.1150000   1.401943e-03  2.153106e-06
    349    382   2   0.50000    -0.3850000   -0.1150000   1.401943e-03  2.153106e-06
    383    368   2   0.50000    -0.5000000   -0.1150000   1.177174e-03  1.365843e-06
    383    382   2   0.50000    -0.5000000   -0.1150000   1.177174e-03  1.365843e-06
    366    369   2   0.50000     0.6150000   -0.1150000   1.692561e-03  3.993218e-06
    366    384   2   0.50000     0.6150000    0.1150000   3.510079e-04  2.623353e-07
    382    369   2   0.50000    -0.1150000   -0.1150000   1.172438e-03  2.346713e-06
    382    384   2   0.50000    -0.1150000    0.1150000   2.431434e-04  1.541678e-07
    366    381   2   0.50000     0.6150000   -0.1150000   1.692561e-03  3.993218e-06
    366    393   2   0.50000     0.6150000    0.1150000   3.510079e-04  2.623353e-07
    368    381   2   0.50000    -0.1150000   -0.1150000   1.172438e-03  2.346713e-06
    368    393   2   0.50000    -0.1150000    0.1150000   2.431434e-04  1.541678e-07
    367    370   2   0.50000    -0.1150000   -0.1150000   1.172438e-03  2.346713e-06
    367    385   2   0.50000    -0.1150000    0.1150000   2.431434e-04  1.541678e-07
    384    370   2   0.50000     0.1150000   -0.1150000   2.431434e-04  1.541678e-07
    384    385   2   0.50000     0.1150000    0.1150000   5.042375e-05  1.012808e-08
    368    371   2   0.50000    -0.1150000    0.6150000   1.692561e-03  3.993218e-06
    385    371   2   0.50000     0.1150000    0.6150000   3.510079e-04  2.623353e-07
    385    381   2   0.50000     0.1150000   -0.1150000   2.431434e-04  1.541678e-07
    369    372   2   0.50000    -0.1150000   -0.3850000   1.401943e-03  2.153106e-06
    369    380   2   0.50000    -0.1150000   -0.5000000   1.177174e-03  1.365843e-06
    381    372   2   0.50000    -0.1150000   -0.3850000   1.401943e-03  2.153106e-06
    381    380   2   0.50000    -0.1150000   -0.5000000   1.177174e-03  1.365843e-06
    369    392   2   0.50000    -0.1150000    0.1150000   2.431434e-04  1.541678e-07
    371    382   2   0.50000     0.6150000   -0.1150000   1.692561e-03  3.993218e-06
    371    392   2   0.50000     0.6150000    0.1150000   3.510079e-04  2.623353e-07
    370    373   2   0.50000    -0.1150000    0.0850000   1.172438e-03  2.346713e-06
    370    386   2   0.50000    -0.1150000    0.3000000   2.144502e-06  1.199282e-11
    380    373   2   0.50000    -0.5000000    0.0850000   1.177174e-03  1.365843e-06
    380    386   2   0.50000    -0.5000000    0.3000000   2.153164e-06  6.980110e-12
    371    374   2   0.50000     0.6150000   -0.1150000   1.692561e-03  3.993218e-06
    371    379   2   0.50000     0.6150000   -0.1150000   1.692561e-03  3.993218e-06
    386    374   2   0.50000     0.3000000   -0.1150000   2.144502e-06  1.199282e-11
    386    379   2   0.50000     0.3000000   -0.1150000   2.144502e-06  1.199282e-11
    372    375   2   0.50000    -0.3850000   -0.1150000   1.401943e-03  2.153106e-06
    372    387   2   0.50000    -0.3850000    0.1150000   2.907388e-04  1.414488e-07
    379    375   2   0.50000    -0.1150000   -0.1150000   1.172438e-03  2.346713e-06
    379    387   2   0.50000    -0.1150000    0.1150000   2.431434e-04  1.541678e-07
    372    378   2   0.50000    -0.3850000   -0.1150000   1.401943e-03  2.153106e-06
    372    391   2   0.50000    -0.3850000    0.1150000   2.907388e-04  1.414488e-07
    374    378   2   0.50000    -0.1150000   -0.1150000   1.172438e-03  2.346713e-06
    374    391   2   0.50000    -0.1150000    0.1150000   2.431434e-04  1.541678e-07
    373    376   2   0.50000     0.0850000    0.0850000   1.172438e-03  2.346713e-06
    373    388   2   0.50000     0.0850000    0.1150000   2.431434e-04  1.541678e-07
    387    376   2   0.50000     0.1150000    0.0850000   2.431434e-04  1.541678e-07
    387    388   2   0.50000     0.1150000    0.1150000   5.042375e-05  1.012808e-08
    374    377   2   0.50000    -0.1150000   -0.3850000   1.401943e-03  2.153106e-06
    388    377   2   0.50000     0.1150000   -0.3850000   2.907388e-04  1.414488e-07
    388    378   2   0.50000     0.1150000   -0.1150000   2.431434e-04  1.541678e-07
    375    389   2   0.50000    -0.1150000    0.3000000   2.144502e-06  1.199282e-11
    375    394   2   0.50000    -0.1150000    0.6150000   1.692561e-03  3.993218e-06
    378    389   2   0.50000    -0.1150000    0.3000000   2.144502e-06  1.199282e-11
    378    394   2   0.50000    -0.1150000    0.6150000   1.692561e-03  3.993218e-06
    375    390   2   0.50000    -0.1150000    0.1150000   2.431434e-04  1.541678e-07
    377    379   2   0.50000    -0.3850000   -0.1150000   1.401943e-03  2.153106e-06
    377    390   2   0.50000    -0.3850000    0.1150000   2.907388e-04  1.414488e-07
    376    395   2   0.50000     0.0850000   -0.1150000   1.172438e-03  2.346713e-06
    376    411   2   0.50000     0.0850000   -0.5000000   1.177174e-03  1.365843e-06
    389    395   2   0.50000     0.3000000   -0.1150000   2.144502e-06  1.199282e-11
    389    411   2   0.50000     0.3000000   -0.5000000   2.153164e-06  6.980110e-12
    376    391   2   0.50000     0.0850000    0.1150000   2.431434e-04  1.541678e-07
    390    373   2   0.50000     0.1150000    0.0850000   2.431434e-04  1.541678e-07
    390    391   2   0.50000     0.1150000    0.1150000   5.042375e-05  1.012808e-08
    370    393   2   0.50000    -0.1150000    0.1150000   2.431434e-04  1.541678e-07
    392    367   2   0.50000     0.1150000   -0.1150000   2.431434e-04  1.541678e-07
    392    393   2   0.50000     0.1150000    0.1150000   5.042375e-05  1.012808e-08
    377    396   2   0.50000    -0.3850000   -0.1150000   1.401943e-03  2.153106e-06
    377    410   2   0.50000    -0.3850000   -0.1150000   1.401943e-03  2.153106e-06
    411    396   2   0.50000    -0.5000000   -0.1150000   1.177174e-03  1.365843e-06
    411    410   2   0.50000    -0.5000000   -0.1150000   1.177174e-03  1.365843e-06
    394    397   2   0.50000     0.6150000   -0.1150000   1.692561e-03  3.993218e-06
    394    412   2   0.50000     0.6150000    0.1150000   3.510079e-04  2.623353e-07
    410    397   2   0.50000    -0.1150000   -0.1150000   1.172438e-03  2.346713e-06
    410    412   2   0.50000    -0.1150000    0.1150000   2.431434e-04  1.541678e-07
    394    409   2   0.50000     0.6150000   -0.1150000   1.692561e-03  3.993218e-06
    394    421   2   0.50000     0.6150000    0.1150000   3.510079e-04  2.623353e-07
    396    409   2   0.50000    -0.1150000   -0.1150000   1.172438e-03  2.346713e-06
    396    421   2   0.50000    -0.1150000    0.1150000   2.431434e-04  1.541678e-07
    395    398   2   0.50000    -0.1150000   -0.1150000   1.172438e-03  2.346713e-06
    395    413   2   0.50000    -0.1150000    0.1150000   2.431434e-04  1.541678e-07
    412    398   2   0.50000     0.1150000   -0.1150000   2.431434e-04  1.541678e-07
    412    413   2   0.50000     0.1150000    0.1150000   5.042375e-05  1.012808e-08
    396    399   2   0.50000    -0.1150000    0.6150000   1.692561e-03  3.993218e-06
    413    399   2   0.50000     0.1150000    0.6150000   3.510079e-04  2.623353e-07
    413    409   2   0.50000     0.1150000   -0.1150000   2.431434e-04  1.541678e-07
    397    400   2   0.50000    -0.1150000   -0.3850000   1.401943e-03  2.153106e-06
    397    408   2   0.50000    -0.1150000   -0.5000000   1.177174e-03  1.365843e-06
    409    400   2   0.50000    -0.1150000   -0.3850000   1.401943e-03  2.153106e-06
    409    408   2   0.50000    -0.1150000   -0.5000000   1.177174e-03  1.365843e-06
    397    420   2   0.50000    -0.1150000    0.1150000   2.431434e-04  1.541678e-07
    399    410   2   0.50000     0.6150000   -0.1150000   1.692561e-03  3.993218e-06
    399    420   2   0.50000     0.6150000    0.1150000   3.510079e-04  2.623353e-07
    398    401   2   0.50000    -0.1150000    0.0850000   1.172438e-03  2.346713e-06
    398    414   2   0.50000    -0.1150000    0.3000000   2.144502e-06  1.199282e-11
    408    401   2   0.50000    -0.5000000    0.0850000   1.177174e-03  1.365843e-06
    408    414   2   0.50000    -0.5000000    0.3000000   2.153164e-06  6.980110e-12
    399    402   2   0.50000     0.6150000   -0.1150000   1.692561e-03  3.993218e-06
    399    407   2   0.50000     0.6150000   -0.1150000   1.692561e-03  3.993218e-06
    414    402   2   0.50000     0.3000000   -0.1150000   2.144502e-06  1.199282e-11
    414    407   2   0.50000     0.3000000   -0.1150000   2.144502e-06  1.199282e-11
    400    403   2   0.50000    -0.3850000   -0.1150000   1.401943e-03  2.153106e-06
    400    415   2   0.50000    -0.3850000    0.1150000   2.907388e-04  1.414488e-07
    407    403   2   0.50000    -0.1150000   -0.1150000   1.172438e-03  2.346713e-06
    407    415   2   0.50000    -0.1150000    0.1150000   2.431434e-04  1.541678e-07
    400    406   2   0.50000    -0.3850000   -0.1150000   1.401943e-03  2.153106e-06
    400    419   2   0.50000    -0.3850000    0.1150000   2.907388e-04  1.414488e-07
    402    406   2   0.50000    -0.1150000   -0.1150000   1.172438e-03  2.346713e-06
    402    419   2   0.50000    -0.1150000    0.1150000   2.431434e-04  1.541678e-07
    401    404   2   0.50000     0.0850000    0.0850000   1.172438e-03  2.346713e-06
    401    416   2   0.50000     0.0850000    0.1150000   2.431434e-04  1.541678e-07
    415    404   2   0.50000     0.1150000    0.0850000   2.431434e-04  1.541678e-07
    415    416   2   0.50000     0.1150000    0.1150000   5.042375e-05  1.012808e-08
    402    405   2   0.50000    -0.1150000   -0.3850000   1.401943e-03  2.153106e-06
    416    405   2   0.50000     0.1150000   -0.3850000   2.907388e-04  1.414488e-07
    416    406   2   0.50000     0.1150000   -0.1150000   2.431434e-04  1.541678e-07
    403    417   2   0.50000    -0.1150000    0.3000000   2.144502e-06  1.199282e-11
    403    422   2   0.50000    -0.1150000    0.6150000   1.692561e-03  3.993218e-06
    406    417   2   0.50000    -0.1150000    0.3000000   2.144502e-06  1.199282e-11
    406    422   2   0.50000    -0.1150000    0.6150000   1.692561e-03  3.993218e-06
    403    418   2   0.50000    -0.1150000    0.1150000   2.431434e-04  1.541678e-07
    405    407   2   0.50000    -0.3850000   -0.1150000   1.401943e-03  2.153106e-06
    405    418   2   0.50000    -0.3850000    0.1150000   2.907388e-04  1.414488e-07
    404    423   2   0.50000     0.0850000   -0.1150000   1.172438e-03  2.346713e-06
    404    439   2   0.50000     0.0850000   -0.5000000   1.177174e-03  1.365843e-06
    417    423   2   0.50000     0.3000000   -0.1150000   2.144502e-06  1.199282e-11
    417    439   2   0.50000     0.3000000   -0.5000000   2.153164e-06  6.980110e-12
    404    419   2   0.50000     0.0850000    0.1150000   2.431434e-04  1.541678e-07
    418    401   2   0.50000     0.1150000    0.0850000   2.431434e-04  1.541678e-07
    418    419   2   0.50000     0.1150000    0.1150000   5.042375e-05  1.012808e-08
    398    421   2   0.50000    -0.1150000    0.1150000   2.431434e-04  1.541678e-07
    420    395   2   0.50000     0.1150000   -0.1150000   2.431434e-04  1.541678e-07
    420    421   2   0.50000     0.1150000    0.1150000   5.042375e-05  1.012808e-08
    405    424   2   0.50000    -0.3850000   -0.1150000   1.401943e-03  2.153106e-06
    405    438   2   0.50000    -0.3850000   -0.1150000   1.401943e-03  2.153106e-06
    439    424   2   0.50000    -0.5000000   -0.1150000   1.177174e-03  1.365843e-06
    439    438   2   0.50000    -0.5000000   -0.1150000   1.177174e-03  1.365843e-06
    422    425   2   0.50000     0.6150000   -0.1150000   1.692561e-03  3.993218e-06
    422    440   2   0.50000     0.6150000    0.1150000   3.510079e-04  2.623353e-07
    438    425   2   0.50000    -0.1150000   -0.1150000   1.172438e-03  2.346713e-06
    438    440   2   0.50000    -0.1150000    0.1150000   2.431434e-04  1.541678e-07
    422    437   2   0.50000     0.6150000   -0.1150000   1.692561e-03  3.993218e-06
    422    449   2   0.50000     0.6150000    0.1150000   3.510079e-04  2.623353e-07
    424    437   2   0.50000    -0.1150000   -0.1150000   1.172438e-03  2.346713e-06
    424    449   2   0.50000    -0.1150000    0.1150000   2.431434e-04  1.541678e-07
    423    426   2   0.50000    -0.1150000   -0.1150000   1.172438e-03  2.346713e-06
    423    441   2   0.50000    -0.1150000    0.1150000   2.431434e-04  1.541678e-07
    440    426   2   0.50000     0.1150000   -0.1150000   2.431434e-04  1.541678e-07
    440    441   2   0.50000     0.1150000    0.1150000   5.042375e-05  1.012808e-08
    424    427   2   0.50000    -0.1150000    0.6150000   1.692561e-03  3.993218e-06
    441    427   2   0.50000     0.1150000    0.6150000   3.510079e-04  2.623353e-07
    441    437   2   0.50000     0.1150000   -0.1150000   2.431434e-04  1.541678e-07
    425    428   2   0.50000    -0.1150000   -0.3850000   1.401943e-03  2.153106e-06
    425    436   2   0.50000    -0.1150000   -0.5000000   1.177174e-03  1.365843e-06
    437    428   2   0.50000    -0.1150000   -0.3850000   1.401943e-03  2.153106e-06
    437    436   2   0.50000    -0.1150000   -0.5000000   1.177174e-03  1.365843e-06
    425    448   2   0.50000    -0.1150000    0.1150000   2.431434e-04  1.541678e-07
    427    438   2   0.50000     0.6150000   -0.1150000   1.692561e-03  3.993218e-06
    427    448   2   0.50000     0.6150000    0.1150000   3.510079e-04  2.623353e-07
    426    429   2   0.50000    -0.1150000    0.0850000   1.172438e-03  2.346713e-06
    426    442   2   0.50000    -0.1150000    0.3000000   2.144502e-06  1.199282e-11
    436    429   2   0.50000    -0.5000000    0.0850000   1.177174e-03  1.365843e-06
    436    442   2   0.50000    -0.5000000    0.3000000   2.153164e-06  6.980110e-12
    427    430   2   0.50000     0.6150000   -0.1150000   1.692561e-03  3.993218e-06
    427    435   2   0.50000     0.6150000   -0.1150000   1.692561e-03  3.993218e-06
    442    430   2   0.50000     0.3000000   -0.1150000   2.144502e-06  1.199282e-11
    442    435   2   0.50000     0.3000000   -0.1150000   2.144502e-06  1.199282e-11
    428    431   2   0.50000    -0.3850000   -0.1150000   1.401943e-03  2.153106e-06
    428    443   2   0.50000    -0.3850000    0.1150000   2.907388e-04  1.414488e-07
    435    431   2   0.50000    -0.1150000   -0.1150000   1.172438e-03  2.346713e-06
    435    443   2   0.50000    -0.1150000    0.1150000   2.431434e-04  1.541678e-07
    428    434   2   0.50000    -0.3850000   -0.1150000   1.401943e-03  2.153106e-06
    428    447   2   0.50000    -0.3850000    0.1150000   2.907388e-04  1.414488e-07
    430    434   2   0.50000    -0.1150000   -0.1150000   1.172438e-03  2.346713e-06
    430    447   2   0.50000    -0.1150000    0.1150000   2.431434e-04  1.541678e-07
    429    432   2   0.50000     0.0850000    0.0850000   1.172438e-03  2.346713e-06
    429    444   2   0.50000     0.0850000    0.1150000   2.431434e-04  1.541678e-07
    443    432   2   0.50000     0.1150000    0.0850000   2.431434e-04  1.541678e-07
    443    444   2   0.50000     0.1150000    0.1150000   5.042375e-05  1.012808e-08
    430    433   2   0.50000    -0.1150000   -0.3850000   1.401943e-03  2.153106e-06
    444    433   2   0.50000     0.1150000   -0.3850000   2.907388e-04  1.414488e-07
    444    434   2   0.50000     0.1150000   -0.1150000   2.431434e-04  1.541678e-07
    431    445   2   0.50000    -0.1150000    0.3000000   2.144502e-06  1.199282e-11
    431    450   2   0.50000    -0.1150000    0.6150000   1.692561e-03  3.993218e-06
    434    445   2   0.50000    -0.1150000    0.3000000   2.144502e-06  1.199282e-11
    434    450   2   0.50000    -0.1150000    0.6150000   1.692561e-03  3.993218e-06
    431    446   2   0.50000    -0.1150000    0.1150000   2.431434e-04  1.541678e-07
    433    435   2   0.50000    -0.3850000   -0.1150000   1.401943e-03  2.153106e-06
    433    446   2   0.50000    -0.3850000    0.1150000   2.907388e-04  1.414488e-07
    432    451   2   0.50000     0.0850000   -0.1150000   1.172438e-03  2.346713e-06
    432    467   2   0.50000     0.0850000   -0.5000000   1.177174e-03  1.365843e-06
    445    451   2   0.50000     0.3000000   -0.1150000   2.144502e-06  1.199282e-11
    445    467   2   0.50000     0.3000000   -0.5000000   2.153164e-06  6.980110e-12
    432    447   2   0.50000     0.0850000    0.1150000   2.431434e-04  1.541678e-07
    446    429   2   0.50000     0.1150000    0.0850000   2.431434e-04  1.541678e-07
    446    447   2   0.50000     0.1150000    0.1150000   5.042375e-05  1.012808e-08
    426    449   2   0.50000    -0.1150000    0.1150000   2.431434e-04  1.541678e-07
    448    423   2   0.50000     0.1150000   -0.1150000   2.431434e-04  1.541678e-07
    448    449   2   0.50000     0.1150000    0.1150000   5.042375e-05  1.012808e-08
    433    452   2   0.50000    -0.3850000   -0.1150000   1.401943e-03  2.153106e-06
    433    466   2   0.50000    -0.3850000   -0.1150000   1.401943e-03  2.153106e-06
    467    452   2   0.50000    -0.5000000   -0.1150000   1.177174e-03  1.365843e-06
    467    466   2   0.50000    -0.5000000   -0.1150000   1.177174e-03  1.365843e-06
    450    453   2   0.50000     0.6150000   -0.1150000   1.692561e-03  3.993218e-06
    450    468   2   0.50000     0.6150000    0.1150000   3.510079e-04  2.623353e-07
    466    453   2   0.50000    -0.1150000   -0.1150000   1.172438e-03  2.346713e-06
    466    468   2   0.50000    -0.1150000    0.1150000   2.431434e-04  1.541678e-07
    450    465   2   0.50000     0.6150000   -0.1150000   1.692561e-03  3.993218e-06
    450    477   2   0.50000     0.6150000    0.1150000   3.510079e-04  2.623353e-07
    452    465   2   0.50000    -0.1150000   -0.1150000   1.172438e-03  2.346713e-06
    452    477   2   0.50000    -0.1150000    0.1150000   2.431434e-04  1.541678e-07
    451    454   2   0.50000    -0.1150000   -0.1150000   1.172438e-03  2.346713e-06
    451    469   2   0.50000    -0.1150000    0.1150000   2.431434e-04  1.541678e-07
    468    454   2   0.50000     0.1150000   -0.1150000   2.431434e-04  1.541678e-07
    468    469   2   0.50000     0.1150000    0.1150000   5.042375e-05  1.012808e-08
    452    455   2   0.50000    -0.1150000    0.6150000   1.692561e-03  3.993218e-06
    469    455   2   0.50000     0.1150000    0.6150000   3.510079e-04  2.623353e-07
    469    465   2   0.50000     0.1150000   -0.1150000   2.431434e-04  1.541678e-07
    453    456   2   0.50000    -0.1150000   -0.3850000   1.401943e-03  2.153106e-06
    453    464   2   0.50000    -0.1150000   -0.5000000   1.177174e-03  1.365843e-06
    465    456   2   0.50000    -0.1150000   -0.3850000   1.401943e-03  2.153106e-06
    465    464   2   0.50000    -0.1150000   -0.5000000   1.177174e-03  1.365843e-06
    453    476   2   0.50000    -0.1150000    0.1150000   2.431434e-04  1.541678e-07
    455    466   2   0.50000     0.6150000   -0.1150000   1.692561e-03  3.993218e-06
    455    476   2   0.50000     0.6150000    0.1150000   3.510079e-04  2.623353e-07
    454    457   2   0.50000    -0.1150000    0.0850000   1.172438e-03  2.346713e-06
    454    470   2   0.50000    -0.1150000    0.3000000   2.144502e-06  1.199282e-11
    464    457   2   0.50000    -0.5000000    0.0850000   1.177174e-03  1.365843e-06
    464    470   2   0.50000    -0.5000000    0.3000000   2.153164e-06  6.980110e-12
    455    458   2   0.50000     0.6150000   -0.1150000   1.692561e-03  3.993218e-06
    455    463   2   0.50000     0.6150000   -0.1150000   1.692561e-03  3.993218e-06
    470    458   2   0.50000     0.3000000   -0.1150000   2.144502e-06  1.199282e-11
    470    463   2   0.50000     0.3000000   -0.1150000   2.144502e-06  1.199282e-11
    456    459   2   0.50000    -0.3850000   -0.1150000   1.401943e-03  2.153106e-06
    456    471   2   0.50000    -0.3850000    0.1150000   2.907388e-04  1.414488e-07
    463    459   2   0.50000    -0.1150000   -0.1150000   1.172438e-03  2.346713e-06
    463    471   2   0.50000    -0.1150000    0.1150000   2.431434e-04  1.541678e-07
    456    462   2   0.50000    -0.3850000   -0.1150000   1.401943e-03  2.153106e-06
    456    475   2   0.50000    -0.3850000    0.1150000   2.907388e-04  1.414488e-07
    458    462   2   0.50000    -0.1150000   -0.1150000   1.172438e-03  2.346713e-06
    458    475   2   0.50000    -0.1150000    0.1150000   2.431434e-04  1.541678e-07
    457    460   2   0.50000     0.0850000    0.0850000   1.172438e-03  2.346713e-06
    457    472   2   0.50000     0.0850000    0.1150000   2.431434e-04  1.541678e-07
    471    460   2   0.50000     0.1150000    0.0850000   2.431434e-04  1.541678e-07
    471    472   2   0.50000     0.1150000    0.1150000   5.042375e-05  1.012808e-08
    458    461   2   0.50000    -0.1150000   -0.3850000   1.401943e-03  2.153106e-06
    472    461   2   0.50000     0.1150000   -0.3850000   2.907388e-04  1.414488e-07
    472    462   2   0.50000     0.1150000   -0.1150000   2.431434e-04  1.541678e-07
    459    473   2   0.50000    -0.1150000    0.3000000   2.144502e-06  1.199282e-11
    459    478   2   0.50000    -0.1150000    0.6150000   1.692561e-03  3.993218e-06
    462    473   2   0.50000    -0.1150000    0.3000000   2.144502e-06  1.199282e-11
    462    478   2   0.50000    -0.1150000    0.6150000   1.692561e-03  3.993218e-06
    459    474   2   0.50000    -0.1150000    0.1150000   2.431434e-04  1.541678e-07
    461    463   2   0.50000    -0.3850000   -0.1150000   1.401943e-03  2.153106e-06
    461    474   2   0.50000    -0.3850000    0.1150000   2.907388e-04  1.414488e-07
    460    479   2   0.50000     0.0850000   -0.1150000   1.172438e-03  2.346713e-06
    460    495   2   0.50000     0.0850000   -0.5000000   1.177174e-03  1.365843e-06
    473    479   2   0.50000     0.3000000   -0.1150000   2.144502e-06  1.199282e-11
    473    495   2   0.50000     0.3000000   -0.5000000   2.153164e-06  6.980110e-12
    460    475   2   0.50000     0.0850000    0.1150000   2.431434e-04  1.541678e-07
    474    457   2   0.50000     0.1150000    0.0850000   2.431434e-04  1.541678e-07
    474    475   2   0.50000     0.1150000    0.1150000   5.042375e-05  1.012808e-08
    454    477   2   0.50000    -0.1150000    0.1150000   2.431434e-04  1.541678e-07
    476    451   2   0.50000     0.1150000   -0.1150000   2.431434e-04  1.541678e-07
    476    477   2   0.50000     0.1150000    0.1150000   5.042375e-05  1.012808e-08
    461    480   2   0.50000    -0.3850000   -0.1150000   1.401943e-03  2.153106e-06
    461    494   2   0.50000    -0.3850000   -0.1150000   1.401943e-03  2.153106e-06
    495    480   2   0.50000    -0.5000000   -0.1150000   1.177174e-03  1.365843e-06
    495    494   2   0.50000    -0.5000000   -0.1150000   1.177174e-03  1.365843e-06
    478    481   2   0.50000     0.6150000   -0.1150000   1.692561e-03  3.993218e-06
    478    496   2   0.50000     0.6150000    0.1150000   3.510079e-04  2.623353e-07
    494    481   2   0.50000    -0.1150000   -0.1150000   1.172438e-03  2.346713e-06
    494    496   2   0.50000    -0.1150000    0.1150000   2.431434e-04  1.541678e-07
    478    493   2   0.50000     0.6150000   -0.1150000   1.692561e-03  3.993218e-06
    478    505   2   0.50000     0.6150000    0.1150000   3.510079e-04  2.623353e-07
    480    493   2   0.50000    -0.1150000   -0.1150000   1.172438e-03  2.346713e-06
    480    505   2   0.50000    -0.1150000    0.1150000   2.431434e-04  1.541678e-07
    479    482   2   0.50000    -0.1150000   -0.1150000   1.172438e-03  2.346713e-06
    479    497   2   0.50000    -0.1150000    0.1150000   2.431434e-04  1.541678e-07
    496    482   2   0.50000     0.1150000   -0.1150000   2.431434e-04  1.541678e-07
    496    497   2   0.50000     0.1150000    0.1150000   5.042375e-05  1.012808e-08
    480    483   2   0.50000    -0.1150000    0.6150000   1.692561e-03  3.993218e-06
    497    483   2   0.50000     0.1150000    0.6150000   3.510079e-04  2.623353e-07
    497    493   2   0.50000     0.1150000   -0.1150000   2.431434e-04  1.541678e-07
    481    484   2   0.50000    -0.1150000   -0.3850000   1.401943e-03  2.153106e-06
    481    492   2   0.50000    -0.1150000   -0.5000000   1.177174e-03  1.365843e-06
    493    484   2   0.50000    -0.1150000   -0.3850000   1.401943e-03  2.153106e-06
    493    492   2   0.50000    -0.1150000   -0.5000000   1.177174e-03  1.365843e-06
    481    504   2   0.50000    -0.1150000    0.1150000   2.431434e-04  1.541678e-07
    483    494   2   0.50000     0.6150000   -0.1150000   1.692561e-03  3.993218e-06
    483    504   2   0.50000     0.6150000    0.1150000   3.510079e-04  2.623353e-07
    482    485   2   0.50000    -0.1150000    0.0850000   1.172438e-03  2.346713e-06
    482    498   2   0.50000    -0.1150000    0.3000000   2.144502e-06  1.199282e-11
    492    485   2   0.50000    -0.5000000    0.0850000   1.177174e-03  1.365843e-06
    492    498   2   0.50000    -0.5000000    0.3000000   2.153164e-06  6.980110e-12
    483    486   2   0.50000     0.6150000   -0.1150000   1.692561e-03  3.993218e-06
    483    491   2   0.50000     0.6150000   -0.1150000   1.692561e-03  3.993218e-06
    498    486   2   0.50000     0.3000000   -0.1150000   2.144502e-06  1.199282e-11
    498    491   2   0.50000     0.3000000   -0.1150000   2.144502e-06  1.199282e-11
    484    487   2   0.50000    -0.3850000   -0.1150000   1.401943e-03  2.153106e-06
    484    499   2   0.50000    -0.3850000    0.1150000   2.907388e-04  1.414488e-07
    491    487   2   0.50000    -0.1150000   -0.1150000   1.172438e-03  2.346713e-06
    491    499   2   0.50000    -0.1150000    0.1150000   2.431434e-04  1.541678e-07
    484    490   2   0.50000    -0.3850000   -0.1150000   1.401943e-03  2.153106e-06
    484    503   2   0.50000    -0.3850000    0.1150000   2.907388e-04  1.414488e-07
    486    490   2   0.50000    -0.1150000   -0.1150000   1.172438e-03  2.346713e-06
    486    503   2   0.50000    -0.1150000    0.1150000   2.431434e-04  1.541678e-07
    485    488   2   0.50000     0.0850000    0.0850000   1.172438e-03  2.346713e-06
    485    500   2   0.50000     0.0850000    0.1150000   2.431434e-04  1.541678e-07
    499    488   2   0.50000     0.1150000    0.0850000   2.431434e-04  1.541678e-07
    499    500   2   0.50000     0.1150000    0.1150000   5.042375e-05  1.012808e-08
    486    489   2   0.50000    -0.1150000   -0.3850000   1.401943e-03  2.153106e-06
    500    489   2   0.50000     0.1150000   -0.3850000   2.907388e-04  1.414488e-07
    500    490   2   0.50000     0.1150000   -0.1150000   2.431434e-04  1.541678e-07
    487    501   2   0.50000    -0.1150000    0.3000000   2.144502e-06  1.199282e-11
    487    506   2   0.50000    -0.1150000    0.6150000   1.692561e-03  3.993218e-06
    490    501   2   0.50000    -0.1150000    0.3000000   2.144502e-06  1.199282e-11
    490    506   2   0.50000    -0.1150000    0.6150000   1.692561e-03  3.993218e-06
    487    502   2   0.50000    -0.1150000    0.1150000   2.431434e-04  1.541678e-07
    489    491   2   0.50000    -0.3850000   -0.1150000   1.401943e-03  2.153106e-06
    489    502   2   0.50000    -0.3850000    0.1150000   2.907388e-04  1.414488e-07
    488    507   2   0.50000     0.0850000   -0.1150000   1.172438e-03  2.346713e-06
    488    523   2   0.50000     0.0850000   -0.5000000   1.177174e-03  1.365843e-06
    501    507   2   0.50000     0.3000000   -0.1150000   2.144502e-06  1.199282e-11
    501    523   2   0.50000     0.3000000   -0.5000000   2.153164e-06  6.980110e-12
    488    503   2   0.50000     0.0850000    0.1150000   2.431434e-04  1.541678e-07
    502    485   2   0.50000     0.1150000    0.0850000   2.431434e-04  1.541678e-07
    502    503   2   0.50000     0.1150000    0.1150000   5.042375e-05  1.012808e-08
    482    505   2   0.50000    -0.1150000    0.1150000   2.431434e-04  1.541678e-07
    504    479   2   0.50000     0.1150000   -0.1150000   2.431434e-04  1.541678e-07
    504    505   2   0.50000     0.1150000    0.1150000   5.042375e-05  1.012808e-08
    489    508   2   0.50000    -0.3850000   -0.1150000   1.401943e-03  2.153106e-06
    489    522   2   0.50000    -0.3850000   -0.1150000   1.401943e-03  2.153106e-06
    523    508   2   0.50000    -0.5000000   -0.1150000   1.177174e-03  1.365843e-06
    523    522   2   0.50000    -0.5000000   -0.1150000   1.177174e-03  1.365843e-06
    506    509   2   0.50000     0.6150000   -0.1150000   1.692561e-03  3.993218e-06
    506    524   2   0.50000     0.6150000    0.1150000   3.510079e-04  2.623353e-07
    522    509   2   0.50000    -0.1150000   -0.1150000   1.172438e-03  2.346713e-06
    522    524   2   0.50000    -0.1150000    0.1150000   2.431434e-04  1.541678e-07
    506    521   2   0.50000     0.6150000   -0.1150000   1.692561e-03  3.993218e-06
    506    533   2   0.50000     0.6150000    0.1150000   3.510079e-04  2.623353e-07
    508    521   2   0.50000    -0.1150000   -0.1150000   1.172438e-03  2.346713e-06
    508    533   2   0.50000    -0.1150000    0.1150000   2.431434e-04  1.541678e-07
    507    510   2   0.50000    -0.1150000   -0.1150000   1.172438e-03  2.346713e-06
    507    525   2   0.50000    -0.1150000    0.1150000   2.431434e-04  1.541678e-07
    524    510   2   0.50000     0.1150000   -0.1150000   2.431434e-04  1.541678e-07
    524    525   2   0.50000     0.1150000    0.1150000   5.042375e-05  1.012808e-08
    508    511   2   0.50000    -0.1150000    0.6150000   1.692561e-03  3.993218e-06
    525    511   2   0.50000     0.1150000    0.6150000   3.510079e-04  2.623353e-07
    525    521   2   0.50000     0.1150000   -0.1150000   2.431434e-04  1.541678e-07
    509    512   2   0.50000    -0.1150000   -0.3850000   1.401943e-03  2.153106e-06
    509    520   2   0.50000    -0.1150000   -0.5000000   1.177174e-03  1.365843e-06
    521    512   2   0.50000    -0.1150000   -0.3850000   1.401943e-03  2.153106e-06
    521    520   2   0.50000    -0.1150000   -0.5000000   1.177174e-03  1.365843e-06
    509    532   2   0.50000    -0.1150000    0.1150000   2.431434e-04  1.541678e-07
    511    522   2   0.50000     0.6150000   -0.1150000   1.692561e-03  3.993218e-06
    511    532   2   0.50000     0.6150000    0.1150000   3.510079e-04  2.623353e-07
    510    513   2   0.50000    -0.1150000    0.0850000   1.172438e-03  2.346713e-06
    510    526   2   0.50000    -0.1150000    0.3000000   2.144502e-06  1.199282e-11
    520    513   2   0.50000    -0.5000000    0.0850000   1.177174e-03  1.365843e-06
    520    526   2   0.50000    -0.5000000    0.3000000   2.153164e-06  6.980110e-12
    511    514   2   0.50000     0.6150000   -0.1150000   1.692561e-03  3.993218e-06
    511    519   2   0.50000     0.6150000   -0.1150000   1.692561e-03  3.993218e-06
    526    514   2   0.50000     0.3000000   -0.1150000   2.144502e-06  1.199282e-11
    526    519   2   0.50000     0.3000000   -0.1150000   2.144502e-06  1.199282e-11
    512    515   2   0.50000    -0.3850000   -0.1150000   1.401943e-03  2.153106e-06
    512    527   2   0.50000    -0.3850000    0.1150000   2.907388e-04  1.414488e-07
    519    515   2   0.50000    -0.1150000   -0.1150000   1.172438e-03  2.346713e-06
    519    527   2   0.50000    -0.1150000    0.1150000   2.431434e-04  1.541678e-07
    512    518   2   0.50000    -0.3850000   -0.1150000   1.401943e-03  2.153106e-06
    512    531   2   0.50000    -0.3850000    0.1150000   2.907388e-04  1.414488e-07
    514    518   2   0.50000    -0.1150000   -0.1150000   1.172438e-03  2.346713e-06
    514    531   2   0.50000    -0.1150000    0.1150000   2.431434e-04  1.541678e-07
    513    516   2   0.50000     0.0850000    0.0850000   1.172438e-03  2.346713e-06
    513    528   2   0.50000     0.0850000    0.1150000   2.431434e-04  1.541678e-07
    527    516   2   0.50000     0.1150000    0.0850000   2.431434e-04  1.541678e-07
    527    528   2   0.50000     0.1150000    0.1150000   5.042375e-05  1.012808e-08
    514    517   2   0.50000    -0.1150000   -0.3850000   1.401943e-03  2.153106e-06
    528    517   2   0.50000     0.1150000   -0.3850000   2.907388e-04  1.414488e-07
    528    518   2   0.50000     0.1150000   -0.1150000   2.431434e-04  1.541678e-07
    515    529   2   0.50000    -0.1150000    0.3000000   2.144502e-06  1.199282e-11
    515    534   2   0.50000    -0.1150000    0.6150000   1.692561e-03  3.993218e-06
    518    529   2   0.50000    -0.1150000    0.3000000   2.144502e-06  1.199282e-11
    518    534   2   0.50000    -0.1150000    0.6150000   1.692561e-03  3.993218e-06
    515    530   2   0.50000    -0.1150000    0.1150000   2.431434e-04  1.541678e-07
    517    519   2   0.50000    -0.3850000   -0.1150000   1.401943e-03  2.153106e-06
    517    530   2   0.50000    -0.3850000    0.1150000   2.907388e-04  1.414488e-07
    516    535   2   0.50000     0.0850000   -0.1150000   1.172438e-03  2.346713e-06
    516    551   2   0.50000     0.0850000   -0.5000000   1.177174e-03  1.365843e-06
    529    535   2   0.50000     0.3000000   -0.1150000   2.144502e-06  1.199282e-11
    529    551   2   0.50000     0.3000000   -0.5000000   2.153164e-06  6.980110e-12
    516    531   2   0.50000     0.0850000    0.1150000   2.431434e-04  1.541678e-07
    530    513   2   0.50000     0.1150000    0.0850000   2.431434e-04  1.541678e-07
    530    531   2   0.50000     0.1150000    0.1150000   5.042375e-05  1.012808e-08
    510    533   2   0.50000    -0.1150000    0.1150000   2.431434e-04  1.541678e-07
    532    507   2   0.50000     0.1150000   -0.1150000   2.431434e-04  1.541678e-07
    532    533   2   0.50000     0.1150000    0.1150000   5.042375e-05  1.012808e-08
    517    536   2   0.50000    -0.3850000   -0.1150000   1.401943e-03  2.153106e-06
    517    550   2   0.50000    -0.3850000   -0.1150000   1.401943e-03  2.153106e-06
    551    536   2   0.50000    -0.5000000   -0.1150000   1.177174e-03  1.365843e-06
    551    550   2   0.50000    -0.5000000   -0.1150000   1.177174e-03  1.365843e-06
    534    537   2   0.50000     0.6150000   -0.1150000   1.692561e-03  3.993218e-06
    534    552   2   0.50000     0.6150000    0.1150000   3.510079e-04  2.623353e-07
    550    537   2   0.50000    -0.1150000   -0.1150000   1.172438e-03  2.346713e-06
    550    552   2   0.50000    -0.1150000    0.1150000   2.431434e-04  1.541678e-07
    534    549   2   0.50000     0.6150000   -0.1150000   1.692561e-03  3.993218e-06
    534    561   2   0.50000     0.6150000    0.1150000   3.510079e-04  2.623353e-07
    536    549   2   0.50000    -0.1150000   -0.1150000   1.172438e-03  2.346713e-06
    536    561   2   0.50000    -0.1150000    0.1150000   2.431434e-04  1.541678e-07
    535    538   2   0.50000    -0.1150000   -0.1150000   1.172438e-03  2.346713e-06
    535    553   2   0.50000    -0.1150000    0.1150000   2.431434e-04  1.541678e-07
    552    538   2   0.50000     0.1150000   -0.1150000   2.431434e-04  1.541678e-07
    552    553   2   0.50000     0.1150000    0.1150000   5.042375e-05  1.012808e-08
    536    539   2   0.50000    -0.1150000    0.6150000   1.692561e-03  3.993218e-06
    553    539   2   0.50000     0.1150000    0.6150000   3.510079e-04  2.623353e-07
    553    549   2   0.50000     0.1150000   -0.1150000   2.431434e-04  1.541678e-07
    537    540   2   0.50000    -0.1150000   -0.3850000   1.401943e-03  2.153106e-06
    537    548   2   0.50000    -0.1150000   -0.5000000   1.177174e-03  1.365843e-06
    549    540   2   0.50000    -0.1150000   -0.3850000   1.401943e-03  2.153106e-06
    549    548   2   0.50000    -0.1150000   -0.5000000   1.177174e-03  1.365843e-06
    537    560   2   0.50000    -0.1150000    0.1150000   2.431434e-04  1.541678e-07
    539    550   2   0.50000     0.6150000   -0.1150000   1.692561e-03  3.993218e-06
    539    560   2   0.50000     0.6150000    0.1150000   3.510079e-04  2.623353e-07
    538    541   2   0.50000    -0.1150000    0.0850000   1.172438e-03  2.346713e-06
    538    554   2   0.50000    -0.1150000    0.3000000   2.144502e-06  1.199282e-11
    548    541   2   0.50000    -0.5000000    0.0850000   1.177174e-03  1.365843e-06
    548    554   2   0.50000    -0.5000000    0.3000000   2.153164e-06  6.980110e-12
    539    542   2   0.50000     0.6150000   -0.1150000   1.692561e-03  3.993218e-06
    539    547   2   0.50000     0.6150000   -0.1150000   1.692561e-03  3.993218e-06
    554    542   2   0.50000     0.3000000   -0.1150000   2.144502e-06  1.199282e-11
    554    547   2   0.50000     0.3000000   -0.1150000   2.144502e-06  1.199282e-11
    540    543   2   0.50000    -0.3850000   -0.1150000   1.401943e-03  2.153106e-06
    540    555   2   0.50000    -0.3850000    0.1150000   2.907388e-04  1.414488e-07
    547    543   2   0.50000    -0.1150000   -0.1150000   1.172438e-03  2.346713e-06
    547    555   2   0.50000    -0.1150000    0.1150000   2.431434e-04  1.541678e-07
    540    546   2   0.50000    -0.3850000   -0.1150000   1.401943e-03  2.153106e-06
    540    559   2   0.50000    -0.3850000    0.1150000   2.907388e-04  1.414488e-07
    542    546   2   0.50000    -0.1150000   -0.1150000   1.172438e-03  2.346713e-06
    542    559   2   0.50000    -0.1150000    0.1150000   2.431434e-04  1.541678e-07
    541    544   2   0.50000     0.0850000    0.1800000   1.172438e-03  2.346713e-06
    541    556   2   0.50000     0.0850000    0.1150000   2.431434e-04  1.541678e-07
    555    544   2   0.50000     0.1150000    0.1800000   2.431434e-04  1.541678e-07
    555    556   2   0.50000     0.1150000    0.1150000   5.042375e-05  1.012808e-08
    542    545   2   0.50000    -0.1150000   -0.9000000   1.467648e-03  2.359657e-06
    556    545   2   0.50000     0.1150000   -0.9000000   3.043650e-04  1.550182e-07
    556    546   2   0.50000     0.1150000   -0.1150000   2.431434e-04  1.541678e-07
    543    557   2   0.50000    -0.1150000    0.3600000   2.144502e-06  1.199282e-11
    543    562   2   0.50000    -0.1150000    0.3600000   2.144502e-06  1.199282e-11
    546    557   2   0.50000    -0.1150000    0.3600000   2.144502e-06  1.199282e-11
    546    562   2   0.50000    -0.1150000    0.3600000   2.144502e-06  1.199282e-11
    543    558   2   0.50000    -0.1150000    0.1150000   2.431434e-04  1.541678e-07
    545    547   2   0.50000    -0.9000000   -0.1150000   1.467648e-03  2.359657e-06
    545    558   2   0.50000    -0.9000000    0.1150000   3.043650e-04  1.550182e-07
    544    559   2   0.50000     0.1800000    0.1150000   2.431434e-04  1.541678e-07
    558    541   2   0.50000     0.1150000    0.0850000   2.431434e-04  1.541678e-07
    558    559   2   0.50000     0.1150000    0.1150000   5.042375e-05  1.012808e-08
    538    561   2   0.50000    -0.1150000    0.1150000   2.431434e-04  1.541678e-07
    560    535   2   0.50000     0.1150000   -0.1150000   2.431434e-04  1.541678e-07
    560    561   2   0.50000     0.1150000    0.1150000   5.042375e-05  1.012808e-08

[ angles ]
; ai  aj  ak
      2      1     18   1    123.7840    627.6000
      2      1     29   1    115.0000    292.8800
     18      1     29   1    123.0000    292.8800
      1      2      3   1    119.5260    502.0800
      1      2     17   1    119.5260    502.0800
      3      2     17   1    120.0000    527.1840
      2      3      4   1    120.0000    527.1840
      2      3     19   1    120.0000    292.8800
      4      3     19   1    120.0000    292.8800
      3      4      5   1    120.0000    527.1840
      3      4     20   1    120.0000    292.8800
      5      4     20   1    120.0000    292.8800
      4      5      6   1    120.0000    711.2800
      4      5     16   1    120.0000    527.1840
      6      5     16   1    120.0000    711.2800
      5      6      7   1    113.9210    627.6000
      5      6     15   1    120.4000    669.4400
      7      6     15   1    122.9000    669.4400
      6      7      8   1    121.9650    543.9200
      6      7     21   1    119.8000    292.8800
      8      7     21   1    118.2360    376.5600
      7      8      9   1    119.0190    585.7600
      7      8     14   1    119.0190    585.7600
      9      8     14   1    120.0000    527.1840
      8      9     10   1    120.0000    527.1840
      8      9     22   1    120.0000    292.8800
     10      9     22   1    120.0000    292.8800
      9     10     11   1    120.0000    527.1840
      9     10     23   1    120.0000    292.8800
     11     10     23   1    120.0000    292.8800
     10     11     12   1    119.0190    585.7600
     10     11     13   1    120.0000    527.1840
     12     11     13   1    119.0190    585.7600
     11     12     24   1    118.2360    376.5600
     11     12     30   1    121.9650    543.9200
     24     12     30   1    119.8000    292.8800
     11     13     14   1    120.0000    527.1840
     11     13     25   1    120.0000    292.8800
     14     13     25   1    120.0000    292.8800
      8     14     13   1    120.0000    527.1840
      8     14     26   1    120.0000    292.8800
     13     14     26   1    120.0000    292.8800
      5     16     17   1    120.0000    527.1840
      5     16     27   1    120.0000    292.8800
     17     16     27   1    120.0000    292.8800
      2     17     16   1    120.0000    527.1840
      2     17     28   1    120.0000    292.8800
     16     17     28   1    120.0000    292.8800
     12     30     31   1    113.9210    627.6000
     12     30     47   1    122.9000    669.4400
     31     30     47   1    120.4000    669.4400
     30     31     32   1    120.0000    711.2800
     30     31     46   1    120.0000    711.2800
     32     31     46   1    120.0000    527.1840
     31     32     33   1    120.0000    527.1840
     31     32     48   1    120.0000    292.8800
     33     32     48   1    120.0000    292.8800
     32     33     34   1    120.0000    527.1840
     32     33     49   1    120.0000    292.8800
     34     33     49   1    120.0000    292.8800
     33     34     35   1    120.0000    711.2800
     33     34     45   1    120.0000    527.1840
     35     34     45   1    120.0000    711.2800
     34     35     36   1    113.9210    627.6000
     34     35     44   1    120.4000    669.4400
     36     35     44   1    122.9000    669.4400
     35     36     37   1    121.9650    543.9200
     35     36     50   1    119.8000    292.8800
     37     36     50   1    118.2360    376.5600
     36     37     38   1    119.0190    585.7600
     36     37     43   1    119.0190    585.7600
     38     37     43   1    120.0000    527.1840
     37     38     39   1    120.0000    527.1840
     37     38     51   1    120.0000    292.8800
     39     38     51   1    120.0000    292.8800
     38     39     40   1    120.0000    527.1840
     38     39     52   1    120.0000    292.8800
     40     39     52   1    120.0000    292.8800
     39     40     41   1    119.0190    585.7600
     39     40     42   1    120.0000    527.1840
     41     40     42   1    119.0190    585.7600
     40     41     53   1    118.2360    376.5600
     40     41     58   1    121.9650    543.9200
     53     41     58   1    119.8000    292.8800
     40     42     43   1    120.0000    527.1840
     40     42     54   1    120.0000    292.8800
     43     42     54   1    120.0000    292.8800
     37     43     42   1    120.0000    527.1840
     37     43     55   1    120.0000    292.8800
     42     43     55   1    120.0000    292.8800
     34     45     46   1    120.0000    527.1840
     34     45     56   1    120.0000    292.8800
     46     45     56   1    120.0000    292.8800
     31     46     45   1    120.0000    527.1840
     31     46     57   1    120.0000    292.8800
     45     46     57   1    120.0000    292.8800
     41     58     59   1    113.9210    627.6000
     41     58     75   1    122.9000    669.4400
     59     58     75   1    120.4000    669.4400
     58     59     60   1    120.0000    711.2800
     58     59     74   1    120.0000    711.2800
     60     59     74   1    120.0000    527.1840
     59     60     61   1    120.0000    527.1840
     59     60     76   1    120.0000    292.8800
     61     60     76   1    120.0000    292.8800
     60     61     62   1    120.0000    527.1840
     60     61     77   1    120.0000    292.8800
     62     61     77   1    120.0000    292.8800
     61     62     63   1    120.0000    711.2800
     61     62     73   1    120.0000    527.1840
     63     62     73   1    120.0000    711.2800
     62     63     64   1    113.9210    627.6000
     62     63     72   1    120.4000    669.4400
     64     63     72   1    122.9000    669.4400
     63     64     65   1    121.9650    543.9200
     63     64     78   1    119.8000    292.8800
     65     64     78   1    118.2360    376.5600
     64     65     66   1    119.0190    585.7600
     64     65     71   1    119.0190    585.7600
     66     65     71   1    120.0000    527.1840
     65     66     67   1    120.0000    527.1840
     65     66     79   1    120.0000    292.8800
     67     66     79   1    120.0000    292.8800
     66     67     68   1    120.0000    527.1840
     66     67     80   1    120.0000    292.8800
     68     67     80   1    120.0000    292.8800
     67     68     69   1    119.0190    585.7600
     67     68     70   1    120.0000    527.1840
     69     68     70   1    119.0190    585.7600
     68     69     81   1    118.2360    376.5600
     68     69     86   1    121.9650    543.9200
     81     69     86   1    119.8000    292.8800
     68     70     71   1    120.0000    527.1840
     68     70     82   1    120.0000    292.8800
     71     70     82   1    120.0000    292.8800
     65     71     70   1    120.0000    527.1840
     65     71     83   1    120.0000    292.8800
     70     71     83   1    120.0000    292.8800
     62     73     74   1    120.0000    527.1840
     62     73     84   1    120.0000    292.8800
     74     73     84   1    120.0000    292.8800
     59     74     73   1    120.0000    527.1840
     59     74     85   1    120.0000    292.8800
     73     74     85   1    120.0000    292.8800
     69     86     87   1    113.9210    627.6000
     69     86    103   1    122.9000    669.4400
     87     86    103   1    120.4000    669.4400
     86     87     88   1    120.0000    711.2800
     86     87    102   1    120.0000    711.2800
     88     87    102   1    120.0000    527.1840
     87     88     89   1    120.0000    527.1840
     87     88    104   1    120.0000    292.8800
     89     88    104   1    120.0000    292.8800
     88     89     90   1    120.0000    527.1840
     88     89    105   1    120.0000    292.8800
     90     89    105   1    120.0000    292.8800
     89     90     91   1    120.0000    711.2800
     89     90    101   1    120.0000    527.1840
     91     90    101   1    120.0000    711.2800
     90     91     92   1    113.9210    627.6000
     90     91    100   1    120.4000    669.4400
     92     91    100   1    122.9000    669.4400
     91     92     93   1    121.9650    543.9200
     91     92    106   1    119.8000    292.8800
     93     92    106   1    118.2360    376.5600
     92     93     94   1    119.0190    585.7600
     92     93     99   1    119.0190    585.7600
     94     93     99   1    120.0000    527.1840
     93     94     95   1    120.0000    527.1840
     93     94    107   1    120.0000    292.8800
     95     94    107   1    120.0000    292.8800
     94     95     96   1    120.0000    527.1840
     94     95    108   1    120.0000    292.8800
     96     95    108   1    120.0000    292.8800
     95     96     97   1    119.0190    585.7600
     95     96     98   1    120.0000    527.1840
     97     96     98   1    119.0190    585.7600
     96     97    109   1    118.2360    376.5600
     96     97    114   1    121.9650    543.9200
    109     97    114   1    119.8000    292.8800
     96     98     99   1    120.0000    527.1840
     96     98    110   1    120.0000    292.8800
     99     98    110   1    120.0000    292.8800
     93     99     98   1    120.0000    527.1840
     93     99    111   1    120.0000    292.8800
     98     99    111   1    120.0000    292.8800
     90    101    102   1    120.0000    527.1840
     90    101    112   1    120.0000    292.8800
    102    101    112   1    120.0000    292.8800
     87    102    101   1    120.0000    527.1840
     87    102    113   1    120.0000    292.8800
    101    102    113   1    120.0000    292.8800
     97    114    115   1    113.9210    627.6000
     97    114    131   1    122.9000    669.4400
    115    114    131   1    120.4000    669.4400
    114    115    116   1    120.0000    711.2800
    114    115    130   1    120.0000    711.2800
    116    115    130   1    120.0000    527.1840
    115    116    117   1    120.0000    527.1840
    115    116    132   1    120.0000    292.8800
    117    116    132   1    120.0000    292.8800
    116    117    118   1    120.0000    527.1840
    116    117    133   1    120.0000    292.8800
    118    117    133   1    120.0000    292.8800
    117    118    119   1    120.0000    711.2800
    117    118    129   1    120.0000    527.1840
    119    118    129   1    120.0000    711.2800
    118    119    120   1    113.9210    627.6000
    118    119    128   1    120.4000    669.4400
    120    119    128   1    122.9000    669.4400
    119    120    121   1    121.9650    543.9200
    119    120    134   1    119.8000    292.8800
    121    120    134   1    118.2360    376.5600
    120    121    122   1    119.0190    585.7600
    120    121    127   1    119.0190    585.7600
    122    121    127   1    120.0000    527.1840
    121    122    123   1    120.0000    527.1840
    121    122    135   1    120.0000    292.8800
    123    122    135   1    120.0000    292.8800
    122    123    124   1    120.0000    527.1840
    122    123    136   1    120.0000    292.8800
    124    123    136   1    120.0000    292.8800
    123    124    125   1    119.0190    585.7600
    123    124    126   1    120.0000    527.1840
    125    124    126   1    119.0190    585.7600
    124    125    137   1    118.2360    376.5600
    124    125    142   1    121.9650    543.9200
    137    125    142   1    119.8000    292.8800
    124    126    127   1    120.0000    527.1840
    124    126    138   1    120.0000    292.8800
    127    126    138   1    120.0000    292.8800
    121    127    126   1    120.0000    527.1840
    121    127    139   1    120.0000    292.8800
    126    127    139   1    120.0000    292.8800
    118    129    130   1    120.0000    527.1840
    118    129    140   1    120.0000    292.8800
    130    129    140   1    120.0000    292.8800
    115    130    129   1    120.0000    527.1840
    115    130    141   1    120.0000    292.8800
    129    130    141   1    120.0000    292.8800
    125    142    143   1    113.9210    627.6000
    125    142    159   1    122.9000    669.4400
    143    142    159   1    120.4000    669.4400
    142    143    144   1    120.0000    711.2800
    142    143    158   1    120.0000    711.2800
    144    143    158   1    120.0000    527.1840
    143    144    145   1    120.0000    527.1840
    143    144    160   1    120.0000    292.8800
    145    144    160   1    120.0000    292.8800
    144    145    146   1    120.0000    527.1840
    144    145    161   1    120.0000    292.8800
    146    145    161   1    120.0000    292.8800
    145    146    147   1    120.0000    711.2800
    145    146    157   1    120.0000    527.1840
    147    146    157   1    120.0000    711.2800
    146    147    148   1    113.9210    627.6000
    146    147    156   1    120.4000    669.4400
    148    147    156   1    122.9000    669.4400
    147    148    149   1    121.9650    543.9200
    147    148    162   1    119.8000    292.8800
    149    148    162   1    118.2360    376.5600
    148    149    150   1    119.0190    585.7600
    148    149    155   1    119.0190    585.7600
    150    149    155   1    120.0000    527.1840
    149    150    151   1    120.0000    527.1840
    149    150    163   1    120.0000    292.8800
    151    150    163   1    120.0000    292.8800
    150    151    152   1    120.0000    527.1840
    150    151    164   1    120.0000    292.8800
    152    151    164   1    120.0000    292.8800
    151    152    153   1    119.0190    585.7600
    151    152    154   1    120.0000    527.1840
    153    152    154   1    119.0190    585.7600
    152    153    165   1    118.2360    376.5600
    152    153    170   1    121.9650    543.9200
    165    153    170   1    119.8000    292.8800
    152    154    155   1    120.0000    527.1840
    152    154    166   1    120.0000    292.8800
    155    154    166   1    120.0000    292.8800
    149    155    154   1    120.0000    527.1840
    149    155    167   1    120.0000    292.8800
    154    155    167   1    120.0000    292.8800
    146    157    158   1    120.0000    527.1840
    146    157    168   1    120.0000    292.8800
    158    157    168   1    120.0000    292.8800
    143    158    157   1    120.0000    527.1840
    143    158    169   1    120.0000    292.8800
    157    158    169   1    120.0000    292.8800
    153    170    171   1    113.9210    627.6000
    153    170    187   1    122.9000    669.4400
    171    170    187   1    120.4000    669.4400
    170    171    172   1    120.0000    711.2800
    170    171    186   1    120.0000    711.2800
    172    171    186   1    120.0000    527.1840
    171    172    173   1    120.0000    527.1840
    171    172    188   1    120.0000    292.8800
    173    172    188   1    120.0000    292.8800
    172    173    174   1    120.0000    527.1840
    172    173    189   1    120.0000    292.8800
    174    173    189   1    120.0000    292.8800
    173    174    175   1    120.0000    711.2800
    173    174    185   1    120.0000    527.1840
    175    174    185   1    120.0000    711.2800
    174    175    176   1    113.9210    627.6000
    174    175    184   1    120.4000    669.4400
    176    175    184   1    122.9000    669.4400
    175    176    177   1    121.9650    543.9200
    175    176    190   1    119.8000    292.8800
    177    176    190   1    118.2360    376.5600
    176    177    178   1    119.0190    585.7600
    176    177    183   1    119.0190    585.7600
    178    177    183   1    120.0000    527.1840
    177    178    179   1    120.0000    527.1840
    177    178    191   1    120.0000    292.8800
    179    178    191   1    120.0000    292.8800
    178    179    180   1    120.0000    527.1840
    178    179    192   1    120.0000    292.8800
    180    179    192   1    120.0000    292.8800
    179    180    181   1    119.0190    585.7600
    179    180    182   1    120.0000    527.1840
    181    180    182   1    119.0190    585.7600
    180    181    193   1    118.2360    376.5600
    180    181    198   1    121.9650    543.9200
    193    181    198   1    119.8000    292.8800
    180    182    183   1    120.0000    527.1840
    180    182    194   1    120.0000    292.8800
    183    182    194   1    120.0000    292.8800
    177    183    182   1    120.0000    527.1840
    177    183    195   1    120.0000    292.8800
    182    183    195   1    120.0000    292.8800
    174    185    186   1    120.0000    527.1840
    174    185    196   1    120.0000    292.8800
    186    185    196   1    120.0000    292.8800
    171    186    185   1    120.0000    527.1840
    171    186    197   1    120.0000    292.8800
    185    186    197   1    120.0000    292.8800
    181    198    199   1    113.9210    627.6000
    181    198    215   1    122.9000    669.4400
    199    198    215   1    120.4000    669.4400
    198    199    200   1    120.0000    711.2800
    198    199    214   1    120.0000    711.2800
    200    199    214   1    120.0000    527.1840
    199    200    201   1    120.0000    527.1840
    199    200    216   1    120.0000    292.8800
    201    200    216   1    120.0000    292.8800
    200    201    202   1    120.0000    527.1840
    200    201    217   1    120.0000    292.8800
    202    201    217   1    120.0000    292.8800
    201    202    203   1    120.0000    711.2800
    201    202    213   1    120.0000    527.1840
    203    202    213   1    120.0000    711.2800
    202    203    204   1    113.9210    627.6000
    202    203    212   1    120.4000    669.4400
    204    203    212   1    122.9000    669.4400
    203    204    205   1    121.9650    543.9200
    203    204    218   1    119.8000    292.8800
    205    204    218   1    118.2360    376.5600
    204    205    206   1    119.0190    585.7600
    204    205    211   1    119.0190    585.7600
    206    205    211   1    120.0000    527.1840
    205    206    207   1    120.0000    527.1840
    205    206    219   1    120.0000    292.8800
    207    206    219   1    120.0000    292.8800
    206    207    208   1    120.0000    527.1840
    206    207    220   1    120.0000    292.8800
    208    207    220   1    120.0000    292.8800
    207    208    209   1    119.0190    585.7600
    207    208    210   1    120.0000    527.1840
    209    208    210   1    119.0190    585.7600
    208    209    221   1    118.2360    376.5600
    208    209    226   1    121.9650    543.9200
    221    209    226   1    119.8000    292.8800
    208    210    211   1    120.0000    527.1840
    208    210    222   1    120.0000    292.8800
    211    210    222   1    120.0000    292.8800
    205    211    210   1    120.0000    527.1840
    205    211    223   1    120.0000    292.8800
    210    211    223   1    120.0000    292.8800
    202    213    214   1    120.0000    527.1840
    202    213    224   1    120.0000    292.8800
    214    213    224   1    120.0000    292.8800
    199    214    213   1    120.0000    527.1840
    199    214    225   1    120.0000    292.8800
    213    214    225   1    120.0000    292.8800
    209    226    227   1    113.9210    627.6000
    209    226    243   1    122.9000    669.4400
    227    226    243   1    120.4000    669.4400
    226    227    228   1    120.0000    711.2800
    226    227    242   1    120.0000    711.2800
    228    227    242   1    120.0000    527.1840
    227    228    229   1    120.0000    527.1840
    227    228    244   1    120.0000    292.8800
    229    228    244   1    120.0000    292.8800
    228    229    230   1    120.0000    527.1840
    228    229    245   1    120.0000    292.8800
    230    229    245   1    120.0000    292.8800
    229    230    231   1    120.0000    711.2800
    229    230    241   1    120.0000    527.1840
    231    230    241   1    120.0000    711.2800
    230    231    232   1    113.9210    627.6000
    230    231    240   1    120.4000    669.4400
    232    231    240   1    122.9000    669.4400
    231    232    233   1    121.9650    543.9200
    231    232    246   1    119.8000    292.8800
    233    232    246   1    118.2360    376.5600
    232    233    234   1    119.0190    585.7600
    232    233    239   1    119.0190    585.7600
    234    233    239   1    120.0000    527.1840
    233    234    235   1    120.0000    527.1840
    233    234    247   1    120.0000    292.8800
    235    234    247   1    120.0000    292.8800
    234    235    236   1    120.0000    527.1840
    234    235    248   1    120.0000    292.8800
    236    235    248   1    120.0000    292.8800
    235    236    237   1    119.0190    585.7600
    235    236    238   1    120.0000    527.1840
    237    236    238   1    119.0190    585.7600
    236    237    249   1    118.2360    376.5600
    236    237    254   1    121.9650    543.9200
    249    237    254   1    119.8000    292.8800
    236    238    239   1    120.0000    527.1840
    236    238    250   1    120.0000    292.8800
    239    238    250   1    120.0000    292.8800
    233    239    238   1    120.0000    527.1840
    233    239    251   1    120.0000    292.8800
    238    239    251   1    120.0000    292.8800
    230    241    242   1    120.0000    527.1840
    230    241    252   1    120.0000    292.8800
    242    241    252   1    120.0000    292.8800
    227    242    241   1    120.0000    527.1840
    227    242    253   1    120.0000    292.8800
    241    242    253   1    120.0000    292.8800
    237    254    255   1    113.9210    627.6000
    237    254    271   1    122.9000    669.4400
    255    254    271   1    120.4000    669.4400
    254    255    256   1    120.0000    711.2800
    254    255    270   1    120.0000    711.2800
    256    255    270   1    120.0000    527.1840
    255    256    257   1    120.0000    527.1840
    255    256    272   1    120.0000    292.8800
    257    256    272   1    120.0000    292.8800
    256    257    258   1    120.0000    527.1840
    256    257    273   1    120.0000    292.8800
    258    257    273   1    120.0000    292.8800
    257    258    259   1    120.0000    711.2800
    257    258    269   1    120.0000    527.1840
    259    258    269   1    120.0000    711.2800
    258    259    260   1    113.9210    627.6000
    258    259    268   1    120.4000    669.4400
    260    259    268   1    122.9000    669.4400
    259    260    261   1    121.9650    543.9200
    259    260    274   1    119.8000    292.8800
    261    260    274   1    118.2360    376.5600
    260    261    262   1    119.0190    585.7600
    260    261    267   1    119.0190    585.7600
    262    261    267   1    120.0000    527.1840
    261    262    263   1    120.0000    527.1840
    261    262    275   1    120.0000    292.8800
    263    262    275   1    120.0000    292.8800
    262    263    264   1    120.0000    527.1840
    262    263    276   1    120.0000    292.8800
    264    263    276   1    120.0000    292.8800
    263    264    265   1    119.0190    585.7600
    263    264    266   1    120.0000    527.1840
    265    264    266   1    119.0190    585.7600
    264    265    277   1    118.2360    376.5600
    264    265    282   1    121.9650    543.9200
    277    265    282   1    119.8000    292.8800
    264    266    267   1    120.0000    527.1840
    264    266    278   1    120.0000    292.8800
    267    266    278   1    120.0000    292.8800
    261    267    266   1    120.0000    527.1840
    261    267    279   1    120.0000    292.8800
    266    267    279   1    120.0000    292.8800
    258    269    270   1    120.0000    527.1840
    258    269    280   1    120.0000    292.8800
    270    269    280   1    120.0000    292.8800
    255    270    269   1    120.0000    527.1840
    255    270    281   1    120.0000    292.8800
    269    270    281   1    120.0000    292.8800
    265    282    283   1    113.9210    627.6000
    265    282    299   1    122.9000    669.4400
    283    282    299   1    120.4000    669.4400
    282    283    284   1    120.0000    711.2800
    282    283    298   1    120.0000    711.2800
    284    283    298   1    120.0000    527.1840
    283    284    285   1    120.0000    527.1840
    283    284    300   1    120.0000    292.8800
    285    284    300   1    120.0000    292.8800
    284    285    286   1    120.0000    527.1840
    284    285    301   1    120.0000    292.8800
    286    285    301   1    120.0000    292.8800
    285    286    287   1    120.0000    711.2800
    285    286    297   1    120.0000    527.1840
    287    286    297   1    120.0000    711.2800
    286    287    288   1    113.9210    627.6000
    286    287    296   1    120.4000    669.4400
    288    287    296   1    122.9000    669.4400
    287    288    289   1    121.9650    543.9200
    287    288    302   1    119.8000    292.8800
    289    288    302   1    118.2360    376.5600
    288    289    290   1    119.0190    585.7600
    288    289    295   1    119.0190    585.7600
    290    289    295   1    120.0000    527.1840
    289    290    291   1    120.0000    527.1840
    289    290    303   1    120.0000    292.8800
    291    290    303   1    120.0000    292.8800
    290    291    292   1    120.0000    527.1840
    290    291    304   1    120.0000    292.8800
    292    291    304   1    120.0000    292.8800
    291    292    293   1    119.0190    585.7600
    291    292    294   1    120.0000    527.1840
    293    292    294   1    119.0190    585.7600
    292    293    305   1    118.2360    376.5600
    292    293    310   1    121.9650    543.9200
    305    293    310   1    119.8000    292.8800
    292    294    295   1    120.0000    527.1840
    292    294    306   1    120.0000    292.8800
    295    294    306   1    120.0000    292.8800
    289    295    294   1    120.0000    527.1840
    289    295    307   1    120.0000    292.8800
    294    295    307   1    120.0000    292.8800
    286    297    298   1    120.0000    527.1840
    286    297    308   1    120.0000    292.8800
    298    297    308   1    120.0000    292.8800
    283    298    297   1    120.0000    527.1840
    283    298    309   1    120.0000    292.8800
    297    298    309   1    120.0000    292.8800
    293    310    311   1    113.9210    627.6000
    293    310    327   1    122.9000    669.4400
    311    310    327   1    120.4000    669.4400
    310    311    312   1    120.0000    711.2800
    310    311    326   1    120.0000    711.2800
    312    311    326   1    120.0000    527.1840
    311    312    313   1    120.0000    527.1840
    311    312    328   1    120.0000    292.8800
    313    312    328   1    120.0000    292.8800
    312    313    314   1    120.0000    527.1840
    312    313    329   1    120.0000    292.8800
    314    313    329   1    120.0000    292.8800
    313    314    315   1    120.0000    711.2800
    313    314    325   1    120.0000    527.1840
    315    314    325   1    120.0000    711.2800
    314    315    316   1    113.9210    627.6000
    314    315    324   1    120.4000    669.4400
    316    315    324   1    122.9000    669.4400
    315    316    317   1    121.9650    543.9200
    315    316    330   1    119.8000    292.8800
    317    316    330   1    118.2360    376.5600
    316    317    318   1    119.0190    585.7600
    316    317    323   1    119.0190    585.7600
    318    317    323   1    120.0000    527.1840
    317    318    319   1    120.0000    527.1840
    317    318    331   1    120.0000    292.8800
    319    318    331   1    120.0000    292.8800
    318    319    320   1    120.0000    527.1840
    318    319    332   1    120.0000    292.8800
    320    319    332   1    120.0000    292.8800
    319    320    321   1    119.0190    585.7600
    319    320    322   1    120.0000    527.1840
    321    320    322   1    119.0190    585.7600
    320    321    333   1    118.2360    376.5600
    320    321    338   1    121.9650    543.9200
    333    321    338   1    119.8000    292.8800
    320    322    323   1    120.0000    527.1840
    320    322    334   1    120.0000    292.8800
    323    322    334   1    120.0000    292.8800
    317    323    322   1    120.0000    527.1840
    317    323    335   1    120.0000    292.8800
    322    323    335   1    120.0000    292.8800
    314    325    326   1    120.0000    527.1840
    314    325    336   1    120.0000    292.8800
    326    325    336   1    120.0000    292.8800
    311    326    325   1    120.0000    527.1840
    311    326    337   1    120.0000    292.8800
    325    326    337   1    120.0000    292.8800
    321    338    339   1    113.9210    627.6000
    321    338    355   1    122.9000    669.4400
    339    338    355   1    120.4000    669.4400
    338    339    340   1    120.0000    711.2800
    338    339    354   1    120.0000    711.2800
    340    339    354   1    120.0000    527.1840
    339    340    341   1    120.0000    527.1840
    339    340    356   1    120.0000    292.8800
    341    340    356   1    120.0000    292.8800
    340    341    342   1    120.0000    527.1840
    340    341    357   1    120.0000    292.8800
    342    341    357   1    120.0000    292.8800
    341    342    343   1    120.0000    711.2800
    341    342    353   1    120.0000    527.1840
    343    342    353   1    120.0000    711.2800
    342    343    344   1    113.9210    627.6000
    342    343    352   1    120.4000    669.4400
    344    343    352   1    122.9000    669.4400
    343    344    345   1    121.9650    543.9200
    343    344    358   1    119.8000    292.8800
    345    344    358   1    118.2360    376.5600
    344    345    346   1    119.0190    585.7600
    344    345    351   1    119.0190    585.7600
    346    345    351   1    120.0000    527.1840
    345    346    347   1    120.0000    527.1840
    345    346    359   1    120.0000    292.8800
    347    346    359   1    120.0000    292.8800
    346    347    348   1    120.0000    527.1840
    346    347    360   1    120.0000    292.8800
    348    347    360   1    120.0000    292.8800
    347    348    349   1    119.0190    585.7600
    347    348    350   1    120.0000    527.1840
    349    348    350   1    119.0190    585.7600
    348    349    361   1    118.2360    376.5600
    348    349    366   1    121.9650    543.9200
    361    349    366   1    119.8000    292.8800
    348    350    351   1    120.0000    527.1840
    348    350    362   1    120.0000    292.8800
    351    350    362   1    120.0000    292.8800
    345    351    350   1    120.0000    527.1840
    345    351    363   1    120.0000    292.8800
    350    351    363   1    120.0000    292.8800
    342    353    354   1    120.0000    527.1840
    342    353    364   1    120.0000    292.8800
    354    353    364   1    120.0000    292.8800
    339    354    353   1    120.0000    527.1840
    339    354    365   1    120.0000    292.8800
    353    354    365   1    120.0000    292.8800
    349    366    367   1    113.9210    627.6000
    349    366    383   1    122.9000    669.4400
    367    366    383   1    120.4000    669.4400
    366    367    368   1    120.0000    711.2800
    366    367    382   1    120.0000    711.2800
    368    367    382   1    120.0000    527.1840
    367    368    369   1    120.0000    527.1840
    367    368    384   1    120.0000    292.8800
    369    368    384   1    120.0000    292.8800
    368    369    370   1    120.0000    527.1840
    368    369    385   1    120.0000    292.8800
    370    369    385   1    120.0000    292.8800
    369    370    371   1    120.0000    711.2800
    369    370    381   1    120.0000    527.1840
    371    370    381   1    120.0000    711.2800
    370    371    372   1    113.9210    627.6000
    370    371    380   1    120.4000    669.4400
    372    371    380   1    122.9000    669.4400
    371    372    373   1    121.9650    543.9200
    371    372    386   1    119.8000    292.8800
    373    372    386   1    118.2360    376.5600
    372    373    374   1    119.0190    585.7600
    372    373    379   1    119.0190    585.7600
    374    373    379   1    120.0000    527.1840
    373    374    375   1    120.0000    527.1840
    373    374    387   1    120.0000    292.8800
    375    374    387   1    120.0000    292.8800
    374    375    376   1    120.0000    527.1840
    374    375    388   1    120.0000    292.8800
    376    375    388   1    120.0000    292.8800
    375    376    377   1    119.0190    585.7600
    375    376    378   1    120.0000    527.1840
    377    376    378   1    119.0190    585.7600
    376    377    389   1    118.2360    376.5600
    376    377    394   1    121.9650    543.9200
    389    377    394   1    119.8000    292.8800
    376    378    379   1    120.0000    527.1840
    376    378    390   1    120.0000    292.8800
    379    378    390   1    120.0000    292.8800
    373    379    378   1    120.0000    527.1840
    373    379    391   1    120.0000    292.8800
    378    379    391   1    120.0000    292.8800
    370    381    382   1    120.0000    527.1840
    370    381    392   1    120.0000    292.8800
    382    381    392   1    120.0000    292.8800
    367    382    381   1    120.0000    527.1840
    367    382    393   1    120.0000    292.8800
    381    382    393   1    120.0000    292.8800
    377    394    395   1    113.9210    627.6000
    377    394    411   1    122.9000    669.4400
    395    394    411   1    120.4000    669.4400
    394    395    396   1    120.0000    711.2800
    394    395    410   1    120.0000    711.2800
    396    395    410   1    120.0000    527.1840
    395    396    397   1    120.0000    527.1840
    395    396    412   1    120.0000    292.8800
    397    396    412   1    120.0000    292.8800
    396    397    398   1    120.0000    527.1840
    396    397    413   1    120.0000    292.8800
    398    397    413   1    120.0000    292.8800
    397    398    399   1    120.0000    711.2800
    397    398    409   1    120.0000    527.1840
    399    398    409   1    120.0000    711.2800
    398    399    400   1    113.9210    627.6000
    398    399    408   1    120.4000    669.4400
    400    399    408   1    122.9000    669.4400
    399    400    401   1    121.9650    543.9200
    399    400    414   1    119.8000    292.8800
    401    400    414   1    118.2360    376.5600
    400    401    402   1    119.0190    585.7600
    400    401    407   1    119.0190    585.7600
    402    401    407   1    120.0000    527.1840
    401    402    403   1    120.0000    527.1840
    401    402    415   1    120.0000    292.8800
    403    402    415   1    120.0000    292.8800
    402    403    404   1    120.0000    527.1840
    402    403    416   1    120.0000    292.8800
    404    403    416   1    120.0000    292.8800
    403    404    405   1    119.0190    585.7600
    403    404    406   1    120.0000    527.1840
    405    404    406   1    119.0190    585.7600
    404    405    417   1    118.2360    376.5600
    404    405    422   1    121.9650    543.9200
    417    405    422   1    119.8000    292.8800
    404    406    407   1    120.0000    527.1840
    404    406    418   1    120.0000    292.8800
    407    406    418   1    120.0000    292.8800
    401    407    406   1    120.0000    527.1840
    401    407    419   1    120.0000    292.8800
    406    407    419   1    120.0000    292.8800
    398    409    410   1    120.0000    527.1840
    398    409    420   1    120.0000    292.8800
    410    409    420   1    120.0000    292.8800
    395    410    409   1    120.0000    527.1840
    395    410    421   1    120.0000    292.8800
    409    410    421   1    120.0000    292.8800
    405    422    423   1    113.9210    627.6000
    405    422    439   1    122.9000    669.4400
    423    422    439   1    120.4000    669.4400
    422    423    424   1    120.0000    711.2800
    422    423    438   1    120.0000    711.2800
    424    423    438   1    120.0000    527.1840
    423    424    425   1    120.0000    527.1840
    423    424    440   1    120.0000    292.8800
    425    424    440   1    120.0000    292.8800
    424    425    426   1    120.0000    527.1840
    424    425    441   1    120.0000    292.8800
    426    425    441   1    120.0000    292.8800
    425    426    427   1    120.0000    711.2800
    425    426    437   1    120.0000    527.1840
    427    426    437   1    120.0000    711.2800
    426    427    428   1    113.9210    627.6000
    426    427    436   1    120.4000    669.4400
    428    427    436   1    122.9000    669.4400
    427    428    429   1    121.9650    543.9200
    427    428    442   1    119.8000    292.8800
    429    428    442   1    118.2360    376.5600
    428    429    430   1    119.0190    585.7600
    428    429    435   1    119.0190    585.7600
    430    429    435   1    120.0000    527.1840
    429    430    431   1    120.0000    527.1840
    429    430    443   1    120.0000    292.8800
    431    430    443   1    120.0000    292.8800
    430    431    432   1    120.0000    527.1840
    430    431    444   1    120.0000    292.8800
    432    431    444   1    120.0000    292.8800
    431    432    433   1    119.0190    585.7600
    431    432    434   1    120.0000    527.1840
    433    432    434   1    119.0190    585.7600
    432    433    445   1    118.2360    376.5600
    432    433    450   1    121.9650    543.9200
    445    433    450   1    119.8000    292.8800
    432    434    435   1    120.0000    527.1840
    432    434    446   1    120.0000    292.8800
    435    434    446   1    120.0000    292.8800
    429    435    434   1    120.0000    527.1840
    429    435    447   1    120.0000    292.8800
    434    435    447   1    120.0000    292.8800
    426    437    438   1    120.0000    527.1840
    426    437    448   1    120.0000    292.8800
    438    437    448   1    120.0000    292.8800
    423    438    437   1    120.0000    527.1840
    423    438    449   1    120.0000    292.8800
    437    438    449   1    120.0000    292.8800
    433    450    451   1    113.9210    627.6000
    433    450    467   1    122.9000    669.4400
    451    450    467   1    120.4000    669.4400
    450    451    452   1    120.0000    711.2800
    450    451    466   1    120.0000    711.2800
    452    451    466   1    120.0000    527.1840
    451    452    453   1    120.0000    527.1840
    451    452    468   1    120.0000    292.8800
    453    452    468   1    120.0000    292.8800
    452    453    454   1    120.0000    527.1840
    452    453    469   1    120.0000    292.8800
    454    453    469   1    120.0000    292.8800
    453    454    455   1    120.0000    711.2800
    453    454    465   1    120.0000    527.1840
    455    454    465   1    120.0000    711.2800
    454    455    456   1    113.9210    627.6000
    454    455    464   1    120.4000    669.4400
    456    455    464   1    122.9000    669.4400
    455    456    457   1    121.9650    543.9200
    455    456    470   1    119.8000    292.8800
    457    456    470   1    118.2360    376.5600
    456    457    458   1    119.0190    585.7600
    456    457    463   1    119.0190    585.7600
    458    457    463   1    120.0000    527.1840
    457    458    459   1    120.0000    527.1840
    457    458    471   1    120.0000    292.8800
    459    458    471   1    120.0000    292.8800
    458    459    460   1    120.0000    527.1840
    458    459    472   1    120.0000    292.8800
    460    459    472   1    120.0000    292.8800
    459    460    461   1    119.0190    585.7600
    459    460    462   1    120.0000    527.1840
    461    460    462   1    119.0190    585.7600
    460    461    473   1    118.2360    376.5600
    460    461    478   1    121.9650    543.9200
    473    461    478   1    119.8000    292.8800
    460    462    463   1    120.0000    527.1840
    460    462    474   1    120.0000    292.8800
    463    462    474   1    120.0000    292.8800
    457    463    462   1    120.0000    527.1840
    457    463    475   1    120.0000    292.8800
    462    463    475   1    120.0000    292.8800
    454    465    466   1    120.0000    527.1840
    454    465    476   1    120.0000    292.8800
    466    465    476   1    120.0000    292.8800
    451    466    465   1    120.0000    527.1840
    451    466    477   1    120.0000    292.8800
    465    466    477   1    120.0000    292.8800
    461    478    479   1    113.9210    627.6000
    461    478    495   1    122.9000    669.4400
    479    478    495   1    120.4000    669.4400
    478    479    480   1    120.0000    711.2800
    478    479    494   1    120.0000    711.2800
    480    479    494   1    120.0000    527.1840
    479    480    481   1    120.0000    527.1840
    479    480    496   1    120.0000    292.8800
    481    480    496   1    120.0000    292.8800
    480    481    482   1    120.0000    527.1840
    480    481    497   1    120.0000    292.8800
    482    481    497   1    120.0000    292.8800
    481    482    483   1    120.0000    711.2800
    481    482    493   1    120.0000    527.1840
    483    482    493   1    120.0000    711.2800
    482    483    484   1    113.9210    627.6000
    482    483    492   1    120.4000    669.4400
    484    483    492   1    122.9000    669.4400
    483    484    485   1    121.9650    543.9200
    483    484    498   1    119.8000    292.8800
    485    484    498   1    118.2360    376.5600
    484    485    486   1    119.0190    585.7600
    484    485    491   1    119.0190    585.7600
    486    485    491   1    120.0000    527.1840
    485    486    487   1    120.0000    527.1840
    485    486    499   1    120.0000    292.8800
    487    486    499   1    120.0000    292.8800
    486    487    488   1    120.0000    527.1840
    486    487    500   1    120.0000    292.8800
    488    487    500   1    120.0000    292.8800
    487    488    489   1    119.0190    585.7600
    487    488    490   1    120.0000    527.1840
    489    488    490   1    119.0190    585.7600
    488    489    501   1    118.2360    376.5600
    488    489    506   1    121.9650    543.9200
    501    489    506   1    119.8000    292.8800
    488    490    491   1    120.0000    527.1840
    488    490    502   1    120.0000    292.8800
    491    490    502   1    120.0000    292.8800
    485    491    490   1    120.0000    527.1840
    485    491    503   1    120.0000    292.8800
    490    491    503   1    120.0000    292.8800
    482    493    494   1    120.0000    527.1840
    482    493    504   1    120.0000    292.8800
    494    493    504   1    120.0000    292.8800
    479    494    493   1    120.0000    527.1840
    479    494    505   1    120.0000    292.8800
    493    494    505   1    120.0000    292.8800
    489    506    507   1    113.9210    627.6000
    489    506    523   1    122.9000    669.4400
    507    506    523   1    120.4000    669.4400
    506    507    508   1    120.0000    711.2800
    506    507    522   1    120.0000    711.2800
    508    507    522   1    120.0000    527.1840
    507    508    509   1    120.0000    527.1840
    507    508    524   1    120.0000    292.8800
    509    508    524   1    120.0000    292.8800
    508    509    510   1    120.0000    527.1840
    508    509    525   1    120.0000    292.8800
    510    509    525   1    120.0000    292.8800
    509    510    511   1    120.0000    711.2800
    509    510    521   1    120.0000    527.1840
    511    510    521   1    120.0000    711.2800
    510    511    512   1    113.9210    627.6000
    510    511    520   1    120.4000    669.4400
    512    511    520   1    122.9000    669.4400
    511    512    513   1    121.9650    543.9200
    511    512    526   1    119.8000    292.8800
    513    512    526   1    118.2360    376.5600
    512    513    514   1    119.0190    585.7600
    512    513    519   1    119.0190    585.7600
    514    513    519   1    120.0000    527.1840
    513    514    515   1    120.0000    527.1840
    513    514    527   1    120.0000    292.8800
    515    514    527   1    120.0000    292.8800
    514    515    516   1    120.0000    527.1840
    514    515    528   1    120.0000    292.8800
    516    515    528   1    120.0000    292.8800
    515    516    517   1    119.0190    585.7600
    515    516    518   1    120.0000    527.1840
    517    516    518   1    119.0190    585.7600
    516    517    529   1    118.2360    376.5600
    516    517    534   1    121.9650    543.9200
    529    517    534   1    119.8000    292.8800
    516    518    519   1    120.0000    527.1840
    516    518    530   1    120.0000    292.8800
    519    518    530   1    120.0000    292.8800
    513    519    518   1    120.0000    527.1840
    513    519    531   1    120.0000    292.8800
    518    519    531   1    120.0000    292.8800
    510    521    522   1    120.0000    527.1840
    510    521    532   1    120.0000    292.8800
    522    521    532   1    120.0000    292.8800
    507    522    521   1    120.0000    527.1840
    507    522    533   1    120.0000    292.8800
    521    522    533   1    120.0000    292.8800
    517    534    535   1    113.9210    627.6000
    517    534    551   1    122.9000    669.4400
    535    534    551   1    120.4000    669.4400
    534    535    536   1    120.0000    711.2800
    534    535    550   1    120.0000    711.2800
    536    535    550   1    120.0000    527.1840
    535    536    537   1    120.0000    527.1840
    535    536    552   1    120.0000    292.8800
    537    536    552   1    120.0000    292.8800
    536    537    538   1    120.0000    527.1840
    536    537    553   1    120.0000    292.8800
    538    537    553   1    120.0000    292.8800
    537    538    539   1    120.0000    711.2800
    537    538    549   1    120.0000    527.1840
    539    538    549   1    120.0000    711.2800
    538    539    540   1    113.9210    627.6000
    538    539    548   1    120.4000    669.4400
    540    539    548   1    122.9000    669.4400
    539    540    541   1    121.9650    543.9200
    539    540    554   1    119.8000    292.8800
    541    540    554   1    118.2360    376.5600
    540    541    542   1    119.0190    585.7600
    540    541    547   1    119.0190    585.7600
    542    541    547   1    120.0000    527.1840
    541    542    543   1    120.0000    527.1840
    541    542    555   1    120.0000    292.8800
    543    542    555   1    120.0000    292.8800
    542    543    544   1    120.0000    527.1840
    542    543    556   1    120.0000    292.8800
    544    543    556   1    120.0000    292.8800
    543    544    545   1    120.1000    585.7600
    543    544    546   1    120.0000    527.1840
    545    544    546   1    120.1000    585.7600
    544    545    557   1    113.5000    292.8800
    544    545    562   1    113.5000    292.8800
    557    545    562   1    109.0000    292.8800
    544    546    547   1    120.0000    527.1840
    544    546    558   1    120.0000    292.8800
    547    546    558   1    120.0000    292.8800
    541    547    546   1    120.0000    527.1840
    541    547    559   1    120.0000    292.8800
    546    547    559   1    120.0000    292.8800
    538    549    550   1    120.0000    527.1840
    538    549    560   1    120.0000    292.8800
    550    549    560   1    120.0000    292.8800
    535    550    549   1    120.0000    527.1840
    535    550    561   1    120.0000    292.8800
    549    550    561   1    120.0000    292.8800

[ dihedrals ]
; Proper dihedrals
     18      1      2      3   5     0.00000     8.78640     0.00000  0.0
     18      1      2     17   5     0.00000     8.78640     0.00000  0.0
     29      1      2      3   5     0.00000     4.73629     0.00000  0.0
     29      1      2     17   5     0.00000     4.73629     0.00000  0.0
      1      2      3      4   5     0.00000    30.33400     0.00000  0.0
      1      2      3     19   5     0.00000    30.33400     0.00000  0.0
     17      2      3      4   5     0.00000    30.33400     0.00000  0.0
     17      2      3     19   5     0.00000    30.33400     0.00000  0.0
      1      2     17     16   5     0.00000    30.33400     0.00000  0.0
      1      2     17     28   5     0.00000    30.33400     0.00000  0.0
      3      2     17     16   5     0.00000    30.33400     0.00000  0.0
      3      2     17     28   5     0.00000    30.33400     0.00000  0.0
      2      3      4      5   5     0.00000    30.33400     0.00000  0.0
      2      3      4     20   5     0.00000    30.33400     0.00000  0.0
     19      3      4      5   5     0.00000    30.33400     0.00000  0.0
     19      3      4     20   5     0.00000    30.33400     0.00000  0.0
      3      4      5      6   5     0.00000    30.33400     0.00000  0.0
      3      4      5     16   5     0.00000    30.33400     0.00000  0.0
     20      4      5      6   5     0.00000    30.33400     0.00000  0.0
     20      4      5     16   5     0.00000    30.33400     0.00000  0.0
      4      5      6      7   5     6.33458     2.89951     2.76144  0.0
      4      5      6     15   5     0.00000     8.78640     0.00000  0.0
     16      5      6      7   5     6.33458     2.89951     2.76144  0.0
     16      5      6     15   5     0.00000     8.78640     0.00000  0.0
      4      5     16     17   5     0.00000    30.33400     0.00000  0.0
      4      5     16     27   5     0.00000    30.33400     0.00000  0.0
      6      5     16     17   5     0.00000    30.33400     0.00000  0.0
      6      5     16     27   5     0.00000    30.33400     0.00000  0.0
      5      6      7      8   5     6.35968    34.44269     0.00000  0.0
      5      6      7     21   5     0.00000    21.48066     0.00000  0.0
     15      6      7      8   5     0.00000     0.33472     0.00000  0.0
     15      6      7     21   5     0.00000    20.50160     0.00000  0.0
      6      7      8      9   5     8.37637     7.11698     0.00000  0.0
      6      7      8     14   5     8.37637     7.11698     0.00000  0.0
     21      7      8      9   5     0.00000     8.18390     0.00000  0.0
     21      7      8     14   5     0.00000     8.18390     0.00000  0.0
      7      8      9     10   5     0.00000    30.33400     0.00000  0.0
      7      8      9     22   5     0.00000    30.33400     0.00000  0.0
     14      8      9     10   5     0.00000    30.33400     0.00000  0.0
     14      8      9     22   5     0.00000    30.33400     0.00000  0.0
      7      8     14     13   5     0.00000    30.33400     0.00000  0.0
      7      8     14     26   5     0.00000    30.33400     0.00000  0.0
      9      8     14     13   5     0.00000    30.33400     0.00000  0.0
      9      8     14     26   5     0.00000    30.33400     0.00000  0.0
      8      9     10     11   5     0.00000    30.33400     0.00000  0.0
      8      9     10     23   5     0.00000    30.33400     0.00000  0.0
     22      9     10     11   5     0.00000    30.33400     0.00000  0.0
     22      9     10     23   5     0.00000    30.33400     0.00000  0.0
      9     10     11     12   5     0.00000    30.33400     0.00000  0.0
      9     10     11     13   5     0.00000    30.33400     0.00000  0.0
     23     10     11     12   5     0.00000    30.33400     0.00000  0.0
     23     10     11     13   5     0.00000    30.33400     0.00000  0.0
     10     11     12     24   5     0.00000     8.18390     0.00000  0.0
     10     11     12     30   5     8.37637     7.11698     0.00000  0.0
     13     11     12     24   5     0.00000     8.18390     0.00000  0.0
     13     11     12     30   5     8.37637     7.11698     0.00000  0.0
     10     11     13     14   5     0.00000    30.33400     0.00000  0.0
     10     11     13     25   5     0.00000    30.33400     0.00000  0.0
     12     11     13     14   5     0.00000    30.33400     0.00000  0.0
     12     11     13     25   5     0.00000    30.33400     0.00000  0.0
     11     12     30     31   5     6.35968    34.44269     0.00000  0.0
     11     12     30     47   5     0.00000     0.33472     0.00000  0.0
     24     12     30     31   5     0.00000    21.48066     0.00000  0.0
     24     12     30     47   5     0.00000    20.50160     0.00000  0.0
     11     13     14      8   5     0.00000    30.33400     0.00000  0.0
     11     13     14     26   5     0.00000    30.33400     0.00000  0.0
     25     13     14      8   5     0.00000    30.33400     0.00000  0.0
     25     13     14     26   5     0.00000    30.33400     0.00000  0.0
      5     16     17      2   5     0.00000    30.33400     0.00000  0.0
      5     16     17     28   5     0.00000    30.33400     0.00000  0.0
     27     16     17      2   5     0.00000    30.33400     0.00000  0.0
     27     16     17     28   5     0.00000    30.33400     0.00000  0.0
     12     30     31     32   5     6.33458     2.89951     2.76144  0.0
     12     30     31     46   5     6.33458     2.89951     2.76144  0.0
     47     30     31     32   5     0.00000     8.78640     0.00000  0.0
     47     30     31     46   5     0.00000     8.78640     0.00000  0.0
     30     31     32     33   5     0.00000    30.33400     0.00000  0.0
     30     31     32     48   5     0.00000    30.33400     0.00000  0.0
     46     31     32     33   5     0.00000    30.33400     0.00000  0.0
     46     31     32     48   5     0.00000    30.33400     0.00000  0.0
     30     31     46     45   5     0.00000    30.33400     0.00000  0.0
     30     31     46     57   5     0.00000    30.33400     0.00000  0.0
     32     31     46     45   5     0.00000    30.33400     0.00000  0.0
     32     31     46     57   5     0.00000    30.33400     0.00000  0.0
     31     32     33     34   5     0.00000    30.33400     0.00000  0.0
     31     32     33     49   5     0.00000    30.33400     0.00000  0.0
     48     32     33     34   5     0.00000    30.33400     0.00000  0.0
     48     32     33     49   5     0.00000    30.33400     0.00000  0.0
     32     33     34     35   5     0.00000    30.33400     0.00000  0.0
     32     33     34     45   5     0.00000    30.33400     0.00000  0.0
     49     33     34     35   5     0.00000    30.33400     0.00000  0.0
     49     33     34     45   5     0.00000    30.33400     0.00000  0.0
     33     34     35     36   5     6.33458     2.89951     2.76144  0.0
     33     34     35     44   5     0.00000     8.78640     0.00000  0.0
     45     34     35     36   5     6.33458     2.89951     2.76144  0.0
     45     34     35     44   5     0.00000     8.78640     0.00000  0.0
     33     34     45     46   5     0.00000    30.33400     0.00000  0.0
     33     34     45     56   5     0.00000    30.33400     0.00000  0.0
     35     34     45     46   5     0.00000    30.33400     0.00000  0.0
     35     34     45     56   5     0.00000    30.33400     0.00000  0.0
     34     35     36     37   5     6.35968    34.44269     0.00000  0.0
     34     35     36     50   5     0.00000    21.48066     0.00000  0.0
     44     35     36     37   5     0.00000     0.33472     0.00000  0.0
     44     35     36     50   5     0.00000    20.50160     0.00000  0.0
     35     36     37     38   5     8.37637     7.11698     0.00000  0.0
     35     36     37     43   5     8.37637     7.11698     0.00000  0.0
     50     36     37     38   5     0.00000     8.18390     0.00000  0.0
     50     36     37     43   5     0.00000     8.18390     0.00000  0.0
     36     37     38     39   5     0.00000    30.33400     0.00000  0.0
     36     37     38     51   5     0.00000    30.33400     0.00000  0.0
     43     37     38     39   5     0.00000    30.33400     0.00000  0.0
     43     37     38     51   5     0.00000    30.33400     0.00000  0.0
     36     37     43     42   5     0.00000    30.33400     0.00000  0.0
     36     37     43     55   5     0.00000    30.33400     0.00000  0.0
     38     37     43     42   5     0.00000    30.33400     0.00000  0.0
     38     37     43     55   5     0.00000    30.33400     0.00000  0.0
     37     38     39     40   5     0.00000    30.33400     0.00000  0.0
     37     38     39     52   5     0.00000    30.33400     0.00000  0.0
     51     38     39     40   5     0.00000    30.33400     0.00000  0.0
     51     38     39     52   5     0.00000    30.33400     0.00000  0.0
     38     39     40     41   5     0.00000    30.33400     0.00000  0.0
     38     39     40     42   5     0.00000    30.33400     0.00000  0.0
     52     39     40     41   5     0.00000    30.33400     0.00000  0.0
     52     39     40     42   5     0.00000    30.33400     0.00000  0.0
     39     40     41     53   5     0.00000     8.18390     0.00000  0.0
     39     40     41     58   5     8.37637     7.11698     0.00000  0.0
     42     40     41     53   5     0.00000     8.18390     0.00000  0.0
     42     40     41     58   5     8.37637     7.11698     0.00000  0.0
     39     40     42     43   5     0.00000    30.33400     0.00000  0.0
     39     40     42     54   5     0.00000    30.33400     0.00000  0.0
     41     40     42     43   5     0.00000    30.33400     0.00000  0.0
     41     40     42     54   5     0.00000    30.33400     0.00000  0.0
     40     41     58     59   5     6.35968    34.44269     0.00000  0.0
     40     41     58     75   5     0.00000     0.33472     0.00000  0.0
     53     41     58     59   5     0.00000    21.48066     0.00000  0.0
     53     41     58     75   5     0.00000    20.50160     0.00000  0.0
     40     42     43     37   5     0.00000    30.33400     0.00000  0.0
     40     42     43     55   5     0.00000    30.33400     0.00000  0.0
     54     42     43     37   5     0.00000    30.33400     0.00000  0.0
     54     42     43     55   5     0.00000    30.33400     0.00000  0.0
     34     45     46     31   5     0.00000    30.33400     0.00000  0.0
     34     45     46     57   5     0.00000    30.33400     0.00000  0.0
     56     45     46     31   5     0.00000    30.33400     0.00000  0.0
     56     45     46     57   5     0.00000    30.33400     0.00000  0.0
     41     58     59     60   5     6.33458     2.89951     2.76144  0.0
     41     58     59     74   5     6.33458     2.89951     2.76144  0.0
     75     58     59     60   5     0.00000     8.78640     0.00000  0.0
     75     58     59     74   5     0.00000     8.78640     0.00000  0.0
     58     59     60     61   5     0.00000    30.33400     0.00000  0.0
     58     59     60     76   5     0.00000    30.33400     0.00000  0.0
     74     59     60     61   5     0.00000    30.33400     0.00000  0.0
     74     59     60     76   5     0.00000    30.33400     0.00000  0.0
     58     59     74     73   5     0.00000    30.33400     0.00000  0.0
     58     59     74     85   5     0.00000    30.33400     0.00000  0.0
     60     59     74     73   5     0.00000    30.33400     0.00000  0.0
     60     59     74     85   5     0.00000    30.33400     0.00000  0.0
     59     60     61     62   5     0.00000    30.33400     0.00000  0.0
     59     60     61     77   5     0.00000    30.33400     0.00000  0.0
     76     60     61     62   5     0.00000    30.33400     0.00000  0.0
     76     60     61     77   5     0.00000    30.33400     0.00000  0.0
     60     61     62     63   5     0.00000    30.33400     0.00000  0.0
     60     61     62     73   5     0.00000    30.33400     0.00000  0.0
     77     61     62     63   5     0.00000    30.33400     0.00000  0.0
     77     61     62     73   5     0.00000    30.33400     0.00000  0.0
     61     62     63     64   5     6.33458     2.89951     2.76144  0.0
     61     62     63     72   5     0.00000     8.78640     0.00000  0.0
     73     62     63     64   5     6.33458     2.89951     2.76144  0.0
     73     62     63     72   5     0.00000     8.78640     0.00000  0.0
     61     62     73     74   5     0.00000    30.33400     0.00000  0.0
     61     62     73     84   5     0.00000    30.33400     0.00000  0.0
     63     62     73     74   5     0.00000    30.33400     0.00000  0.0
     63     62     73     84   5     0.00000    30.33400     0.00000  0.0
     62     63     64     65   5     6.35968    34.44269     0.00000  0.0
     62     63     64     78   5     0.00000    21.48066     0.00000  0.0
     72     63     64     65   5     0.00000     0.33472     0.00000  0.0
     72     63     64     78   5     0.00000    20.50160     0.00000  0.0
     63     64     65     66   5     8.37637     7.11698     0.00000  0.0
     63     64     65     71   5     8.37637     7.11698     0.00000  0.0
     78     64     65     66   5     0.00000     8.18390     0.00000  0.0
     78     64     65     71   5     0.00000     8.18390     0.00000  0.0
     64     65     66     67   5     0.00000    30.33400     0.00000  0.0
     64     65     66     79   5     0.00000    30.33400     0.00000  0.0
     71     65     66     67   5     0.00000    30.33400     0.00000  0.0
     71     65     66     79   5     0.00000    30.33400     0.00000  0.0
     64     65     71     70   5     0.00000    30.33400     0.00000  0.0
     64     65     71     83   5     0.00000    30.33400     0.00000  0.0
     66     65     71     70   5     0.00000    30.33400     0.00000  0.0
     66     65     71     83   5     0.00000    30.33400     0.00000  0.0
     65     66     67     68   5     0.00000    30.33400     0.00000  0.0
     65     66     67     80   5     0.00000    30.33400     0.00000  0.0
     79     66     67     68   5     0.00000    30.33400     0.00000  0.0
     79     66     67     80   5     0.00000    30.33400     0.00000  0.0
     66     67     68     69   5     0.00000    30.33400     0.00000  0.0
     66     67     68     70   5     0.00000    30.33400     0.00000  0.0
     80     67     68     69   5     0.00000    30.33400     0.00000  0.0
     80     67     68     70   5     0.00000    30.33400     0.00000  0.0
     67     68     69     81   5     0.00000     8.18390     0.00000  0.0
     67     68     69     86   5     8.37637     7.11698     0.00000  0.0
     70     68     69     81   5     0.00000     8.18390     0.00000  0.0
     70     68     69     86   5     8.37637     7.11698     0.00000  0.0
     67     68     70     71   5     0.00000    30.33400     0.00000  0.0
     67     68     70     82   5     0.00000    30.33400     0.00000  0.0
     69     68     70     71   5     0.00000    30.33400     0.00000  0.0
     69     68     70     82   5     0.00000    30.33400     0.00000  0.0
     68     69     86     87   5     6.35968    34.44269     0.00000  0.0
     68     69     86    103   5     0.00000     0.33472     0.00000  0.0
     81     69     86     87   5     0.00000    21.48066     0.00000  0.0
     81     69     86    103   5     0.00000    20.50160     0.00000  0.0
     68     70     71     65   5     0.00000    30.33400     0.00000  0.0
     68     70     71     83   5     0.00000    30.33400     0.00000  0.0
     82     70     71     65   5     0.00000    30.33400     0.00000  0.0
     82     70     71     83   5     0.00000    30.33400     0.00000  0.0
     62     73     74     59   5     0.00000    30.33400     0.00000  0.0
     62     73     74     85   5     0.00000    30.33400     0.00000  0.0
     84     73     74     59   5     0.00000    30.33400     0.00000  0.0
     84     73     74     85   5     0.00000    30.33400     0.00000  0.0
     69     86     87     88   5     6.33458     2.89951     2.76144  0.0
     69     86     87    102   5     6.33458     2.89951     2.76144  0.0
    103     86     87     88   5     0.00000     8.78640     0.00000  0.0
    103     86     87    102   5     0.00000     8.78640     0.00000  0.0
     86     87     88     89   5     0.00000    30.33400     0.00000  0.0
     86     87     88    104   5     0.00000    30.33400     0.00000  0.0
    102     87     88     89   5     0.00000    30.33400     0.00000  0.0
    102     87     88    104   5     0.00000    30.33400     0.00000  0.0
     86     87    102    101   5     0.00000    30.33400     0.00000  0.0
     86     87    102    113   5     0.00000    30.33400     0.00000  0.0
     88     87    102    101   5     0.00000    30.33400     0.00000  0.0
     88     87    102    113   5     0.00000    30.33400     0.00000  0.0
     87     88     89     90   5     0.00000    30.33400     0.00000  0.0
     87     88     89    105   5     0.00000    30.33400     0.00000  0.0
    104     88     89     90   5     0.00000    30.33400     0.00000  0.0
    104     88     89    105   5     0.00000    30.33400     0.00000  0.0
     88     89     90     91   5     0.00000    30.33400     0.00000  0.0
     88     89     90    101   5     0.00000    30.33400     0.00000  0.0
    105     89     90     91   5     0.00000    30.33400     0.00000  0.0
    105     89     90    101   5     0.00000    30.33400     0.00000  0.0
     89     90     91     92   5     6.33458     2.89951     2.76144  0.0
     89     90     91    100   5     0.00000     8.78640     0.00000  0.0
    101     90     91     92   5     6.33458     2.89951     2.76144  0.0
    101     90     91    100   5     0.00000     8.78640     0.00000  0.0
     89     90    101    102   5     0.00000    30.33400     0.00000  0.0
     89     90    101    112   5     0.00000    30.33400     0.00000  0.0
     91     90    101    102   5     0.00000    30.33400     0.00000  0.0
     91     90    101    112   5     0.00000    30.33400     0.00000  0.0
     90     91     92     93   5     6.35968    34.44269     0.00000  0.0
     90     91     92    106   5     0.00000    21.48066     0.00000  0.0
    100     91     92     93   5     0.00000     0.33472     0.00000  0.0
    100     91     92    106   5     0.00000    20.50160     0.00000  0.0
     91     92     93     94   5     8.37637     7.11698     0.00000  0.0
     91     92     93     99   5     8.37637     7.11698     0.00000  0.0
    106     92     93     94   5     0.00000     8.18390     0.00000  0.0
    106     92     93     99   5     0.00000     8.18390     0.00000  0.0
     92     93     94     95   5     0.00000    30.33400     0.00000  0.0
     92     93     94    107   5     0.00000    30.33400     0.00000  0.0
     99     93     94     95   5     0.00000    30.33400     0.00000  0.0
     99     93     94    107   5     0.00000    30.33400     0.00000  0.0
     92     93     99     98   5     0.00000    30.33400     0.00000  0.0
     92     93     99    111   5     0.00000    30.33400     0.00000  0.0
     94     93     99     98   5     0.00000    30.33400     0.00000  0.0
     94     93     99    111   5     0.00000    30.33400     0.00000  0.0
     93     94     95     96   5     0.00000    30.33400     0.00000  0.0
     93     94     95    108   5     0.00000    30.33400     0.00000  0.0
    107     94     95     96   5     0.00000    30.33400     0.00000  0.0
    107     94     95    108   5     0.00000    30.33400     0.00000  0.0
     94     95     96     97   5     0.00000    30.33400     0.00000  0.0
     94     95     96     98   5     0.00000    30.33400     0.00000  0.0
    108     95     96     97   5     0.00000    30.33400     0.00000  0.0
    108     95     96     98   5     0.00000    30.33400     0.00000  0.0
     95     96     97    109   5     0.00000     8.18390     0.00000  0.0
     95     96     97    114   5     8.37637     7.11698     0.00000  0.0
     98     96     97    109   5     0.00000     8.18390     0.00000  0.0
     98     96     97    114   5     8.37637     7.11698     0.00000  0.0
     95     96     98     99   5     0.00000    30.33400     0.00000  0.0
     95     96     98    110   5     0.00000    30.33400     0.00000  0.0
     97     96     98     99   5     0.00000    30.33400     0.00000  0.0
     97     96     98    110   5     0.00000    30.33400     0.00000  0.0
     96     97    114    115   5     6.35968    34.44269     0.00000  0.0
     96     97    114    131   5     0.00000     0.33472     0.00000  0.0
    109     97    114    115   5     0.00000    21.48066     0.00000  0.0
    109     97    114    131   5     0.00000    20.50160     0.00000  0.0
     96     98     99     93   5     0.00000    30.33400     0.00000  0.0
     96     98     99    111   5     0.00000    30.33400     0.00000  0.0
    110     98     99     93   5     0.00000    30.33400     0.00000  0.0
    110     98     99    111   5     0.00000    30.33400     0.00000  0.0
     90    101    102     87   5     0.00000    30.33400     0.00000  0.0
     90    101    102    113   5     0.00000    30.33400     0.00000  0.0
    112    101    102     87   5     0.00000    30.33400     0.00000  0.0
    112    101    102    113   5     0.00000    30.33400     0.00000  0.0
     97    114    115    116   5     6.33458     2.89951     2.76144  0.0
     97    114    115    130   5     6.33458     2.89951     2.76144  0.0
    131    114    115    116   5     0.00000     8.78640     0.00000  0.0
    131    114    115    130   5     0.00000     8.78640     0.00000  0.0
    114    115    116    117   5     0.00000    30.33400     0.00000  0.0
    114    115    116    132   5     0.00000    30.33400     0.00000  0.0
    130    115    116    117   5     0.00000    30.33400     0.00000  0.0
    130    115    116    132   5     0.00000    30.33400     0.00000  0.0
    114    115    130    129   5     0.00000    30.33400     0.00000  0.0
    114    115    130    141   5     0.00000    30.33400     0.00000  0.0
    116    115    130    129   5     0.00000    30.33400     0.00000  0.0
    116    115    130    141   5     0.00000    30.33400     0.00000  0.0
    115    116    117    118   5     0.00000    30.33400     0.00000  0.0
    115    116    117    133   5     0.00000    30.33400     0.00000  0.0
    132    116    117    118   5     0.00000    30.33400     0.00000  0.0
    132    116    117    133   5     0.00000    30.33400     0.00000  0.0
    116    117    118    119   5     0.00000    30.33400     0.00000  0.0
    116    117    118    129   5     0.00000    30.33400     0.00000  0.0
    133    117    118    119   5     0.00000    30.33400     0.00000  0.0
    133    117    118    129   5     0.00000    30.33400     0.00000  0.0
    117    118    119    120   5     6.33458     2.89951     2.76144  0.0
    117    118    119    128   5     0.00000     8.78640     0.00000  0.0
    129    118    119    120   5     6.33458     2.89951     2.76144  0.0
    129    118    119    128   5     0.00000     8.78640     0.00000  0.0
    117    118    129    130   5     0.00000    30.33400     0.00000  0.0
    117    118    129    140   5     0.00000    30.33400     0.00000  0.0
    119    118    129    130   5     0.00000    30.33400     0.00000  0.0
    119    118    129    140   5     0.00000    30.33400     0.00000  0.0
    118    119    120    121   5     6.35968    34.44269     0.00000  0.0
    118    119    120    134   5     0.00000    21.48066     0.00000  0.0
    128    119    120    121   5     0.00000     0.33472     0.00000  0.0
    128    119    120    134   5     0.00000    20.50160     0.00000  0.0
    119    120    121    122   5     8.37637     7.11698     0.00000  0.0
    119    120    121    127   5     8.37637     7.11698     0.00000  0.0
    134    120    121    122   5     0.00000     8.18390     0.00000  0.0
    134    120    121    127   5     0.00000     8.18390     0.00000  0.0
    120    121    122    123   5     0.00000    30.33400     0.00000  0.0
    120    121    122    135   5     0.00000    30.33400     0.00000  0.0
    127    121    122    123   5     0.00000    30.33400     0.00000  0.0
    127    121    122    135   5     0.00000    30.33400     0.00000  0.0
    120    121    127    126   5     0.00000    30.33400     0.00000  0.0
    120    121    127    139   5     0.00000    30.33400     0.00000  0.0
    122    121    127    126   5     0.00000    30.33400     0.00000  0.0
    122    121    127    139   5     0.00000    30.33400     0.00000  0.0
    121    122    123    124   5     0.00000    30.33400     0.00000  0.0
    121    122    123    136   5     0.00000    30.33400     0.00000  0.0
    135    122    123    124   5     0.00000    30.33400     0.00000  0.0
    135    122    123    136   5     0.00000    30.33400     0.00000  0.0
    122    123    124    125   5     0.00000    30.33400     0.00000  0.0
    122    123    124    126   5     0.00000    30.33400     0.00000  0.0
    136    123    124    125   5     0.00000    30.33400     0.00000  0.0
    136    123    124    126   5     0.00000    30.33400     0.00000  0.0
    123    124    125    137   5     0.00000     8.18390     0.00000  0.0
    123    124    125    142   5     8.37637     7.11698     0.00000  0.0
    126    124    125    137   5     0.00000     8.18390     0.00000  0.0
    126    124    125    142   5     8.37637     7.11698     0.00000  0.0
    123    124    126    127   5     0.00000    30.33400     0.00000  0.0
    123    124    126    138   5     0.00000    30.33400     0.00000  0.0
    125    124    126    127   5     0.00000    30.33400     0.00000  0.0
    125    124    126    138   5     0.00000    30.33400     0.00000  0.0
    124    125    142    143   5     6.35968    34.44269     0.00000  0.0
    124    125    142    159   5     0.00000     0.33472     0.00000  0.0
    137    125    142    143   5     0.00000    21.48066     0.00000  0.0
    137    125    142    159   5     0.00000    20.50160     0.00000  0.0
    124    126    127    121   5     0.00000    30.33400     0.00000  0.0
    124    126    127    139   5     0.00000    30.33400     0.00000  0.0
    138    126    127    121   5     0.00000    30.33400     0.00000  0.0
    138    126    127    139   5     0.00000    30.33400     0.00000  0.0
    118    129    130    115   5     0.00000    30.33400     0.00000  0.0
    118    129    130    141   5     0.00000    30.33400     0.00000  0.0
    140    129    130    115   5     0.00000    30.33400     0.00000  0.0
    140    129    130    141   5     0.00000    30.33400     0.00000  0.0
    125    142    143    144   5     6.33458     2.89951     2.76144  0.0
    125    142    143    158   5     6.33458     2.89951     2.76144  0.0
    159    142    143    144   5     0.00000     8.78640     0.00000  0.0
    159    142    143    158   5     0.00000     8.78640     0.00000  0.0
    142    143    144    145   5     0.00000    30.33400     0.00000  0.0
    142    143    144    160   5     0.00000    30.33400     0.00000  0.0
    158    143    144    145   5     0.00000    30.33400     0.00000  0.0
    158    143    144    160   5     0.00000    30.33400     0.00000  0.0
    142    143    158    157   5     0.00000    30.33400     0.00000  0.0
    142    143    158    169   5     0.00000    30.33400     0.00000  0.0
    144    143    158    157   5     0.00000    30.33400     0.00000  0.0
    144    143    158    169   5     0.00000    30.33400     0.00000  0.0
    143    144    145    146   5     0.00000    30.33400     0.00000  0.0
    143    144    145    161   5     0.00000    30.33400     0.00000  0.0
    160    144    145    146   5     0.00000    30.33400     0.00000  0.0
    160    144    145    161   5     0.00000    30.33400     0.00000  0.0
    144    145    146    147   5     0.00000    30.33400     0.00000  0.0
    144    145    146    157   5     0.00000    30.33400     0.00000  0.0
    161    145    146    147   5     0.00000    30.33400     0.00000  0.0
    161    145    146    157   5     0.00000    30.33400     0.00000  0.0
    145    146    147    148   5     6.33458     2.89951     2.76144  0.0
    145    146    147    156   5     0.00000     8.78640     0.00000  0.0
    157    146    147    148   5     6.33458     2.89951     2.76144  0.0
    157    146    147    156   5     0.00000     8.78640     0.00000  0.0
    145    146    157    158   5     0.00000    30.33400     0.00000  0.0
    145    146    157    168   5     0.00000    30.33400     0.00000  0.0
    147    146    157    158   5     0.00000    30.33400     0.00000  0.0
    147    146    157    168   5     0.00000    30.33400     0.00000  0.0
    146    147    148    149   5     6.35968    34.44269     0.00000  0.0
    146    147    148    162   5     0.00000    21.48066     0.00000  0.0
    156    147    148    149   5     0.00000     0.33472     0.00000  0.0
    156    147    148    162   5     0.00000    20.50160     0.00000  0.0
    147    148    149    150   5     8.37637     7.11698     0.00000  0.0
    147    148    149    155   5     8.37637     7.11698     0.00000  0.0
    162    148    149    150   5     0.00000     8.18390     0.00000  0.0
    162    148    149    155   5     0.00000     8.18390     0.00000  0.0
    148    149    150    151   5     0.00000    30.33400     0.00000  0.0
    148    149    150    163   5     0.00000    30.33400     0.00000  0.0
    155    149    150    151   5     0.00000    30.33400     0.00000  0.0
    155    149    150    163   5     0.00000    30.33400     0.00000  0.0
    148    149    155    154   5     0.00000    30.33400     0.00000  0.0
    148    149    155    167   5     0.00000    30.33400     0.00000  0.0
    150    149    155    154   5     0.00000    30.33400     0.00000  0.0
    150    149    155    167   5     0.00000    30.33400     0.00000  0.0
    149    150    151    152   5     0.00000    30.33400     0.00000  0.0
    149    150    151    164   5     0.00000    30.33400     0.00000  0.0
    163    150    151    152   5     0.00000    30.33400     0.00000  0.0
    163    150    151    164   5     0.00000    30.33400     0.00000  0.0
    150    151    152    153   5     0.00000    30.33400     0.00000  0.0
    150    151    152    154   5     0.00000    30.33400     0.00000  0.0
    164    151    152    153   5     0.00000    30.33400     0.00000  0.0
    164    151    152    154   5     0.00000    30.33400     0.00000  0.0
    151    152    153    165   5     0.00000     8.18390     0.00000  0.0
    151    152    153    170   5     8.37637     7.11698     0.00000  0.0
    154    152    153    165   5     0.00000     8.18390     0.00000  0.0
    154    152    153    170   5     8.37637     7.11698     0.00000  0.0
    151    152    154    155   5     0.00000    30.33400     0.00000  0.0
    151    152    154    166   5     0.00000    30.33400     0.00000  0.0
    153    152    154    155   5     0.00000    30.33400     0.00000  0.0
    153    152    154    166   5     0.00000    30.33400     0.00000  0.0
    152    153    170    171   5     6.35968    34.44269     0.00000  0.0
    152    153    170    187   5     0.00000     0.33472     0.00000  0.0
    165    153    170    171   5     0.00000    21.48066     0.00000  0.0
    165    153    170    187   5     0.00000    20.50160     0.00000  0.0
    152    154    155    149   5     0.00000    30.33400     0.00000  0.0
    152    154    155    167   5     0.00000    30.33400     0.00000  0.0
    166    154    155    149   5     0.00000    30.33400     0.00000  0.0
    166    154    155    167   5     0.00000    30.33400     0.00000  0.0
    146    157    158    143   5     0.00000    30.33400     0.00000  0.0
    146    157    158    169   5     0.00000    30.33400     0.00000  0.0
    168    157    158    143   5     0.00000    30.33400     0.00000  0.0
    168    157    158    169   5     0.00000    30.33400     0.00000  0.0
    153    170    171    172   5     6.33458     2.89951     2.76144  0.0
    153    170    171    186   5     6.33458     2.89951     2.76144  0.0
    187    170    171    172   5     0.00000     8.78640     0.00000  0.0
    187    170    171    186   5     0.00000     8.78640     0.00000  0.0
    170    171    172    173   5     0.00000    30.33400     0.00000  0.0
    170    171    172    188   5     0.00000    30.33400     0.00000  0.0
    186    171    172    173   5     0.00000    30.33400     0.00000  0.0
    186    171    172    188   5     0.00000    30.33400     0.00000  0.0
    170    171    186    185   5     0.00000    30.33400     0.00000  0.0
    170    171    186    197   5     0.00000    30.33400     0.00000  0.0
    172    171    186    185   5     0.00000    30.33400     0.00000  0.0
    172    171    186    197   5     0.00000    30.33400     0.00000  0.0
    171    172    173    174   5     0.00000    30.33400     0.00000  0.0
    171    172    173    189   5     0.00000    30.33400     0.00000  0.0
    188    172    173    174   5     0.00000    30.33400     0.00000  0.0
    188    172    173    189   5     0.00000    30.33400     0.00000  0.0
    172    173    174    175   5     0.00000    30.33400     0.00000  0.0
    172    173    174    185   5     0.00000    30.33400     0.00000  0.0
    189    173    174    175   5     0.00000    30.33400     0.00000  0.0
    189    173    174    185   5     0.00000    30.33400     0.00000  0.0
    173    174    175    176   5     6.33458     2.89951     2.76144  0.0
    173    174    175    184   5     0.00000     8.78640     0.00000  0.0
    185    174    175    176   5     6.33458     2.89951     2.76144  0.0
    185    174    175    184   5     0.00000     8.78640     0.00000  0.0
    173    174    185    186   5     0.00000    30.33400     0.00000  0.0
    173    174    185    196   5     0.00000    30.33400     0.00000  0.0
    175    174    185    186   5     0.00000    30.33400     0.00000  0.0
    175    174    185    196   5     0.00000    30.33400     0.00000  0.0
    174    175    176    177   5     6.35968    34.44269     0.00000  0.0
    174    175    176    190   5     0.00000    21.48066     0.00000  0.0
    184    175    176    177   5     0.00000     0.33472     0.00000  0.0
    184    175    176    190   5     0.00000    20.50160     0.00000  0.0
    175    176    177    178   5     8.37637     7.11698     0.00000  0.0
    175    176    177    183   5     8.37637     7.11698     0.00000  0.0
    190    176    177    178   5     0.00000     8.18390     0.00000  0.0
    190    176    177    183   5     0.00000     8.18390     0.00000  0.0
    176    177    178    179   5     0.00000    30.33400     0.00000  0.0
    176    177    178    191   5     0.00000    30.33400     0.00000  0.0
    183    177    178    179   5     0.00000    30.33400     0.00000  0.0
    183    177    178    191   5     0.00000    30.33400     0.00000  0.0
    176    177    183    182   5     0.00000    30.33400     0.00000  0.0
    176    177    183    195   5     0.00000    30.33400     0.00000  0.0
    178    177    183    182   5     0.00000    30.33400     0.00000  0.0
    178    177    183    195   5     0.00000    30.33400     0.00000  0.0
    177    178    179    180   5     0.00000    30.33400     0.00000  0.0
    177    178    179    192   5     0.00000    30.33400     0.00000  0.0
    191    178    179    180   5     0.00000    30.33400     0.00000  0.0
    191    178    179    192   5     0.00000    30.33400     0.00000  0.0
    178    179    180    181   5     0.00000    30.33400     0.00000  0.0
    178    179    180    182   5     0.00000    30.33400     0.00000  0.0
    192    179    180    181   5     0.00000    30.33400     0.00000  0.0
    192    179    180    182   5     0.00000    30.33400     0.00000  0.0
    179    180    181    193   5     0.00000     8.18390     0.00000  0.0
    179    180    181    198   5     8.37637     7.11698     0.00000  0.0
    182    180    181    193   5     0.00000     8.18390     0.00000  0.0
    182    180    181    198   5     8.37637     7.11698     0.00000  0.0
    179    180    182    183   5     0.00000    30.33400     0.00000  0.0
    179    180    182    194   5     0.00000    30.33400     0.00000  0.0
    181    180    182    183   5     0.00000    30.33400     0.00000  0.0
    181    180    182    194   5     0.00000    30.33400     0.00000  0.0
    180    181    198    199   5     6.35968    34.44269     0.00000  0.0
    180    181    198    215   5     0.00000     0.33472     0.00000  0.0
    193    181    198    199   5     0.00000    21.48066     0.00000  0.0
    193    181    198    215   5     0.00000    20.50160     0.00000  0.0
    180    182    183    177   5     0.00000    30.33400     0.00000  0.0
    180    182    183    195   5     0.00000    30.33400     0.00000  0.0
    194    182    183    177   5     0.00000    30.33400     0.00000  0.0
    194    182    183    195   5     0.00000    30.33400     0.00000  0.0
    174    185    186    171   5     0.00000    30.33400     0.00000  0.0
    174    185    186    197   5     0.00000    30.33400     0.00000  0.0
    196    185    186    171   5     0.00000    30.33400     0.00000  0.0
    196    185    186    197   5     0.00000    30.33400     0.00000  0.0
    181    198    199    200   5     6.33458     2.89951     2.76144  0.0
    181    198    199    214   5     6.33458     2.89951     2.76144  0.0
    215    198    199    200   5     0.00000     8.78640     0.00000  0.0
    215    198    199    214   5     0.00000     8.78640     0.00000  0.0
    198    199    200    201   5     0.00000    30.33400     0.00000  0.0
    198    199    200    216   5     0.00000    30.33400     0.00000  0.0
    214    199    200    201   5     0.00000    30.33400     0.00000  0.0
    214    199    200    216   5     0.00000    30.33400     0.00000  0.0
    198    199    214    213   5     0.00000    30.33400     0.00000  0.0
    198    199    214    225   5     0.00000    30.33400     0.00000  0.0
    200    199    214    213   5     0.00000    30.33400     0.00000  0.0
    200    199    214    225   5     0.00000    30.33400     0.00000  0.0
    199    200    201    202   5     0.00000    30.33400     0.00000  0.0
    199    200    201    217   5     0.00000    30.33400     0.00000  0.0
    216    200    201    202   5     0.00000    30.33400     0.00000  0.0
    216    200    201    217   5     0.00000    30.33400     0.00000  0.0
    200    201    202    203   5     0.00000    30.33400     0.00000  0.0
    200    201    202    213   5     0.00000    30.33400     0.00000  0.0
    217    201    202    203   5     0.00000    30.33400     0.00000  0.0
    217    201    202    213   5     0.00000    30.33400     0.00000  0.0
    201    202    203    204   5     6.33458     2.89951     2.76144  0.0
    201    202    203    212   5     0.00000     8.78640     0.00000  0.0
    213    202    203    204   5     6.33458     2.89951     2.76144  0.0
    213    202    203    212   5     0.00000     8.78640     0.00000  0.0
    201    202    213    214   5     0.00000    30.33400     0.00000  0.0
    201    202    213    224   5     0.00000    30.33400     0.00000  0.0
    203    202    213    214   5     0.00000    30.33400     0.00000  0.0
    203    202    213    224   5     0.00000    30.33400     0.00000  0.0
    202    203    204    205   5     6.35968    34.44269     0.00000  0.0
    202    203    204    218   5     0.00000    21.48066     0.00000  0.0
    212    203    204    205   5     0.00000     0.33472     0.00000  0.0
    212    203    204    218   5     0.00000    20.50160     0.00000  0.0
    203    204    205    206   5     8.37637     7.11698     0.00000  0.0
    203    204    205    211   5     8.37637     7.11698     0.00000  0.0
    218    204    205    206   5     0.00000     8.18390     0.00000  0.0
    218    204    205    211   5     0.00000     8.18390     0.00000  0.0
    204    205    206    207   5     0.00000    30.33400     0.00000  0.0
    204    205    206    219   5     0.00000    30.33400     0.00000  0.0
    211    205    206    207   5     0.00000    30.33400     0.00000  0.0
    211    205    206    219   5     0.00000    30.33400     0.00000  0.0
    204    205    211    210   5     0.00000    30.33400     0.00000  0.0
    204    205    211    223   5     0.00000    30.33400     0.00000  0.0
    206    205    211    210   5     0.00000    30.33400     0.00000  0.0
    206    205    211    223   5     0.00000    30.33400     0.00000  0.0
    205    206    207    208   5     0.00000    30.33400     0.00000  0.0
    205    206    207    220   5     0.00000    30.33400     0.00000  0.0
    219    206    207    208   5     0.00000    30.33400     0.00000  0.0
    219    206    207    220   5     0.00000    30.33400     0.00000  0.0
    206    207    208    209   5     0.00000    30.33400     0.00000  0.0
    206    207    208    210   5     0.00000    30.33400     0.00000  0.0
    220    207    208    209   5     0.00000    30.33400     0.00000  0.0
    220    207    208    210   5     0.00000    30.33400     0.00000  0.0
    207    208    209    221   5     0.00000     8.18390     0.00000  0.0
    207    208    209    226   5     8.37637     7.11698     0.00000  0.0
    210    208    209    221   5     0.00000     8.18390     0.00000  0.0
    210    208    209    226   5     8.37637     7.11698     0.00000  0.0
    207    208    210    211   5     0.00000    30.33400     0.00000  0.0
    207    208    210    222   5     0.00000    30.33400     0.00000  0.0
    209    208    210    211   5     0.00000    30.33400     0.00000  0.0
    209    208    210    222   5     0.00000    30.33400     0.00000  0.0
    208    209    226    227   5     6.35968    34.44269     0.00000  0.0
    208    209    226    243   5     0.00000     0.33472     0.00000  0.0
    221    209    226    227   5     0.00000    21.48066     0.00000  0.0
    221    209    226    243   5     0.00000    20.50160     0.00000  0.0
    208    210    211    205   5     0.00000    30.33400     0.00000  0.0
    208    210    211    223   5     0.00000    30.33400     0.00000  0.0
    222    210    211    205   5     0.00000    30.33400     0.00000  0.0
    222    210    211    223   5     0.00000    30.33400     0.00000  0.0
    202    213    214    199   5     0.00000    30.33400     0.00000  0.0
    202    213    214    225   5     0.00000    30.33400     0.00000  0.0
    224    213    214    199   5     0.00000    30.33400     0.00000  0.0
    224    213    214    225   5     0.00000    30.33400     0.00000  0.0
    209    226    227    228   5     6.33458     2.89951     2.76144  0.0
    209    226    227    242   5     6.33458     2.89951     2.76144  0.0
    243    226    227    228   5     0.00000     8.78640     0.00000  0.0
    243    226    227    242   5     0.00000     8.78640     0.00000  0.0
    226    227    228    229   5     0.00000    30.33400     0.00000  0.0
    226    227    228    244   5     0.00000    30.33400     0.00000  0.0
    242    227    228    229   5     0.00000    30.33400     0.00000  0.0
    242    227    228    244   5     0.00000    30.33400     0.00000  0.0
    226    227    242    241   5     0.00000    30.33400     0.00000  0.0
    226    227    242    253   5     0.00000    30.33400     0.00000  0.0
    228    227    242    241   5     0.00000    30.33400     0.00000  0.0
    228    227    242    253   5     0.00000    30.33400     0.00000  0.0
    227    228    229    230   5     0.00000    30.33400     0.00000  0.0
    227    228    229    245   5     0.00000    30.33400     0.00000  0.0
    244    228    229    230   5     0.00000    30.33400     0.00000  0.0
    244    228    229    245   5     0.00000    30.33400     0.00000  0.0
    228    229    230    231   5     0.00000    30.33400     0.00000  0.0
    228    229    230    241   5     0.00000    30.33400     0.00000  0.0
    245    229    230    231   5     0.00000    30.33400     0.00000  0.0
    245    229    230    241   5     0.00000    30.33400     0.00000  0.0
    229    230    231    232   5     6.33458     2.89951     2.76144  0.0
    229    230    231    240   5     0.00000     8.78640     0.00000  0.0
    241    230    231    232   5     6.33458     2.89951     2.76144  0.0
    241    230    231    240   5     0.00000     8.78640     0.00000  0.0
    229    230    241    242   5     0.00000    30.33400     0.00000  0.0
    229    230    241    252   5     0.00000    30.33400     0.00000  0.0
    231    230    241    242   5     0.00000    30.33400     0.00000  0.0
    231    230    241    252   5     0.00000    30.33400     0.00000  0.0
    230    231    232    233   5     6.35968    34.44269     0.00000  0.0
    230    231    232    246   5     0.00000    21.48066     0.00000  0.0
    240    231    232    233   5     0.00000     0.33472     0.00000  0.0
    240    231    232    246   5     0.00000    20.50160     0.00000  0.0
    231    232    233    234   5     8.37637     7.11698     0.00000  0.0
    231    232    233    239   5     8.37637     7.11698     0.00000  0.0
    246    232    233    234   5     0.00000     8.18390     0.00000  0.0
    246    232    233    239   5     0.00000     8.18390     0.00000  0.0
    232    233    234    235   5     0.00000    30.33400     0.00000  0.0
    232    233    234    247   5     0.00000    30.33400     0.00000  0.0
    239    233    234    235   5     0.00000    30.33400     0.00000  0.0
    239    233    234    247   5     0.00000    30.33400     0.00000  0.0
    232    233    239    238   5     0.00000    30.33400     0.00000  0.0
    232    233    239    251   5     0.00000    30.33400     0.00000  0.0
    234    233    239    238   5     0.00000    30.33400     0.00000  0.0
    234    233    239    251   5     0.00000    30.33400     0.00000  0.0
    233    234    235    236   5     0.00000    30.33400     0.00000  0.0
    233    234    235    248   5     0.00000    30.33400     0.00000  0.0
    247    234    235    236   5     0.00000    30.33400     0.00000  0.0
    247    234    235    248   5     0.00000    30.33400     0.00000  0.0
    234    235    236    237   5     0.00000    30.33400     0.00000  0.0
    234    235    236    238   5     0.00000    30.33400     0.00000  0.0
    248    235    236    237   5     0.00000    30.33400     0.00000  0.0
    248    235    236    238   5     0.00000    30.33400     0.00000  0.0
    235    236    237    249   5     0.00000     8.18390     0.00000  0.0
    235    236    237    254   5     8.37637     7.11698     0.00000  0.0
    238    236    237    249   5     0.00000     8.18390     0.00000  0.0
    238    236    237    254   5     8.37637     7.11698     0.00000  0.0
    235    236    238    239   5     0.00000    30.33400     0.00000  0.0
    235    236    238    250   5     0.00000    30.33400     0.00000  0.0
    237    236    238    239   5     0.00000    30.33400     0.00000  0.0
    237    236    238    250   5     0.00000    30.33400     0.00000  0.0
    236    237    254    255   5     6.35968    34.44269     0.00000  0.0
    236    237    254    271   5     0.00000     0.33472     0.00000  0.0
    249    237    254    255   5     0.00000    21.48066     0.00000  0.0
    249    237    254    271   5     0.00000    20.50160     0.00000  0.0
    236    238    239    233   5     0.00000    30.33400     0.00000  0.0
    236    238    239    251   5     0.00000    30.33400     0.00000  0.0
    250    238    239    233   5     0.00000    30.33400     0.00000  0.0
    250    238    239    251   5     0.00000    30.33400     0.00000  0.0
    230    241    242    227   5     0.00000    30.33400     0.00000  0.0
    230    241    242    253   5     0.00000    30.33400     0.00000  0.0
    252    241    242    227   5     0.00000    30.33400     0.00000  0.0
    252    241    242    253   5     0.00000    30.33400     0.00000  0.0
    237    254    255    256   5     6.33458     2.89951     2.76144  0.0
    237    254    255    270   5     6.33458     2.89951     2.76144  0.0
    271    254    255    256   5     0.00000     8.78640     0.00000  0.0
    271    254    255    270   5     0.00000     8.78640     0.00000  0.0
    254    255    256    257   5     0.00000    30.33400     0.00000  0.0
    254    255    256    272   5     0.00000    30.33400     0.00000  0.0
    270    255    256    257   5     0.00000    30.33400     0.00000  0.0
    270    255    256    272   5     0.00000    30.33400     0.00000  0.0
    254    255    270    269   5     0.00000    30.33400     0.00000  0.0
    254    255    270    281   5     0.00000    30.33400     0.00000  0.0
    256    255    270    269   5     0.00000    30.33400     0.00000  0.0
    256    255    270    281   5     0.00000    30.33400     0.00000  0.0
    255    256    257    258   5     0.00000    30.33400     0.00000  0.0
    255    256    257    273   5     0.00000    30.33400     0.00000  0.0
    272    256    257    258   5     0.00000    30.33400     0.00000  0.0
    272    256    257    273   5     0.00000    30.33400     0.00000  0.0
    256    257    258    259   5     0.00000    30.33400     0.00000  0.0
    256    257    258    269   5     0.00000    30.33400     0.00000  0.0
    273    257    258    259   5     0.00000    30.33400     0.00000  0.0
    273    257    258    269   5     0.00000    30.33400     0.00000  0.0
    257    258    259    260   5     6.33458     2.89951     2.76144  0.0
    257    258    259    268   5     0.00000     8.78640     0.00000  0.0
    269    258    259    260   5     6.33458     2.89951     2.76144  0.0
    269    258    259    268   5     0.00000     8.78640     0.00000  0.0
    257    258    269    270   5     0.00000    30.33400     0.00000  0.0
    257    258    269    280   5     0.00000    30.33400     0.00000  0.0
    259    258    269    270   5     0.00000    30.33400     0.00000  0.0
    259    258    269    280   5     0.00000    30.33400     0.00000  0.0
    258    259    260    261   5     6.35968    34.44269     0.00000  0.0
    258    259    260    274   5     0.00000    21.48066     0.00000  0.0
    268    259    260    261   5     0.00000     0.33472     0.00000  0.0
    268    259    260    274   5     0.00000    20.50160     0.00000  0.0
    259    260    261    262   5     8.37637     7.11698     0.00000  0.0
    259    260    261    267   5     8.37637     7.11698     0.00000  0.0
    274    260    261    262   5     0.00000     8.18390     0.00000  0.0
    274    260    261    267   5     0.00000     8.18390     0.00000  0.0
    260    261    262    263   5     0.00000    30.33400     0.00000  0.0
    260    261    262    275   5     0.00000    30.33400     0.00000  0.0
    267    261    262    263   5     0.00000    30.33400     0.00000  0.0
    267    261    262    275   5     0.00000    30.33400     0.00000  0.0
    260    261    267    266   5     0.00000    30.33400     0.00000  0.0
    260    261    267    279   5     0.00000    30.33400     0.00000  0.0
    262    261    267    266   5     0.00000    30.33400     0.00000  0.0
    262    261    267    279   5     0.00000    30.33400     0.00000  0.0
    261    262    263    264   5     0.00000    30.33400     0.00000  0.0
    261    262    263    276   5     0.00000    30.33400     0.00000  0.0
    275    262    263    264   5     0.00000    30.33400     0.00000  0.0
    275    262    263    276   5     0.00000    30.33400     0.00000  0.0
    262    263    264    265   5     0.00000    30.33400     0.00000  0.0
    262    263    264    266   5     0.00000    30.33400     0.00000  0.0
    276    263    264    265   5     0.00000    30.33400     0.00000  0.0
    276    263    264    266   5     0.00000    30.33400     0.00000  0.0
    263    264    265    277   5     0.00000     8.18390     0.00000  0.0
    263    264    265    282   5     8.37637     7.11698     0.00000  0.0
    266    264    265    277   5     0.00000     8.18390     0.00000  0.0
    266    264    265    282   5     8.37637     7.11698     0.00000  0.0
    263    264    266    267   5     0.00000    30.33400     0.00000  0.0
    263    264    266    278   5     0.00000    30.33400     0.00000  0.0
    265    264    266    267   5     0.00000    30.33400     0.00000  0.0
    265    264    266    278   5     0.00000    30.33400     0.00000  0.0
    264    265    282    283   5     6.35968    34.44269     0.00000  0.0
    264    265    282    299   5     0.00000     0.33472     0.00000  0.0
    277    265    282    283   5     0.00000    21.48066     0.00000  0.0
    277    265    282    299   5     0.00000    20.50160     0.00000  0.0
    264    266    267    261   5     0.00000    30.33400     0.00000  0.0
    264    266    267    279   5     0.00000    30.33400     0.00000  0.0
    278    266    267    261   5     0.00000    30.33400     0.00000  0.0
    278    266    267    279   5     0.00000    30.33400     0.00000  0.0
    258    269    270    255   5     0.00000    30.33400     0.00000  0.0
    258    269    270    281   5     0.00000    30.33400     0.00000  0.0
    280    269    270    255   5     0.00000    30.33400     0.00000  0.0
    280    269    270    281   5     0.00000    30.33400     0.00000  0.0
    265    282    283    284   5     6.33458     2.89951     2.76144  0.0
    265    282    283    298   5     6.33458     2.89951     2.76144  0.0
    299    282    283    284   5     0.00000     8.78640     0.00000  0.0
    299    282    283    298   5     0.00000     8.78640     0.00000  0.0
    282    283    284    285   5     0.00000    30.33400     0.00000  0.0
    282    283    284    300   5     0.00000    30.33400     0.00000  0.0
    298    283    284    285   5     0.00000    30.33400     0.00000  0.0
    298    283    284    300   5     0.00000    30.33400     0.00000  0.0
    282    283    298    297   5     0.00000    30.33400     0.00000  0.0
    282    283    298    309   5     0.00000    30.33400     0.00000  0.0
    284    283    298    297   5     0.00000    30.33400     0.00000  0.0
    284    283    298    309   5     0.00000    30.33400     0.00000  0.0
    283    284    285    286   5     0.00000    30.33400     0.00000  0.0
    283    284    285    301   5     0.00000    30.33400     0.00000  0.0
    300    284    285    286   5     0.00000    30.33400     0.00000  0.0
    300    284    285    301   5     0.00000    30.33400     0.00000  0.0
    284    285    286    287   5     0.00000    30.33400     0.00000  0.0
    284    285    286    297   5     0.00000    30.33400     0.00000  0.0
    301    285    286    287   5     0.00000    30.33400     0.00000  0.0
    301    285    286    297   5     0.00000    30.33400     0.00000  0.0
    285    286    287    288   5     6.33458     2.89951     2.76144  0.0
    285    286    287    296   5     0.00000     8.78640     0.00000  0.0
    297    286    287    288   5     6.33458     2.89951     2.76144  0.0
    297    286    287    296   5     0.00000     8.78640     0.00000  0.0
    285    286    297    298   5     0.00000    30.33400     0.00000  0.0
    285    286    297    308   5     0.00000    30.33400     0.00000  0.0
    287    286    297    298   5     0.00000    30.33400     0.00000  0.0
    287    286    297    308   5     0.00000    30.33400     0.00000  0.0
    286    287    288    289   5     6.35968    34.44269     0.00000  0.0
    286    287    288    302   5     0.00000    21.48066     0.00000  0.0
    296    287    288    289   5     0.00000     0.33472     0.00000  0.0
    296    287    288    302   5     0.00000    20.50160     0.00000  0.0
    287    288    289    290   5     8.37637     7.11698     0.00000  0.0
    287    288    289    295   5     8.37637     7.11698     0.00000  0.0
    302    288    289    290   5     0.00000     8.18390     0.00000  0.0
    302    288    289    295   5     0.00000     8.18390     0.00000  0.0
    288    289    290    291   5     0.00000    30.33400     0.00000  0.0
    288    289    290    303   5     0.00000    30.33400     0.00000  0.0
    295    289    290    291   5     0.00000    30.33400     0.00000  0.0
    295    289    290    303   5     0.00000    30.33400     0.00000  0.0
    288    289    295    294   5     0.00000    30.33400     0.00000  0.0
    288    289    295    307   5     0.00000    30.33400     0.00000  0.0
    290    289    295    294   5     0.00000    30.33400     0.00000  0.0
    290    289    295    307   5     0.00000    30.33400     0.00000  0.0
    289    290    291    292   5     0.00000    30.33400     0.00000  0.0
    289    290    291    304   5     0.00000    30.33400     0.00000  0.0
    303    290    291    292   5     0.00000    30.33400     0.00000  0.0
    303    290    291    304   5     0.00000    30.33400     0.00000  0.0
    290    291    292    293   5     0.00000    30.33400     0.00000  0.0
    290    291    292    294   5     0.00000    30.33400     0.00000  0.0
    304    291    292    293   5     0.00000    30.33400     0.00000  0.0
    304    291    292    294   5     0.00000    30.33400     0.00000  0.0
    291    292    293    305   5     0.00000     8.18390     0.00000  0.0
    291    292    293    310   5     8.37637     7.11698     0.00000  0.0
    294    292    293    305   5     0.00000     8.18390     0.00000  0.0
    294    292    293    310   5     8.37637     7.11698     0.00000  0.0
    291    292    294    295   5     0.00000    30.33400     0.00000  0.0
    291    292    294    306   5     0.00000    30.33400     0.00000  0.0
    293    292    294    295   5     0.00000    30.33400     0.00000  0.0
    293    292    294    306   5     0.00000    30.33400     0.00000  0.0
    292    293    310    311   5     6.35968    34.44269     0.00000  0.0
    292    293    310    327   5     0.00000     0.33472     0.00000  0.0
    305    293    310    311   5     0.00000    21.48066     0.00000  0.0
    305    293    310    327   5     0.00000    20.50160     0.00000  0.0
    292    294    295    289   5     0.00000    30.33400     0.00000  0.0
    292    294    295    307   5     0.00000    30.33400     0.00000  0.0
    306    294    295    289   5     0.00000    30.33400     0.00000  0.0
    306    294    295    307   5     0.00000    30.33400     0.00000  0.0
    286    297    298    283   5     0.00000    30.33400     0.00000  0.0
    286    297    298    309   5     0.00000    30.33400     0.00000  0.0
    308    297    298    283   5     0.00000    30.33400     0.00000  0.0
    308    297    298    309   5     0.00000    30.33400     0.00000  0.0
    293    310    311    312   5     6.33458     2.89951     2.76144  0.0
    293    310    311    326   5     6.33458     2.89951     2.76144  0.0
    327    310    311    312   5     0.00000     8.78640     0.00000  0.0
    327    310    311    326   5     0.00000     8.78640     0.00000  0.0
    310    311    312    313   5     0.00000    30.33400     0.00000  0.0
    310    311    312    328   5     0.00000    30.33400     0.00000  0.0
    326    311    312    313   5     0.00000    30.33400     0.00000  0.0
    326    311    312    328   5     0.00000    30.33400     0.00000  0.0
    310    311    326    325   5     0.00000    30.33400     0.00000  0.0
    310    311    326    337   5     0.00000    30.33400     0.00000  0.0
    312    311    326    325   5     0.00000    30.33400     0.00000  0.0
    312    311    326    337   5     0.00000    30.33400     0.00000  0.0
    311    312    313    314   5     0.00000    30.33400     0.00000  0.0
    311    312    313    329   5     0.00000    30.33400     0.00000  0.0
    328    312    313    314   5     0.00000    30.33400     0.00000  0.0
    328    312    313    329   5     0.00000    30.33400     0.00000  0.0
    312    313    314    315   5     0.00000    30.33400     0.00000  0.0
    312    313    314    325   5     0.00000    30.33400     0.00000  0.0
    329    313    314    315   5     0.00000    30.33400     0.00000  0.0
    329    313    314    325   5     0.00000    30.33400     0.00000  0.0
    313    314    315    316   5     6.33458     2.89951     2.76144  0.0
    313    314    315    324   5     0.00000     8.78640     0.00000  0.0
    325    314    315    316   5     6.33458     2.89951     2.76144  0.0
    325    314    315    324   5     0.00000     8.78640     0.00000  0.0
    313    314    325    326   5     0.00000    30.33400     0.00000  0.0
    313    314    325    336   5     0.00000    30.33400     0.00000  0.0
    315    314    325    326   5     0.00000    30.33400     0.00000  0.0
    315    314    325    336   5     0.00000    30.33400     0.00000  0.0
    314    315    316    317   5     6.35968    34.44269     0.00000  0.0
    314    315    316    330   5     0.00000    21.48066     0.00000  0.0
    324    315    316    317   5     0.00000     0.33472     0.00000  0.0
    324    315    316    330   5     0.00000    20.50160     0.00000  0.0
    315    316    317    318   5     8.37637     7.11698     0.00000  0.0
    315    316    317    323   5     8.37637     7.11698     0.00000  0.0
    330    316    317    318   5     0.00000     8.18390     0.00000  0.0
    330    316    317    323   5     0.00000     8.18390     0.00000  0.0
    316    317    318    319   5     0.00000    30.33400     0.00000  0.0
    316    317    318    331   5     0.00000    30.33400     0.00000  0.0
    323    317    318    319   5     0.00000    30.33400     0.00000  0.0
    323    317    318    331   5     0.00000    30.33400     0.00000  0.0
    316    317    323    322   5     0.00000    30.33400     0.00000  0.0
    316    317    323    335   5     0.00000    30.33400     0.00000  0.0
    318    317    323    322   5     0.00000    30.33400     0.00000  0.0
    318    317    323    335   5     0.00000    30.33400     0.00000  0.0
    317    318    319    320   5     0.00000    30.33400     0.00000  0.0
    317    318    319    332   5     0.00000    30.33400     0.00000  0.0
    331    318    319    320   5     0.00000    30.33400     0.00000  0.0
    331    318    319    332   5     0.00000    30.33400     0.00000  0.0
    318    319    320    321   5     0.00000    30.33400     0.00000  0.0
    318    319    320    322   5     0.00000    30.33400     0.00000  0.0
    332    319    320    321   5     0.00000    30.33400     0.00000  0.0
    332    319    320    322   5     0.00000    30.33400     0.00000  0.0
    319    320    321    333   5     0.00000     8.18390     0.00000  0.0
    319    320    321    338   5     8.37637     7.11698     0.00000  0.0
    322    320    321    333   5     0.00000     8.18390     0.00000  0.0
    322    320    321    338   5     8.37637     7.11698     0.00000  0.0
    319    320    322    323   5     0.00000    30.33400     0.00000  0.0
    319    320    322    334   5     0.00000    30.33400     0.00000  0.0
    321    320    322    323   5     0.00000    30.33400     0.00000  0.0
    321    320    322    334   5     0.00000    30.33400     0.00000  0.0
    320    321    338    339   5     6.35968    34.44269     0.00000  0.0
    320    321    338    355   5     0.00000     0.33472     0.00000  0.0
    333    321    338    339   5     0.00000    21.48066     0.00000  0.0
    333    321    338    355   5     0.00000    20.50160     0.00000  0.0
    320    322    323    317   5     0.00000    30.33400     0.00000  0.0
    320    322    323    335   5     0.00000    30.33400     0.00000  0.0
    334    322    323    317   5     0.00000    30.33400     0.00000  0.0
    334    322    323    335   5     0.00000    30.33400     0.00000  0.0
    314    325    326    311   5     0.00000    30.33400     0.00000  0.0
    314    325    326    337   5     0.00000    30.33400     0.00000  0.0
    336    325    326    311   5     0.00000    30.33400     0.00000  0.0
    336    325    326    337   5     0.00000    30.33400     0.00000  0.0
    321    338    339    340   5     6.33458     2.89951     2.76144  0.0
    321    338    339    354   5     6.33458     2.89951     2.76144  0.0
    355    338    339    340   5     0.00000     8.78640     0.00000  0.0
    355    338    339    354   5     0.00000     8.78640     0.00000  0.0
    338    339    340    341   5     0.00000    30.33400     0.00000  0.0
    338    339    340    356   5     0.00000    30.33400     0.00000  0.0
    354    339    340    341   5     0.00000    30.33400     0.00000  0.0
    354    339    340    356   5     0.00000    30.33400     0.00000  0.0
    338    339    354    353   5     0.00000    30.33400     0.00000  0.0
    338    339    354    365   5     0.00000    30.33400     0.00000  0.0
    340    339    354    353   5     0.00000    30.33400     0.00000  0.0
    340    339    354    365   5     0.00000    30.33400     0.00000  0.0
    339    340    341    342   5     0.00000    30.33400     0.00000  0.0
    339    340    341    357   5     0.00000    30.33400     0.00000  0.0
    356    340    341    342   5     0.00000    30.33400     0.00000  0.0
    356    340    341    357   5     0.00000    30.33400     0.00000  0.0
    340    341    342    343   5     0.00000    30.33400     0.00000  0.0
    340    341    342    353   5     0.00000    30.33400     0.00000  0.0
    357    341    342    343   5     0.00000    30.33400     0.00000  0.0
    357    341    342    353   5     0.00000    30.33400     0.00000  0.0
    341    342    343    344   5     6.33458     2.89951     2.76144  0.0
    341    342    343    352   5     0.00000     8.78640     0.00000  0.0
    353    342    343    344   5     6.33458     2.89951     2.76144  0.0
    353    342    343    352   5     0.00000     8.78640     0.00000  0.0
    341    342    353    354   5     0.00000    30.33400     0.00000  0.0
    341    342    353    364   5     0.00000    30.33400     0.00000  0.0
    343    342    353    354   5     0.00000    30.33400     0.00000  0.0
    343    342    353    364   5     0.00000    30.33400     0.00000  0.0
    342    343    344    345   5     6.35968    34.44269     0.00000  0.0
    342    343    344    358   5     0.00000    21.48066     0.00000  0.0
    352    343    344    345   5     0.00000     0.33472     0.00000  0.0
    352    343    344    358   5     0.00000    20.50160     0.00000  0.0
    343    344    345    346   5     8.37637     7.11698     0.00000  0.0
    343    344    345    351   5     8.37637     7.11698     0.00000  0.0
    358    344    345    346   5     0.00000     8.18390     0.00000  0.0
    358    344    345    351   5     0.00000     8.18390     0.00000  0.0
    344    345    346    347   5     0.00000    30.33400     0.00000  0.0
    344    345    346    359   5     0.00000    30.33400     0.00000  0.0
    351    345    346    347   5     0.00000    30.33400     0.00000  0.0
    351    345    346    359   5     0.00000    30.33400     0.00000  0.0
    344    345    351    350   5     0.00000    30.33400     0.00000  0.0
    344    345    351    363   5     0.00000    30.33400     0.00000  0.0
    346    345    351    350   5     0.00000    30.33400     0.00000  0.0
    346    345    351    363   5     0.00000    30.33400     0.00000  0.0
    345    346    347    348   5     0.00000    30.33400     0.00000  0.0
    345    346    347    360   5     0.00000    30.33400     0.00000  0.0
    359    346    347    348   5     0.00000    30.33400     0.00000  0.0
    359    346    347    360   5     0.00000    30.33400     0.00000  0.0
    346    347    348    349   5     0.00000    30.33400     0.00000  0.0
    346    347    348    350   5     0.00000    30.33400     0.00000  0.0
    360    347    348    349   5     0.00000    30.33400     0.00000  0.0
    360    347    348    350   5     0.00000    30.33400     0.00000  0.0
    347    348    349    361   5     0.00000     8.18390     0.00000  0.0
    347    348    349    366   5     8.37637     7.11698     0.00000  0.0
    350    348    349    361   5     0.00000     8.18390     0.00000  0.0
    350    348    349    366   5     8.37637     7.11698     0.00000  0.0
    347    348    350    351   5     0.00000    30.33400     0.00000  0.0
    347    348    350    362   5     0.00000    30.33400     0.00000  0.0
    349    348    350    351   5     0.00000    30.33400     0.00000  0.0
    349    348    350    362   5     0.00000    30.33400     0.00000  0.0
    348    349    366    367   5     6.35968    34.44269     0.00000  0.0
    348    349    366    383   5     0.00000     0.33472     0.00000  0.0
    361    349    366    367   5     0.00000    21.48066     0.00000  0.0
    361    349    366    383   5     0.00000    20.50160     0.00000  0.0
    348    350    351    345   5     0.00000    30.33400     0.00000  0.0
    348    350    351    363   5     0.00000    30.33400     0.00000  0.0
    362    350    351    345   5     0.00000    30.33400     0.00000  0.0
    362    350    351    363   5     0.00000    30.33400     0.00000  0.0
    342    353    354    339   5     0.00000    30.33400     0.00000  0.0
    342    353    354    365   5     0.00000    30.33400     0.00000  0.0
    364    353    354    339   5     0.00000    30.33400     0.00000  0.0
    364    353    354    365   5     0.00000    30.33400     0.00000  0.0
    349    366    367    368   5     6.33458     2.89951     2.76144  0.0
    349    366    367    382   5     6.33458     2.89951     2.76144  0.0
    383    366    367    368   5     0.00000     8.78640     0.00000  0.0
    383    366    367    382   5     0.00000     8.78640     0.00000  0.0
    366    367    368    369   5     0.00000    30.33400     0.00000  0.0
    366    367    368    384   5     0.00000    30.33400     0.00000  0.0
    382    367    368    369   5     0.00000    30.33400     0.00000  0.0
    382    367    368    384   5     0.00000    30.33400     0.00000  0.0
    366    367    382    381   5     0.00000    30.33400     0.00000  0.0
    366    367    382    393   5     0.00000    30.33400     0.00000  0.0
    368    367    382    381   5     0.00000    30.33400     0.00000  0.0
    368    367    382    393   5     0.00000    30.33400     0.00000  0.0
    367    368    369    370   5     0.00000    30.33400     0.00000  0.0
    367    368    369    385   5     0.00000    30.33400     0.00000  0.0
    384    368    369    370   5     0.00000    30.33400     0.00000  0.0
    384    368    369    385   5     0.00000    30.33400     0.00000  0.0
    368    369    370    371   5     0.00000    30.33400     0.00000  0.0
    368    369    370    381   5     0.00000    30.33400     0.00000  0.0
    385    369    370    371   5     0.00000    30.33400     0.00000  0.0
    385    369    370    381   5     0.00000    30.33400     0.00000  0.0
    369    370    371    372   5     6.33458     2.89951     2.76144  0.0
    369    370    371    380   5     0.00000     8.78640     0.00000  0.0
    381    370    371    372   5     6.33458     2.89951     2.76144  0.0
    381    370    371    380   5     0.00000     8.78640     0.00000  0.0
    369    370    381    382   5     0.00000    30.33400     0.00000  0.0
    369    370    381    392   5     0.00000    30.33400     0.00000  0.0
    371    370    381    382   5     0.00000    30.33400     0.00000  0.0
    371    370    381    392   5     0.00000    30.33400     0.00000  0.0
    370    371    372    373   5     6.35968    34.44269     0.00000  0.0
    370    371    372    386   5     0.00000    21.48066     0.00000  0.0
    380    371    372    373   5     0.00000     0.33472     0.00000  0.0
    380    371    372    386   5     0.00000    20.50160     0.00000  0.0
    371    372    373    374   5     8.37637     7.11698     0.00000  0.0
    371    372    373    379   5     8.37637     7.11698     0.00000  0.0
    386    372    373    374   5     0.00000     8.18390     0.00000  0.0
    386    372    373    379   5     0.00000     8.18390     0.00000  0.0
    372    373    374    375   5     0.00000    30.33400     0.00000  0.0
    372    373    374    387   5     0.00000    30.33400     0.00000  0.0
    379    373    374    375   5     0.00000    30.33400     0.00000  0.0
    379    373    374    387   5     0.00000    30.33400     0.00000  0.0
    372    373    379    378   5     0.00000    30.33400     0.00000  0.0
    372    373    379    391   5     0.00000    30.33400     0.00000  0.0
    374    373    379    378   5     0.00000    30.33400     0.00000  0.0
    374    373    379    391   5     0.00000    30.33400     0.00000  0.0
    373    374    375    376   5     0.00000    30.33400     0.00000  0.0
    373    374    375    388   5     0.00000    30.33400     0.00000  0.0
    387    374    375    376   5     0.00000    30.33400     0.00000  0.0
    387    374    375    388   5     0.00000    30.33400     0.00000  0.0
    374    375    376    377   5     0.00000    30.33400     0.00000  0.0
    374    375    376    378   5     0.00000    30.33400     0.00000  0.0
    388    375    376    377   5     0.00000    30.33400     0.00000  0.0
    388    375    376    378   5     0.00000    30.33400     0.00000  0.0
    375    376    377    389   5     0.00000     8.18390     0.00000  0.0
    375    376    377    394   5     8.37637     7.11698     0.00000  0.0
    378    376    377    389   5     0.00000     8.18390     0.00000  0.0
    378    376    377    394   5     8.37637     7.11698     0.00000  0.0
    375    376    378    379   5     0.00000    30.33400     0.00000  0.0
    375    376    378    390   5     0.00000    30.33400     0.00000  0.0
    377    376    378    379   5     0.00000    30.33400     0.00000  0.0
    377    376    378    390   5     0.00000    30.33400     0.00000  0.0
    376    377    394    395   5     6.35968    34.44269     0.00000  0.0
    376    377    394    411   5     0.00000     0.33472     0.00000  0.0
    389    377    394    395   5     0.00000    21.48066     0.00000  0.0
    389    377    394    411   5     0.00000    20.50160     0.00000  0.0
    376    378    379    373   5     0.00000    30.33400     0.00000  0.0
    376    378    379    391   5     0.00000    30.33400     0.00000  0.0
    390    378    379    373   5     0.00000    30.33400     0.00000  0.0
    390    378    379    391   5     0.00000    30.33400     0.00000  0.0
    370    381    382    367   5     0.00000    30.33400     0.00000  0.0
    370    381    382    393   5     0.00000    30.33400     0.00000  0.0
    392    381    382    367   5     0.00000    30.33400     0.00000  0.0
    392    381    382    393   5     0.00000    30.33400     0.00000  0.0
    377    394    395    396   5     6.33458     2.89951     2.76144  0.0
    377    394    395    410   5     6.33458     2.89951     2.76144  0.0
    411    394    395    396   5     0.00000     8.78640     0.00000  0.0
    411    394    395    410   5     0.00000     8.78640     0.00000  0.0
    394    395    396    397   5     0.00000    30.33400     0.00000  0.0
    394    395    396    412   5     0.00000    30.33400     0.00000  0.0
    410    395    396    397   5     0.00000    30.33400     0.00000  0.0
    410    395    396    412   5     0.00000    30.33400     0.00000  0.0
    394    395    410    409   5     0.00000    30.33400     0.00000  0.0
    394    395    410    421   5     0.00000    30.33400     0.00000  0.0
    396    395    410    409   5     0.00000    30.33400     0.00000  0.0
    396    395    410    421   5     0.00000    30.33400     0.00000  0.0
    395    396    397    398   5     0.00000    30.33400     0.00000  0.0
    395    396    397    413   5     0.00000    30.33400     0.00000  0.0
    412    396    397    398   5     0.00000    30.33400     0.00000  0.0
    412    396    397    413   5     0.00000    30.33400     0.00000  0.0
    396    397    398    399   5     0.00000    30.33400     0.00000  0.0
    396    397    398    409   5     0.00000    30.33400     0.00000  0.0
    413    397    398    399   5     0.00000    30.33400     0.00000  0.0
    413    397    398    409   5     0.00000    30.33400     0.00000  0.0
    397    398    399    400   5     6.33458     2.89951     2.76144  0.0
    397    398    399    408   5     0.00000     8.78640     0.00000  0.0
    409    398    399    400   5     6.33458     2.89951     2.76144  0.0
    409    398    399    408   5     0.00000     8.78640     0.00000  0.0
    397    398    409    410   5     0.00000    30.33400     0.00000  0.0
    397    398    409    420   5     0.00000    30.33400     0.00000  0.0
    399    398    409    410   5     0.00000    30.33400     0.00000  0.0
    399    398    409    420   5     0.00000    30.33400     0.00000  0.0
    398    399    400    401   5     6.35968    34.44269     0.00000  0.0
    398    399    400    414   5     0.00000    21.48066     0.00000  0.0
    408    399    400    401   5     0.00000     0.33472     0.00000  0.0
    408    399    400    414   5     0.00000    20.50160     0.00000  0.0
    399    400    401    402   5     8.37637     7.11698     0.00000  0.0
    399    400    401    407   5     8.37637     7.11698     0.00000  0.0
    414    400    401    402   5     0.00000     8.18390     0.00000  0.0
    414    400    401    407   5     0.00000     8.18390     0.00000  0.0
    400    401    402    403   5     0.00000    30.33400     0.00000  0.0
    400    401    402    415   5     0.00000    30.33400     0.00000  0.0
    407    401    402    403   5     0.00000    30.33400     0.00000  0.0
    407    401    402    415   5     0.00000    30.33400     0.00000  0.0
    400    401    407    406   5     0.00000    30.33400     0.00000  0.0
    400    401    407    419   5     0.00000    30.33400     0.00000  0.0
    402    401    407    406   5     0.00000    30.33400     0.00000  0.0
    402    401    407    419   5     0.00000    30.33400     0.00000  0.0
    401    402    403    404   5     0.00000    30.33400     0.00000  0.0
    401    402    403    416   5     0.00000    30.33400     0.00000  0.0
    415    402    403    404   5     0.00000    30.33400     0.00000  0.0
    415    402    403    416   5     0.00000    30.33400     0.00000  0.0
    402    403    404    405   5     0.00000    30.33400     0.00000  0.0
    402    403    404    406   5     0.00000    30.33400     0.00000  0.0
    416    403    404    405   5     0.00000    30.33400     0.00000  0.0
    416    403    404    406   5     0.00000    30.33400     0.00000  0.0
    403    404    405    417   5     0.00000     8.18390     0.00000  0.0
    403    404    405    422   5     8.37637     7.11698     0.00000  0.0
    406    404    405    417   5     0.00000     8.18390     0.00000  0.0
    406    404    405    422   5     8.37637     7.11698     0.00000  0.0
    403    404    406    407   5     0.00000    30.33400     0.00000  0.0
    403    404    406    418   5     0.00000    30.33400     0.00000  0.0
    405    404    406    407   5     0.00000    30.33400     0.00000  0.0
    405    404    406    418   5     0.00000    30.33400     0.00000  0.0
    404    405    422    423   5     6.35968    34.44269     0.00000  0.0
    404    405    422    439   5     0.00000     0.33472     0.00000  0.0
    417    405    422    423   5     0.00000    21.48066     0.00000  0.0
    417    405    422    439   5     0.00000    20.50160     0.00000  0.0
    404    406    407    401   5     0.00000    30.33400     0.00000  0.0
    404    406    407    419   5     0.00000    30.33400     0.00000  0.0
    418    406    407    401   5     0.00000    30.33400     0.00000  0.0
    418    406    407    419   5     0.00000    30.33400     0.00000  0.0
    398    409    410    395   5     0.00000    30.33400     0.00000  0.0
    398    409    410    421   5     0.00000    30.33400     0.00000  0.0
    420    409    410    395   5     0.00000    30.33400     0.00000  0.0
    420    409    410    421   5     0.00000    30.33400     0.00000  0.0
    405    422    423    424   5     6.33458     2.89951     2.76144  0.0
    405    422    423    438   5     6.33458     2.89951     2.76144  0.0
    439    422    423    424   5     0.00000     8.78640     0.00000  0.0
    439    422    423    438   5     0.00000     8.78640     0.00000  0.0
    422    423    424    425   5     0.00000    30.33400     0.00000  0.0
    422    423    424    440   5     0.00000    30.33400     0.00000  0.0
    438    423    424    425   5     0.00000    30.33400     0.00000  0.0
    438    423    424    440   5     0.00000    30.33400     0.00000  0.0
    422    423    438    437   5     0.00000    30.33400     0.00000  0.0
    422    423    438    449   5     0.00000    30.33400     0.00000  0.0
    424    423    438    437   5     0.00000    30.33400     0.00000  0.0
    424    423    438    449   5     0.00000    30.33400     0.00000  0.0
    423    424    425    426   5     0.00000    30.33400     0.00000  0.0
    423    424    425    441   5     0.00000    30.33400     0.00000  0.0
    440    424    425    426   5     0.00000    30.33400     0.00000  0.0
    440    424    425    441   5     0.00000    30.33400     0.00000  0.0
    424    425    426    427   5     0.00000    30.33400     0.00000  0.0
    424    425    426    437   5     0.00000    30.33400     0.00000  0.0
    441    425    426    427   5     0.00000    30.33400     0.00000  0.0
    441    425    426    437   5     0.00000    30.33400     0.00000  0.0
    425    426    427    428   5     6.33458     2.89951     2.76144  0.0
    425    426    427    436   5     0.00000     8.78640     0.00000  0.0
    437    426    427    428   5     6.33458     2.89951     2.76144  0.0
    437    426    427    436   5     0.00000     8.78640     0.00000  0.0
    425    426    437    438   5     0.00000    30.33400     0.00000  0.0
    425    426    437    448   5     0.00000    30.33400     0.00000  0.0
    427    426    437    438   5     0.00000    30.33400     0.00000  0.0
    427    426    437    448   5     0.00000    30.33400     0.00000  0.0
    426    427    428    429   5     6.35968    34.44269     0.00000  0.0
    426    427    428    442   5     0.00000    21.48066     0.00000  0.0
    436    427    428    429   5     0.00000     0.33472     0.00000  0.0
    436    427    428    442   5     0.00000    20.50160     0.00000  0.0
    427    428    429    430   5     8.37637     7.11698     0.00000  0.0
    427    428    429    435   5     8.37637     7.11698     0.00000  0.0
    442    428    429    430   5     0.00000     8.18390     0.00000  0.0
    442    428    429    435   5     0.00000     8.18390     0.00000  0.0
    428    429    430    431   5     0.00000    30.33400     0.00000  0.0
    428    429    430    443   5     0.00000    30.33400     0.00000  0.0
    435    429    430    431   5     0.00000    30.33400     0.00000  0.0
    435    429    430    443   5     0.00000    30.33400     0.00000  0.0
    428    429    435    434   5     0.00000    30.33400     0.00000  0.0
    428    429    435    447   5     0.00000    30.33400     0.00000  0.0
    430    429    435    434   5     0.00000    30.33400     0.00000  0.0
    430    429    435    447   5     0.00000    30.33400     0.00000  0.0
    429    430    431    432   5     0.00000    30.33400     0.00000  0.0
    429    430    431    444   5     0.00000    30.33400     0.00000  0.0
    443    430    431    432   5     0.00000    30.33400     0.00000  0.0
    443    430    431    444   5     0.00000    30.33400     0.00000  0.0
    430    431    432    433   5     0.00000    30.33400     0.00000  0.0
    430    431    432    434   5     0.00000    30.33400     0.00000  0.0
    444    431    432    433   5     0.00000    30.33400     0.00000  0.0
    444    431    432    434   5     0.00000    30.33400     0.00000  0.0
    431    432    433    445   5     0.00000     8.18390     0.00000  0.0
    431    432    433    450   5     8.37637     7.11698     0.00000  0.0
    434    432    433    445   5     0.00000     8.18390     0.00000  0.0
    434    432    433    450   5     8.37637     7.11698     0.00000  0.0
    431    432    434    435   5     0.00000    30.33400     0.00000  0.0
    431    432    434    446   5     0.00000    30.33400     0.00000  0.0
    433    432    434    435   5     0.00000    30.33400     0.00000  0.0
    433    432    434    446   5     0.00000    30.33400     0.00000  0.0
    432    433    450    451   5     6.35968    34.44269     0.00000  0.0
    432    433    450    467   5     0.00000     0.33472     0.00000  0.0
    445    433    450    451   5     0.00000    21.48066     0.00000  0.0
    445    433    450    467   5     0.00000    20.50160     0.00000  0.0
    432    434    435    429   5     0.00000    30.33400     0.00000  0.0
    432    434    435    447   5     0.00000    30.33400     0.00000  0.0
    446    434    435    429   5     0.00000    30.33400     0.00000  0.0
    446    434    435    447   5     0.00000    30.33400     0.00000  0.0
    426    437    438    423   5     0.00000    30.33400     0.00000  0.0
    426    437    438    449   5     0.00000    30.33400     0.00000  0.0
    448    437    438    423   5     0.00000    30.33400     0.00000  0.0
    448    437    438    449   5     0.00000    30.33400     0.00000  0.0
    433    450    451    452   5     6.33458     2.89951     2.76144  0.0
    433    450    451    466   5     6.33458     2.89951     2.76144  0.0
    467    450    451    452   5     0.00000     8.78640     0.00000  0.0
    467    450    451    466   5     0.00000     8.78640     0.00000  0.0
    450    451    452    453   5     0.00000    30.33400     0.00000  0.0
    450    451    452    468   5     0.00000    30.33400     0.00000  0.0
    466    451    452    453   5     0.00000    30.33400     0.00000  0.0
    466    451    452    468   5     0.00000    30.33400     0.00000  0.0
    450    451    466    465   5     0.00000    30.33400     0.00000  0.0
    450    451    466    477   5     0.00000    30.33400     0.00000  0.0
    452    451    466    465   5     0.00000    30.33400     0.00000  0.0
    452    451    466    477   5     0.00000    30.33400     0.00000  0.0
    451    452    453    454   5     0.00000    30.33400     0.00000  0.0
    451    452    453    469   5     0.00000    30.33400     0.00000  0.0
    468    452    453    454   5     0.00000    30.33400     0.00000  0.0
    468    452    453    469   5     0.00000    30.33400     0.00000  0.0
    452    453    454    455   5     0.00000    30.33400     0.00000  0.0
    452    453    454    465   5     0.00000    30.33400     0.00000  0.0
    469    453    454    455   5     0.00000    30.33400     0.00000  0.0
    469    453    454    465   5     0.00000    30.33400     0.00000  0.0
    453    454    455    456   5     6.33458     2.89951     2.76144  0.0
    453    454    455    464   5     0.00000     8.78640     0.00000  0.0
    465    454    455    456   5     6.33458     2.89951     2.76144  0.0
    465    454    455    464   5     0.00000     8.78640     0.00000  0.0
    453    454    465    466   5     0.00000    30.33400     0.00000  0.0
    453    454    465    476   5     0.00000    30.33400     0.00000  0.0
    455    454    465    466   5     0.00000    30.33400     0.00000  0.0
    455    454    465    476   5     0.00000    30.33400     0.00000  0.0
    454    455    456    457   5     6.35968    34.44269     0.00000  0.0
    454    455    456    470   5     0.00000    21.48066     0.00000  0.0
    464    455    456    457   5     0.00000     0.33472     0.00000  0.0
    464    455    456    470   5     0.00000    20.50160     0.00000  0.0
    455    456    457    458   5     8.37637     7.11698     0.00000  0.0
    455    456    457    463   5     8.37637     7.11698     0.00000  0.0
    470    456    457    458   5     0.00000     8.18390     0.00000  0.0
    470    456    457    463   5     0.00000     8.18390     0.00000  0.0
    456    457    458    459   5     0.00000    30.33400     0.00000  0.0
    456    457    458    471   5     0.00000    30.33400     0.00000  0.0
    463    457    458    459   5     0.00000    30.33400     0.00000  0.0
    463    457    458    471   5     0.00000    30.33400     0.00000  0.0
    456    457    463    462   5     0.00000    30.33400     0.00000  0.0
    456    457    463    475   5     0.00000    30.33400     0.00000  0.0
    458    457    463    462   5     0.00000    30.33400     0.00000  0.0
    458    457    463    475   5     0.00000    30.33400     0.00000  0.0
    457    458    459    460   5     0.00000    30.33400     0.00000  0.0
    457    458    459    472   5     0.00000    30.33400     0.00000  0.0
    471    458    459    460   5     0.00000    30.33400     0.00000  0.0
    471    458    459    472   5     0.00000    30.33400     0.00000  0.0
    458    459    460    461   5     0.00000    30.33400     0.00000  0.0
    458    459    460    462   5     0.00000    30.33400     0.00000  0.0
    472    459    460    461   5     0.00000    30.33400     0.00000  0.0
    472    459    460    462   5     0.00000    30.33400     0.00000  0.0
    459    460    461    473   5     0.00000     8.18390     0.00000  0.0
    459    460    461    478   5     8.37637     7.11698     0.00000  0.0
    462    460    461    473   5     0.00000     8.18390     0.00000  0.0
    462    460    461    478   5     8.37637     7.11698     0.00000  0.0
    459    460    462    463   5     0.00000    30.33400     0.00000  0.0
    459    460    462    474   5     0.00000    30.33400     0.00000  0.0
    461    460    462    463   5     0.00000    30.33400     0.00000  0.0
    461    460    462    474   5     0.00000    30.33400     0.00000  0.0
    460    461    478    479   5     6.35968    34.44269     0.00000  0.0
    460    461    478    495   5     0.00000     0.33472     0.00000  0.0
    473    461    478    479   5     0.00000    21.48066     0.00000  0.0
    473    461    478    495   5     0.00000    20.50160     0.00000  0.0
    460    462    463    457   5     0.00000    30.33400     0.00000  0.0
    460    462    463    475   5     0.00000    30.33400     0.00000  0.0
    474    462    463    457   5     0.00000    30.33400     0.00000  0.0
    474    462    463    475   5     0.00000    30.33400     0.00000  0.0
    454    465    466    451   5     0.00000    30.33400     0.00000  0.0
    454    465    466    477   5     0.00000    30.33400     0.00000  0.0
    476    465    466    451   5     0.00000    30.33400     0.00000  0.0
    476    465    466    477   5     0.00000    30.33400     0.00000  0.0
    461    478    479    480   5     6.33458     2.89951     2.76144  0.0
    461    478    479    494   5     6.33458     2.89951     2.76144  0.0
    495    478    479    480   5     0.00000     8.78640     0.00000  0.0
    495    478    479    494   5     0.00000     8.78640     0.00000  0.0
    478    479    480    481   5     0.00000    30.33400     0.00000  0.0
    478    479    480    496   5     0.00000    30.33400     0.00000  0.0
    494    479    480    481   5     0.00000    30.33400     0.00000  0.0
    494    479    480    496   5     0.00000    30.33400     0.00000  0.0
    478    479    494    493   5     0.00000    30.33400     0.00000  0.0
    478    479    494    505   5     0.00000    30.33400     0.00000  0.0
    480    479    494    493   5     0.00000    30.33400     0.00000  0.0
    480    479    494    505   5     0.00000    30.33400     0.00000  0.0
    479    480    481    482   5     0.00000    30.33400     0.00000  0.0
    479    480    481    497   5     0.00000    30.33400     0.00000  0.0
    496    480    481    482   5     0.00000    30.33400     0.00000  0.0
    496    480    481    497   5     0.00000    30.33400     0.00000  0.0
    480    481    482    483   5     0.00000    30.33400     0.00000  0.0
    480    481    482    493   5     0.00000    30.33400     0.00000  0.0
    497    481    482    483   5     0.00000    30.33400     0.00000  0.0
    497    481    482    493   5     0.00000    30.33400     0.00000  0.0
    481    482    483    484   5     6.33458     2.89951     2.76144  0.0
    481    482    483    492   5     0.00000     8.78640     0.00000  0.0
    493    482    483    484   5     6.33458     2.89951     2.76144  0.0
    493    482    483    492   5     0.00000     8.78640     0.00000  0.0
    481    482    493    494   5     0.00000    30.33400     0.00000  0.0
    481    482    493    504   5     0.00000    30.33400     0.00000  0.0
    483    482    493    494   5     0.00000    30.33400     0.00000  0.0
    483    482    493    504   5     0.00000    30.33400     0.00000  0.0
    482    483    484    485   5     6.35968    34.44269     0.00000  0.0
    482    483    484    498   5     0.00000    21.48066     0.00000  0.0
    492    483    484    485   5     0.00000     0.33472     0.00000  0.0
    492    483    484    498   5     0.00000    20.50160     0.00000  0.0
    483    484    485    486   5     8.37637     7.11698     0.00000  0.0
    483    484    485    491   5     8.37637     7.11698     0.00000  0.0
    498    484    485    486   5     0.00000     8.18390     0.00000  0.0
    498    484    485    491   5     0.00000     8.18390     0.00000  0.0
    484    485    486    487   5     0.00000    30.33400     0.00000  0.0
    484    485    486    499   5     0.00000    30.33400     0.00000  0.0
    491    485    486    487   5     0.00000    30.33400     0.00000  0.0
    491    485    486    499   5     0.00000    30.33400     0.00000  0.0
    484    485    491    490   5     0.00000    30.33400     0.00000  0.0
    484    485    491    503   5     0.00000    30.33400     0.00000  0.0
    486    485    491    490   5     0.00000    30.33400     0.00000  0.0
    486    485    491    503   5     0.00000    30.33400     0.00000  0.0
    485    486    487    488   5     0.00000    30.33400     0.00000  0.0
    485    486    487    500   5     0.00000    30.33400     0.00000  0.0
    499    486    487    488   5     0.00000    30.33400     0.00000  0.0
    499    486    487    500   5     0.00000    30.33400     0.00000  0.0
    486    487    488    489   5     0.00000    30.33400     0.00000  0.0
    486    487    488    490   5     0.00000    30.33400     0.00000  0.0
    500    487    488    489   5     0.00000    30.33400     0.00000  0.0
    500    487    488    490   5     0.00000    30.33400     0.00000  0.0
    487    488    489    501   5     0.00000     8.18390     0.00000  0.0
    487    488    489    506   5     8.37637     7.11698     0.00000  0.0
    490    488    489    501   5     0.00000     8.18390     0.00000  0.0
    490    488    489    506   5     8.37637     7.11698     0.00000  0.0
    487    488    490    491   5     0.00000    30.33400     0.00000  0.0
    487    488    490    502   5     0.00000    30.33400     0.00000  0.0
    489    488    490    491   5     0.00000    30.33400     0.00000  0.0
    489    488    490    502   5     0.00000    30.33400     0.00000  0.0
    488    489    506    507   5     6.35968    34.44269     0.00000  0.0
    488    489    506    523   5     0.00000     0.33472     0.00000  0.0
    501    489    506    507   5     0.00000    21.48066     0.00000  0.0
    501    489    506    523   5     0.00000    20.50160     0.00000  0.0
    488    490    491    485   5     0.00000    30.33400     0.00000  0.0
    488    490    491    503   5     0.00000    30.33400     0.00000  0.0
    502    490    491    485   5     0.00000    30.33400     0.00000  0.0
    502    490    491    503   5     0.00000    30.33400     0.00000  0.0
    482    493    494    479   5     0.00000    30.33400     0.00000  0.0
    482    493    494    505   5     0.00000    30.33400     0.00000  0.0
    504    493    494    479   5     0.00000    30.33400     0.00000  0.0
    504    493    494    505   5     0.00000    30.33400     0.00000  0.0
    489    506    507    508   5     6.33458     2.89951     2.76144  0.0
    489    506    507    522   5     6.33458     2.89951     2.76144  0.0
    523    506    507    508   5     0.00000     8.78640     0.00000  0.0
    523    506    507    522   5     0.00000     8.78640     0.00000  0.0
    506    507    508    509   5     0.00000    30.33400     0.00000  0.0
    506    507    508    524   5     0.00000    30.33400     0.00000  0.0
    522    507    508    509   5     0.00000    30.33400     0.00000  0.0
    522    507    508    524   5     0.00000    30.33400     0.00000  0.0
    506    507    522    521   5     0.00000    30.33400     0.00000  0.0
    506    507    522    533   5     0.00000    30.33400     0.00000  0.0
    508    507    522    521   5     0.00000    30.33400     0.00000  0.0
    508    507    522    533   5     0.00000    30.33400     0.00000  0.0
    507    508    509    510   5     0.00000    30.33400     0.00000  0.0
    507    508    509    525   5     0.00000    30.33400     0.00000  0.0
    524    508    509    510   5     0.00000    30.33400     0.00000  0.0
    524    508    509    525   5     0.00000    30.33400     0.00000  0.0
    508    509    510    511   5     0.00000    30.33400     0.00000  0.0
    508    509    510    521   5     0.00000    30.33400     0.00000  0.0
    525    509    510    511   5     0.00000    30.33400     0.00000  0.0
    525    509    510    521   5     0.00000    30.33400     0.00000  0.0
    509    510    511    512   5     6.33458     2.89951     2.76144  0.0
    509    510    511    520   5     0.00000     8.78640     0.00000  0.0
    521    510    511    512   5     6.33458     2.89951     2.76144  0.0
    521    510    511    520   5     0.00000     8.78640     0.00000  0.0
    509    510    521    522   5     0.00000    30.33400     0.00000  0.0
    509    510    521    532   5     0.00000    30.33400     0.00000  0.0
    511    510    521    522   5     0.00000    30.33400     0.00000  0.0
    511    510    521    532   5     0.00000    30.33400     0.00000  0.0
    510    511    512    513   5     6.35968    34.44269     0.00000  0.0
    510    511    512    526   5     0.00000    21.48066     0.00000  0.0
    520    511    512    513   5     0.00000     0.33472     0.00000  0.0
    520    511    512    526   5     0.00000    20.50160     0.00000  0.0
    511    512    513    514   5     8.37637     7.11698     0.00000  0.0
    511    512    513    519   5     8.37637     7.11698     0.00000  0.0
    526    512    513    514   5     0.00000     8.18390     0.00000  0.0
    526    512    513    519   5     0.00000     8.18390     0.00000  0.0
    512    513    514    515   5     0.00000    30.33400     0.00000  0.0
    512    513    514    527   5     0.00000    30.33400     0.00000  0.0
    519    513    514    515   5     0.00000    30.33400     0.00000  0.0
    519    513    514    527   5     0.00000    30.33400     0.00000  0.0
    512    513    519    518   5     0.00000    30.33400     0.00000  0.0
    512    513    519    531   5     0.00000    30.33400     0.00000  0.0
    514    513    519    518   5     0.00000    30.33400     0.00000  0.0
    514    513    519    531   5     0.00000    30.33400     0.00000  0.0
    513    514    515    516   5     0.00000    30.33400     0.00000  0.0
    513    514    515    528   5     0.00000    30.33400     0.00000  0.0
    527    514    515    516   5     0.00000    30.33400     0.00000  0.0
    527    514    515    528   5     0.00000    30.33400     0.00000  0.0
    514    515    516    517   5     0.00000    30.33400     0.00000  0.0
    514    515    516    518   5     0.00000    30.33400     0.00000  0.0
    528    515    516    517   5     0.00000    30.33400     0.00000  0.0
    528    515    516    518   5     0.00000    30.33400     0.00000  0.0
    515    516    517    529   5     0.00000     8.18390     0.00000  0.0
    515    516    517    534   5     8.37637     7.11698     0.00000  0.0
    518    516    517    529   5     0.00000     8.18390     0.00000  0.0
    518    516    517    534   5     8.37637     7.11698     0.00000  0.0
    515    516    518    519   5     0.00000    30.33400     0.00000  0.0
    515    516    518    530   5     0.00000    30.33400     0.00000  0.0
    517    516    518    519   5     0.00000    30.33400     0.00000  0.0
    517    516    518    530   5     0.00000    30.33400     0.00000  0.0
    516    517    534    535   5     6.35968    34.44269     0.00000  0.0
    516    517    534    551   5     0.00000     0.33472     0.00000  0.0
    529    517    534    535   5     0.00000    21.48066     0.00000  0.0
    529    517    534    551   5     0.00000    20.50160     0.00000  0.0
    516    518    519    513   5     0.00000    30.33400     0.00000  0.0
    516    518    519    531   5     0.00000    30.33400     0.00000  0.0
    530    518    519    513   5     0.00000    30.33400     0.00000  0.0
    530    518    519    531   5     0.00000    30.33400     0.00000  0.0
    510    521    522    507   5     0.00000    30.33400     0.00000  0.0
    510    521    522    533   5     0.00000    30.33400     0.00000  0.0
    532    521    522    507   5     0.00000    30.33400     0.00000  0.0
    532    521    522    533   5     0.00000    30.33400     0.00000  0.0
    517    534    535    536   5     6.33458     2.89951     2.76144  0.0
    517    534    535    550   5     6.33458     2.89951     2.76144  0.0
    551    534    535    536   5     0.00000     8.78640     0.00000  0.0
    551    534    535    550   5     0.00000     8.78640     0.00000  0.0
    534    535    536    537   5     0.00000    30.33400     0.00000  0.0
    534    535    536    552   5     0.00000    30.33400     0.00000  0.0
    550    535    536    537   5     0.00000    30.33400     0.00000  0.0
    550    535    536    552   5     0.00000    30.33400     0.00000  0.0
    534    535    550    549   5     0.00000    30.33400     0.00000  0.0
    534    535    550    561   5     0.00000    30.33400     0.00000  0.0
    536    535    550    549   5     0.00000    30.33400     0.00000  0.0
    536    535    550    561   5     0.00000    30.33400     0.00000  0.0
    535    536    537    538   5     0.00000    30.33400     0.00000  0.0
    535    536    537    553   5     0.00000    30.33400     0.00000  0.0
    552    536    537    538   5     0.00000    30.33400     0.00000  0.0
    552    536    537    553   5     0.00000    30.33400     0.00000  0.0
    536    537    538    539   5     0.00000    30.33400     0.00000  0.0
    536    537    538    549   5     0.00000    30.33400     0.00000  0.0
    553    537    538    539   5     0.00000    30.33400     0.00000  0.0
    553    537    538    549   5     0.00000    30.33400     0.00000  0.0
    537    538    539    540   5     6.33458     2.89951     2.76144  0.0
    537    538    539    548   5     0.00000     8.78640     0.00000  0.0
    549    538    539    540   5     6.33458     2.89951     2.76144  0.0
    549    538    539    548   5     0.00000     8.78640     0.00000  0.0
    537    538    549    550   5     0.00000    30.33400     0.00000  0.0
    537    538    549    560   5     0.00000    30.33400     0.00000  0.0
    539    538    549    550   5     0.00000    30.33400     0.00000  0.0
    539    538    549    560   5     0.00000    30.33400     0.00000  0.0
    538    539    540    541   5     6.35968    34.44269     0.00000  0.0
    538    539    540    554   5     0.00000    21.48066     0.00000  0.0
    548    539    540    541   5     0.00000     0.33472     0.00000  0.0
    548    539    540    554   5     0.00000    20.50160     0.00000  0.0
    539    540    541    542   5     8.37637     7.11698     0.00000  0.0
    539    540    541    547   5     8.37637     7.11698     0.00000  0.0
    554    540    541    542   5     0.00000     8.18390     0.00000  0.0
    554    540    541    547   5     0.00000     8.18390     0.00000  0.0
    540    541    542    543   5     0.00000    30.33400     0.00000  0.0
    540    541    542    555   5     0.00000    30.33400     0.00000  0.0
    547    541    542    543   5     0.00000    30.33400     0.00000  0.0
    547    541    542    555   5     0.00000    30.33400     0.00000  0.0
    540    541    547    546   5     0.00000    30.33400     0.00000  0.0
    540    541    547    559   5     0.00000    30.33400     0.00000  0.0
    542    541    547    546   5     0.00000    30.33400     0.00000  0.0
    542    541    547    559   5     0.00000    30.33400     0.00000  0.0
    541    542    543    544   5     0.00000    30.33400     0.00000  0.0
    541    542    543    556   5     0.00000    30.33400     0.00000  0.0
    555    542    543    544   5     0.00000    30.33400     0.00000  0.0
    555    542    543    556   5     0.00000    30.33400     0.00000  0.0
    542    543    544    545   5     0.00000    30.33400     0.00000  0.0
    542    543    544    546   5     0.00000    30.33400     0.00000  0.0
    556    543    544    545   5     0.00000    30.33400     0.00000  0.0
    556    543    544    546   5     0.00000    30.33400     0.00000  0.0
    543    544    545    557   5     0.00000     8.36800     0.00000  0.0
    543    544    545    562   5     0.00000     8.36800     0.00000  0.0
    546    544    545    557   5     0.00000     8.36800     0.00000  0.0
    546    544    545    562   5     0.00000     8.36800     0.00000  0.0
    543    544    546    547   5     0.00000    30.33400     0.00000  0.0
    543    544    546    558   5     0.00000    30.33400     0.00000  0.0
    545    544    546    547   5     0.00000    30.33400     0.00000  0.0
    545    544    546    558   5     0.00000    30.33400     0.00000  0.0
    544    546    547    541   5     0.00000    30.33400     0.00000  0.0
    544    546    547    559   5     0.00000    30.33400     0.00000  0.0
    558    546    547    541   5     0.00000    30.33400     0.00000  0.0
    558    546    547    559   5     0.00000    30.33400     0.00000  0.0
    538    549    550    535   5     0.00000    30.33400     0.00000  0.0
    538    549    550    561   5     0.00000    30.33400     0.00000  0.0
    560    549    550    535   5     0.00000    30.33400     0.00000  0.0
    560    549    550    561   5     0.00000    30.33400     0.00000  0.0

[ dihedrals ]
; Improper dihedrals
; h   i   j   k   funct
      2     18      1     29   5     0.00000    87.86400     0.00000  0.0
      1      3      2     17   5     0.00000    33.47200     0.00000  0.0
      2      4      3     19   5     0.00000     9.20480     0.00000  0.0
      3      5      4     20   5     0.00000     9.20480     0.00000  0.0
      4      6      5     16   5     0.00000    33.47200     0.00000  0.0
      5      7      6     15   5     0.00000    87.86400     0.00000  0.0
      6      8      7     21   5     0.00000     8.36800     0.00000  0.0
      7      9      8     14   5     0.00000    33.47200     0.00000  0.0
      8     10      9     22   5     0.00000     9.20480     0.00000  0.0
      9     11     10     23   5     0.00000     9.20480     0.00000  0.0
     10     12     11     13   5     0.00000    33.47200     0.00000  0.0
     11     24     12     30   5     0.00000     8.36800     0.00000  0.0
     11     14     13     25   5     0.00000     9.20480     0.00000  0.0
      8     13     14     26   5     0.00000     9.20480     0.00000  0.0
      5     17     16     27   5     0.00000     9.20480     0.00000  0.0
      2     16     17     28   5     0.00000     9.20480     0.00000  0.0
     12     31     30     47   5     0.00000    87.86400     0.00000  0.0
     30     32     31     46   5     0.00000    33.47200     0.00000  0.0
     31     33     32     48   5     0.00000     9.20480     0.00000  0.0
     32     34     33     49   5     0.00000     9.20480     0.00000  0.0
     33     35     34     45   5     0.00000    33.47200     0.00000  0.0
     34     36     35     44   5     0.00000    87.86400     0.00000  0.0
     35     37     36     50   5     0.00000     8.36800     0.00000  0.0
     36     38     37     43   5     0.00000    33.47200     0.00000  0.0
     37     39     38     51   5     0.00000     9.20480     0.00000  0.0
     38     40     39     52   5     0.00000     9.20480     0.00000  0.0
     39     41     40     42   5     0.00000    33.47200     0.00000  0.0
     40     53     41     58   5     0.00000     8.36800     0.00000  0.0
     40     43     42     54   5     0.00000     9.20480     0.00000  0.0
     37     42     43     55   5     0.00000     9.20480     0.00000  0.0
     34     46     45     56   5     0.00000     9.20480     0.00000  0.0
     31     45     46     57   5     0.00000     9.20480     0.00000  0.0
     41     59     58     75   5     0.00000    87.86400     0.00000  0.0
     58     60     59     74   5     0.00000    33.47200     0.00000  0.0
     59     61     60     76   5     0.00000     9.20480     0.00000  0.0
     60     62     61     77   5     0.00000     9.20480     0.00000  0.0
     61     63     62     73   5     0.00000    33.47200     0.00000  0.0
     62     64     63     72   5     0.00000    87.86400     0.00000  0.0
     63     65     64     78   5     0.00000     8.36800     0.00000  0.0
     64     66     65     71   5     0.00000    33.47200     0.00000  0.0
     65     67     66     79   5     0.00000     9.20480     0.00000  0.0
     66     68     67     80   5     0.00000     9.20480     0.00000  0.0
     67     69     68     70   5     0.00000    33.47200     0.00000  0.0
     68     81     69     86   5     0.00000     8.36800     0.00000  0.0
     68     71     70     82   5     0.00000     9.20480     0.00000  0.0
     65     70     71     83   5     0.00000     9.20480     0.00000  0.0
     62     74     73     84   5     0.00000     9.20480     0.00000  0.0
     59     73     74     85   5     0.00000     9.20480     0.00000  0.0
     69     87     86    103   5     0.00000    87.86400     0.00000  0.0
     86     88     87    102   5     0.00000    33.47200     0.00000  0.0
     87     89     88    104   5     0.00000     9.20480     0.00000  0.0
     88     90     89    105   5     0.00000     9.20480     0.00000  0.0
     89     91     90    101   5     0.00000    33.47200     0.00000  0.0
     90     92     91    100   5     0.00000    87.86400     0.00000  0.0
     91     93     92    106   5     0.00000     8.36800     0.00000  0.0
     92     94     93     99   5     0.00000    33.47200     0.00000  0.0
     93     95     94    107   5     0.00000     9.20480     0.00000  0.0
     94     96     95    108   5     0.00000     9.20480     0.00000  0.0
     95     97     96     98   5     0.00000    33.47200     0.00000  0.0
     96    109     97    114   5     0.00000     8.36800     0.00000  0.0
     96     99     98    110   5     0.00000     9.20480     0.00000  0.0
     93     98     99    111   5     0.00000     9.20480     0.00000  0.0
     90    102    101    112   5     0.00000     9.20480     0.00000  0.0
     87    101    102    113   5     0.00000     9.20480     0.00000  0.0
     97    115    114    131   5     0.00000    87.86400     0.00000  0.0
    114    116    115    130   5     0.00000    33.47200     0.00000  0.0
    115    117    116    132   5     0.00000     9.20480     0.00000  0.0
    116    118    117    133   5     0.00000     9.20480     0.00000  0.0
    117    119    118    129   5     0.00000    33.47200     0.00000  0.0
    118    120    119    128   5     0.00000    87.86400     0.00000  0.0
    119    121    120    134   5     0.00000     8.36800     0.00000  0.0
    120    122    121    127   5     0.00000    33.47200     0.00000  0.0
    121    123    122    135   5     0.00000     9.20480     0.00000  0.0
    122    124    123    136   5     0.00000     9.20480     0.00000  0.0
    123    125    124    126   5     0.00000    33.47200     0.00000  0.0
    124    137    125    142   5     0.00000     8.36800     0.00000  0.0
    124    127    126    138   5     0.00000     9.20480     0.00000  0.0
    121    126    127    139   5     0.00000     9.20480     0.00000  0.0
    118    130    129    140   5     0.00000     9.20480     0.00000  0.0
    115    129    130    141   5     0.00000     9.20480     0.00000  0.0
    125    143    142    159   5     0.00000    87.86400     0.00000  0.0
    142    144    143    158   5     0.00000    33.47200     0.00000  0.0
    143    145    144    160   5     0.00000     9.20480     0.00000  0.0
    144    146    145    161   5     0.00000     9.20480     0.00000  0.0
    145    147    146    157   5     0.00000    33.47200     0.00000  0.0
    146    148    147    156   5     0.00000    87.86400     0.00000  0.0
    147    149    148    162   5     0.00000     8.36800     0.00000  0.0
    148    150    149    155   5     0.00000    33.47200     0.00000  0.0
    149    151    150    163   5     0.00000     9.20480     0.00000  0.0
    150    152    151    164   5     0.00000     9.20480     0.00000  0.0
    151    153    152    154   5     0.00000    33.47200     0.00000  0.0
    152    165    153    170   5     0.00000     8.36800     0.00000  0.0
    152    155    154    166   5     0.00000     9.20480     0.00000  0.0
    149    154    155    167   5     0.00000     9.20480     0.00000  0.0
    146    158    157    168   5     0.00000     9.20480     0.00000  0.0
    143    157    158    169   5     0.00000     9.20480     0.00000  0.0
    153    171    170    187   5     0.00000    87.86400     0.00000  0.0
    170    172    171    186   5     0.00000    33.47200     0.00000  0.0
    171    173    172    188   5     0.00000     9.20480     0.00000  0.0
    172    174    173    189   5     0.00000     9.20480     0.00000  0.0
    173    175    174    185   5     0.00000    33.47200     0.00000  0.0
    174    176    175    184   5     0.00000    87.86400     0.00000  0.0
    175    177    176    190   5     0.00000     8.36800     0.00000  0.0
    176    178    177    183   5     0.00000    33.47200     0.00000  0.0
    177    179    178    191   5     0.00000     9.20480     0.00000  0.0
    178    180    179    192   5     0.00000     9.20480     0.00000  0.0
    179    181    180    182   5     0.00000    33.47200     0.00000  0.0
    180    193    181    198   5     0.00000     8.36800     0.00000  0.0
    180    183    182    194   5     0.00000     9.20480     0.00000  0.0
    177    182    183    195   5     0.00000     9.20480     0.00000  0.0
    174    186    185    196   5     0.00000     9.20480     0.00000  0.0
    171    185    186    197   5     0.00000     9.20480     0.00000  0.0
    181    199    198    215   5     0.00000    87.86400     0.00000  0.0
    198    200    199    214   5     0.00000    33.47200     0.00000  0.0
    199    201    200    216   5     0.00000     9.20480     0.00000  0.0
    200    202    201    217   5     0.00000     9.20480     0.00000  0.0
    201    203    202    213   5     0.00000    33.47200     0.00000  0.0
    202    204    203    212   5     0.00000    87.86400     0.00000  0.0
    203    205    204    218   5     0.00000     8.36800     0.00000  0.0
    204    206    205    211   5     0.00000    33.47200     0.00000  0.0
    205    207    206    219   5     0.00000     9.20480     0.00000  0.0
    206    208    207    220   5     0.00000     9.20480     0.00000  0.0
    207    209    208    210   5     0.00000    33.47200     0.00000  0.0
    208    221    209    226   5     0.00000     8.36800     0.00000  0.0
    208    211    210    222   5     0.00000     9.20480     0.00000  0.0
    205    210    211    223   5     0.00000     9.20480     0.00000  0.0
    202    214    213    224   5     0.00000     9.20480     0.00000  0.0
    199    213    214    225   5     0.00000     9.20480     0.00000  0.0
    209    227    226    243   5     0.00000    87.86400     0.00000  0.0
    226    228    227    242   5     0.00000    33.47200     0.00000  0.0
    227    229    228    244   5     0.00000     9.20480     0.00000  0.0
    228    230    229    245   5     0.00000     9.20480     0.00000  0.0
    229    231    230    241   5     0.00000    33.47200     0.00000  0.0
    230    232    231    240   5     0.00000    87.86400     0.00000  0.0
    231    233    232    246   5     0.00000     8.36800     0.00000  0.0
    232    234    233    239   5     0.00000    33.47200     0.00000  0.0
    233    235    234    247   5     0.00000     9.20480     0.00000  0.0
    234    236    235    248   5     0.00000     9.20480     0.00000  0.0
    235    237    236    238   5     0.00000    33.47200     0.00000  0.0
    236    249    237    254   5     0.00000     8.36800     0.00000  0.0
    236    239    238    250   5     0.00000     9.20480     0.00000  0.0
    233    238    239    251   5     0.00000     9.20480     0.00000  0.0
    230    242    241    252   5     0.00000     9.20480     0.00000  0.0
    227    241    242    253   5     0.00000     9.20480     0.00000  0.0
    237    255    254    271   5     0.00000    87.86400     0.00000  0.0
    254    256    255    270   5     0.00000    33.47200     0.00000  0.0
    255    257    256    272   5     0.00000     9.20480     0.00000  0.0
    256    258    257    273   5     0.00000     9.20480     0.00000  0.0
    257    259    258    269   5     0.00000    33.47200     0.00000  0.0
    258    260    259    268   5     0.00000    87.86400     0.00000  0.0
    259    261    260    274   5     0.00000     8.36800     0.00000  0.0
    260    262    261    267   5     0.00000    33.47200     0.00000  0.0
    261    263    262    275   5     0.00000     9.20480     0.00000  0.0
    262    264    263    276   5     0.00000     9.20480     0.00000  0.0
    263    265    264    266   5     0.00000    33.47200     0.00000  0.0
    264    277    265    282   5     0.00000     8.36800     0.00000  0.0
    264    267    266    278   5     0.00000     9.20480     0.00000  0.0
    261    266    267    279   5     0.00000     9.20480     0.00000  0.0
    258    270    269    280   5     0.00000     9.20480     0.00000  0.0
    255    269    270    281   5     0.00000     9.20480     0.00000  0.0
    265    283    282    299   5     0.00000    87.86400     0.00000  0.0
    282    284    283    298   5     0.00000    33.47200     0.00000  0.0
    283    285    284    300   5     0.00000     9.20480     0.00000  0.0
    284    286    285    301   5     0.00000     9.20480     0.00000  0.0
    285    287    286    297   5     0.00000    33.47200     0.00000  0.0
    286    288    287    296   5     0.00000    87.86400     0.00000  0.0
    287    289    288    302   5     0.00000     8.36800     0.00000  0.0
    288    290    289    295   5     0.00000    33.47200     0.00000  0.0
    289    291    290    303   5     0.00000     9.20480     0.00000  0.0
    290    292    291    304   5     0.00000     9.20480     0.00000  0.0
    291    293    292    294   5     0.00000    33.47200     0.00000  0.0
    292    305    293    310   5     0.00000     8.36800     0.00000  0.0
    292    295    294    306   5     0.00000     9.20480     0.00000  0.0
    289    294    295    307   5     0.00000     9.20480     0.00000  0.0
    286    298    297    308   5     0.00000     9.20480     0.00000  0.0
    283    297    298    309   5     0.00000     9.20480     0.00000  0.0
    293    311    310    327   5     0.00000    87.86400     0.00000  0.0
    310    312    311    326   5     0.00000    33.47200     0.00000  0.0
    311    313    312    328   5     0.00000     9.20480     0.00000  0.0
    312    314    313    329   5     0.00000     9.20480     0.00000  0.0
    313    315    314    325   5     0.00000    33.47200     0.00000  0.0
    314    316    315    324   5     0.00000    87.86400     0.00000  0.0
    315    317    316    330   5     0.00000     8.36800     0.00000  0.0
    316    318    317    323   5     0.00000    33.47200     0.00000  0.0
    317    319    318    331   5     0.00000     9.20480     0.00000  0.0
    318    320    319    332   5     0.00000     9.20480     0.00000  0.0
    319    321    320    322   5     0.00000    33.47200     0.00000  0.0
    320    333    321    338   5     0.00000     8.36800     0.00000  0.0
    320    323    322    334   5     0.00000     9.20480     0.00000  0.0
    317    322    323    335   5     0.00000     9.20480     0.00000  0.0
    314    326    325    336   5     0.00000     9.20480     0.00000  0.0
    311    325    326    337   5     0.00000     9.20480     0.00000  0.0
    321    339    338    355   5     0.00000    87.86400     0.00000  0.0
    338    340    339    354   5     0.00000    33.47200     0.00000  0.0
    339    341    340    356   5     0.00000     9.20480     0.00000  0.0
    340    342    341    357   5     0.00000     9.20480     0.00000  0.0
    341    343    342    353   5     0.00000    33.47200     0.00000  0.0
    342    344    343    352   5     0.00000    87.86400     0.00000  0.0
    343    345    344    358   5     0.00000     8.36800     0.00000  0.0
    344    346    345    351   5     0.00000    33.47200     0.00000  0.0
    345    347    346    359   5     0.00000     9.20480     0.00000  0.0
    346    348    347    360   5     0.00000     9.20480     0.00000  0.0
    347    349    348    350   5     0.00000    33.47200     0.00000  0.0
    348    361    349    366   5     0.00000     8.36800     0.00000  0.0
    348    351    350    362   5     0.00000     9.20480     0.00000  0.0
    345    350    351    363   5     0.00000     9.20480     0.00000  0.0
    342    354    353    364   5     0.00000     9.20480     0.00000  0.0
    339    353    354    365   5     0.00000     9.20480     0.00000  0.0
    349    367    366    383   5     0.00000    87.86400     0.00000  0.0
    366    368    367    382   5     0.00000    33.47200     0.00000  0.0
    367    369    368    384   5     0.00000     9.20480     0.00000  0.0
    368    370    369    385   5     0.00000     9.20480     0.00000  0.0
    369    371    370    381   5     0.00000    33.47200     0.00000  0.0
    370    372    371    380   5     0.00000    87.86400     0.00000  0.0
    371    373    372    386   5     0.00000     8.36800     0.00000  0.0
    372    374    373    379   5     0.00000    33.47200     0.00000  0.0
    373    375    374    387   5     0.00000     9.20480     0.00000  0.0
    374    376    375    388   5     0.00000     9.20480     0.00000  0.0
    375    377    376    378   5     0.00000    33.47200     0.00000  0.0
    376    389    377    394   5     0.00000     8.36800     0.00000  0.0
    376    379    378    390   5     0.00000     9.20480     0.00000  0.0
    373    378    379    391   5     0.00000     9.20480     0.00000  0.0
    370    382    381    392   5     0.00000     9.20480     0.00000  0.0
    367    381    382    393   5     0.00000     9.20480     0.00000  0.0
    377    395    394    411   5     0.00000    87.86400     0.00000  0.0
    394    396    395    410   5     0.00000    33.47200     0.00000  0.0
    395    397    396    412   5     0.00000     9.20480     0.00000  0.0
    396    398    397    413   5     0.00000     9.20480     0.00000  0.0
    397    399    398    409   5     0.00000    33.47200     0.00000  0.0
    398    400    399    408   5     0.00000    87.86400     0.00000  0.0
    399    401    400    414   5     0.00000     8.36800     0.00000  0.0
    400    402    401    407   5     0.00000    33.47200     0.00000  0.0
    401    403    402    415   5     0.00000     9.20480     0.00000  0.0
    402    404    403    416   5     0.00000     9.20480     0.00000  0.0
    403    405    404    406   5     0.00000    33.47200     0.00000  0.0
    404    417    405    422   5     0.00000     8.36800     0.00000  0.0
    404    407    406    418   5     0.00000     9.20480     0.00000  0.0
    401    406    407    419   5     0.00000     9.20480     0.00000  0.0
    398    410    409    420   5     0.00000     9.20480     0.00000  0.0
    395    409    410    421   5     0.00000     9.20480     0.00000  0.0
    405    423    422    439   5     0.00000    87.86400     0.00000  0.0
    422    424    423    438   5     0.00000    33.47200     0.00000  0.0
    423    425    424    440   5     0.00000     9.20480     0.00000  0.0
    424    426    425    441   5     0.00000     9.20480     0.00000  0.0
    425    427    426    437   5     0.00000    33.47200     0.00000  0.0
    426    428    427    436   5     0.00000    87.86400     0.00000  0.0
    427    429    428    442   5     0.00000     8.36800     0.00000  0.0
    428    430    429    435   5     0.00000    33.47200     0.00000  0.0
    429    431    430    443   5     0.00000     9.20480     0.00000  0.0
    430    432    431    444   5     0.00000     9.20480     0.00000  0.0
    431    433    432    434   5     0.00000    33.47200     0.00000  0.0
    432    445    433    450   5     0.00000     8.36800     0.00000  0.0
    432    435    434    446   5     0.00000     9.20480     0.00000  0.0
    429    434    435    447   5     0.00000     9.20480     0.00000  0.0
    426    438    437    448   5     0.00000     9.20480     0.00000  0.0
    423    437    438    449   5     0.00000     9.20480     0.00000  0.0
    433    451    450    467   5     0.00000    87.86400     0.00000  0.0
    450    452    451    466   5     0.00000    33.47200     0.00000  0.0
    451    453    452    468   5     0.00000     9.20480     0.00000  0.0
    452    454    453    469   5     0.00000     9.20480     0.00000  0.0
    453    455    454    465   5     0.00000    33.47200     0.00000  0.0
    454    456    455    464   5     0.00000    87.86400     0.00000  0.0
    455    457    456    470   5     0.00000     8.36800     0.00000  0.0
    456    458    457    463   5     0.00000    33.47200     0.00000  0.0
    457    459    458    471   5     0.00000     9.20480     0.00000  0.0
    458    460    459    472   5     0.00000     9.20480     0.00000  0.0
    459    461    460    462   5     0.00000    33.47200     0.00000  0.0
    460    473    461    478   5     0.00000     8.36800     0.00000  0.0
    460    463    462    474   5     0.00000     9.20480     0.00000  0.0
    457    462    463    475   5     0.00000     9.20480     0.00000  0.0
    454    466    465    476   5     0.00000     9.20480     0.00000  0.0
    451    465    466    477   5     0.00000     9.20480     0.00000  0.0
    461    479    478    495   5     0.00000    87.86400     0.00000  0.0
    478    480    479    494   5     0.00000    33.47200     0.00000  0.0
    479    481    480    496   5     0.00000     9.20480     0.00000  0.0
    480    482    481    497   5     0.00000     9.20480     0.00000  0.0
    481    483    482    493   5     0.00000    33.47200     0.00000  0.0
    482    484    483    492   5     0.00000    87.86400     0.00000  0.0
    483    485    484    498   5     0.00000     8.36800     0.00000  0.0
    484    486    485    491   5     0.00000    33.47200     0.00000  0.0
    485    487    486    499   5     0.00000     9.20480     0.00000  0.0
    486    488    487    500   5     0.00000     9.20480     0.00000  0.0
    487    489    488    490   5     0.00000    33.47200     0.00000  0.0
    488    501    489    506   5     0.00000     8.36800     0.00000  0.0
    488    491    490    502   5     0.00000     9.20480     0.00000  0.0
    485    490    491    503   5     0.00000     9.20480     0.00000  0.0
    482    494    493    504   5     0.00000     9.20480     0.00000  0.0
    479    493    494    505   5     0.00000     9.20480     0.00000  0.0
    489    507    506    523   5     0.00000    87.86400     0.00000  0.0
    506    508    507    522   5     0.00000    33.47200     0.00000  0.0
    507    509    508    524   5     0.00000     9.20480     0.00000  0.0
    508    510    509    525   5     0.00000     9.20480     0.00000  0.0
    509    511    510    521   5     0.00000    33.47200     0.00000  0.0
    510    512    511    520   5     0.00000    87.86400     0.00000  0.0
    511    513    512    526   5     0.00000     8.36800     0.00000  0.0
    512    514    513    519   5     0.00000    33.47200     0.00000  0.0
    513    515    514    527   5     0.00000     9.20480     0.00000  0.0
    514    516    515    528   5     0.00000     9.20480     0.00000  0.0
    515    517    516    518   5     0.00000    33.47200     0.00000  0.0
    516    529    517    534   5     0.00000     8.36800     0.00000  0.0
    516    519    518    530   5     0.00000     9.20480     0.00000  0.0
    513    518    519    531   5     0.00000     9.20480     0.00000  0.0
    510    522    521    532   5     0.00000     9.20480     0.00000  0.0
    507    521    522    533   5     0.00000     9.20480     0.00000  0.0
    517    535    534    551   5     0.00000    87.86400     0.00000  0.0
    534    536    535    550   5     0.00000    33.47200     0.00000  0.0
    535    537    536    552   5     0.00000     9.20480     0.00000  0.0
    536    538    537    553   5     0.00000     9.20480     0.00000  0.0
    537    539    538    549   5     0.00000    33.47200     0.00000  0.0
    538    540    539    548   5     0.00000    87.86400     0.00000  0.0
    539    541    540    554   5     0.00000     8.36800     0.00000  0.0
    540    542    541    547   5     0.00000    33.47200     0.00000  0.0
    541    543    542    555   5     0.00000     9.20480     0.00000  0.0
    542    544    543    556   5     0.00000     9.20480     0.00000  0.0
    543    545    544    546   5     0.00000    33.47200     0.00000  0.0
    544    557    545    562   5     0.00000     8.36800     0.00000  0.0
    544    547    546    558   5     0.00000     9.20480     0.00000  0.0
    541    546    547    559   5     0.00000     9.20480     0.00000  0.0
    538    550    549    560   5     0.00000     9.20480     0.00000  0.0
    535    549    550    561   5     0.00000     9.20480     0.00000  0.0
