;
; Gromacs include topology (itp) file.
; For Molecular Group XYZ
; Force field scheme: opls2005
; Produced from DL_FIELD v4.11
;


[ moleculetype ]
; name    nrexcl
XYZ    3

[ atoms ]
; nr   type   resnr   residu    atom    cgnr    charge    mass
    1        CT    1  MOL      C1     1  -0.1800000   12.0115
    2        CT    1  MOL      C2     2   0.0000000   12.0115
    3        CT    1  MOL      C3     3  -0.1800000   12.0115
    4       CO4    1  MOL      C4     4   0.5100000   12.0115
    5         O    1  MOL      O5     5  -0.4300000   15.9994
    6       OES    1  MOL      O6     6  -0.3300000   15.9994
    7        CT    1  MOL      C7     7   0.1600000   12.0115
    8        HC    1  MOL      H8     8   0.0600000    1.0080
    9        HC    1  MOL      H9     9   0.0600000    1.0080
   10        HC    1  MOL     H10    10   0.0600000    1.0080
   11        HC    1  MOL     H11    11   0.0600000    1.0080
   12        HC    1  MOL     H12    12   0.0600000    1.0080
   13       HAE    1  MOL     H13    13   0.0300000    1.0080
   14       HAE    1  MOL     H14    14   0.0300000    1.0080
   15       HAE    1  MOL     H15    15   0.0300000    1.0080
   16        HC    1  MOL     H16    16   0.0600000    1.0080
   17        CT    1  MOL     C17    17  -0.1200000   12.0115
   18        CT    1  MOL     C18    18   0.0000000   12.0115
   19        CT    1  MOL     C19    19  -0.1800000   12.0115
   20       CO4    1  MOL     C20    20   0.5100000   12.0115
   21         O    1  MOL     O21    21  -0.4300000   15.9994
   22       OES    1  MOL     O22    22  -0.3300000   15.9994
   23        CT    1  MOL     C23    23   0.1600000   12.0115
   24        HC    1  MOL     H24    24   0.0600000    1.0080
   25        HC    1  MOL     H25    25   0.0600000    1.0080
   26        HC    1  MOL     H26    26   0.0600000    1.0080
   27        HC    1  MOL     H27    27   0.0600000    1.0080
   28        HC    1  MOL     H28    28   0.0600000    1.0080
   29       HAE    1  MOL     H29    29   0.0300000    1.0080
   30       HAE    1  MOL     H30    30   0.0300000    1.0080
   31       HAE    1  MOL     H31    31   0.0300000    1.0080
   32        CT    1  MOL     C32    32  -0.1200000   12.0115
   33        CT    1  MOL     C33    33   0.0000000   12.0115
   34        CT    1  MOL     C34    34  -0.1800000   12.0115
   35       CO4    1  MOL     C35    35   0.5100000   12.0115
   36         O    1  MOL     O36    36  -0.4300000   15.9994
   37       OES    1  MOL     O37    37  -0.3300000   15.9994
   38        CT    1  MOL     C38    38   0.1600000   12.0115
   39        HC    1  MOL     H39    39   0.0600000    1.0080
   40        HC    1  MOL     H40    40   0.0600000    1.0080
   41        HC    1  MOL     H41    41   0.0600000    1.0080
   42        HC    1  MOL     H42    42   0.0600000    1.0080
   43        HC    1  MOL     H43    43   0.0600000    1.0080
   44       HAE    1  MOL     H44    44   0.0300000    1.0080
   45       HAE    1  MOL     H45    45   0.0300000    1.0080
   46       HAE    1  MOL     H46    46   0.0300000    1.0080
   47        CT    1  MOL     C47    47  -0.1200000   12.0115
   48        CT    1  MOL     C48    48   0.0000000   12.0115
   49        CT    1  MOL     C49    49  -0.1800000   12.0115
   50       CO4    1  MOL     C50    50   0.5100000   12.0115
   51         O    1  MOL     O51    51  -0.4300000   15.9994
   52       OES    1  MOL     O52    52  -0.3300000   15.9994
   53        CT    1  MOL     C53    53   0.1600000   12.0115
   54        HC    1  MOL     H54    54   0.0600000    1.0080
   55        HC    1  MOL     H55    55   0.0600000    1.0080
   56        HC    1  MOL     H56    56   0.0600000    1.0080
   57        HC    1  MOL     H57    57   0.0600000    1.0080
   58        HC    1  MOL     H58    58   0.0600000    1.0080
   59       HAE    1  MOL     H59    59   0.0300000    1.0080
   60       HAE    1  MOL     H60    60   0.0300000    1.0080
   61       HAE    1  MOL     H61    61   0.0300000    1.0080
   62        CT    1  MOL     C62    62  -0.1200000   12.0115
   63        CT    1  MOL     C63    63   0.0000000   12.0115
   64        CT    1  MOL     C64    64  -0.1800000   12.0115
   65       CO4    1  MOL     C65    65   0.5100000   12.0115
   66         O    1  MOL     O66    66  -0.4300000   15.9994
   67       OES    1  MOL     O67    67  -0.3300000   15.9994
   68        CT    1  MOL     C68    68   0.1600000   12.0115
   69        HC    1  MOL     H69    69   0.0600000    1.0080
   70        HC    1  MOL     H70    70   0.0600000    1.0080
   71        HC    1  MOL     H71    71   0.0600000    1.0080
   72        HC    1  MOL     H72    72   0.0600000    1.0080
   73        HC    1  MOL     H73    73   0.0600000    1.0080
   74       HAE    1  MOL     H74    74   0.0300000    1.0080
   75       HAE    1  MOL     H75    75   0.0300000    1.0080
   76       HAE    1  MOL     H76    76   0.0300000    1.0080
   77        CT    1  MOL     C77    77  -0.1200000   12.0115
   78        CT    1  MOL     C78    78   0.0000000   12.0115
   79        CT    1  MOL     C79    79  -0.1800000   12.0115
   80       CO4    1  MOL     C80    80   0.5100000   12.0115
   81         O    1  MOL     O81    81  -0.4300000   15.9994
   82       OES    1  MOL     O82    82  -0.3300000   15.9994
   83        CT    1  MOL     C83    83   0.1600000   12.0115
   84        HC    1  MOL     H84    84   0.0600000    1.0080
   85        HC    1  MOL     H85    85   0.0600000    1.0080
   86        HC    1  MOL     H86    86   0.0600000    1.0080
   87        HC    1  MOL     H87    87   0.0600000    1.0080
   88        HC    1  MOL     H88    88   0.0600000    1.0080
   89       HAE    1  MOL     H89    89   0.0300000    1.0080
   90       HAE    1  MOL     H90    90   0.0300000    1.0080
   91       HAE    1  MOL     H91    91   0.0300000    1.0080
   92        CT    1  MOL     C92    92  -0.1200000   12.0115
   93        CT    1  MOL     C93    93   0.0000000   12.0115
   94        CT    1  MOL     C94    94  -0.1800000   12.0115
   95       CO4    1  MOL     C95    95   0.5100000   12.0115
   96         O    1  MOL     O96    96  -0.4300000   15.9994
   97       OES    1  MOL     O97    97  -0.3300000   15.9994
   98        CT    1  MOL     C98    98   0.1600000   12.0115
   99        HC    1  MOL     H99    99   0.0600000    1.0080
  100        HC    1  MOL    H100   100   0.0600000    1.0080
  101        HC    1  MOL    H101   101   0.0600000    1.0080
  102        HC    1  MOL    H102   102   0.0600000    1.0080
  103        HC    1  MOL    H103   103   0.0600000    1.0080
  104       HAE    1  MOL    H104   104   0.0300000    1.0080
  105       HAE    1  MOL    H105   105   0.0300000    1.0080
  106       HAE    1  MOL    H106   106   0.0300000    1.0080
  107        CT    1  MOL    C107   107  -0.1200000   12.0115
  108        CT    1  MOL    C108   108   0.0000000   12.0115
  109        CT    1  MOL    C109   109  -0.1800000   12.0115
  110       CO4    1  MOL    C110   110   0.5100000   12.0115
  111         O    1  MOL    O111   111  -0.4300000   15.9994
  112       OES    1  MOL    O112   112  -0.3300000   15.9994
  113        CT    1  MOL    C113   113   0.1600000   12.0115
  114        HC    1  MOL    H114   114   0.0600000    1.0080
  115        HC    1  MOL    H115   115   0.0600000    1.0080
  116        HC    1  MOL    H116   116   0.0600000    1.0080
  117        HC    1  MOL    H117   117   0.0600000    1.0080
  118        HC    1  MOL    H118   118   0.0600000    1.0080
  119       HAE    1  MOL    H119   119   0.0300000    1.0080
  120       HAE    1  MOL    H120   120   0.0300000    1.0080
  121       HAE    1  MOL    H121   121   0.0300000    1.0080
  122        CT    1  MOL    C122   122  -0.1200000   12.0115
  123        CT    1  MOL    C123   123   0.0000000   12.0115
  124        CT    1  MOL    C124   124  -0.1800000   12.0115
  125       CO4    1  MOL    C125   125   0.5100000   12.0115
  126         O    1  MOL    O126   126  -0.4300000   15.9994
  127       OES    1  MOL    O127   127  -0.3300000   15.9994
  128        CT    1  MOL    C128   128   0.1600000   12.0115
  129        HC    1  MOL    H129   129   0.0600000    1.0080
  130        HC    1  MOL    H130   130   0.0600000    1.0080
  131        HC    1  MOL    H131   131   0.0600000    1.0080
  132        HC    1  MOL    H132   132   0.0600000    1.0080
  133        HC    1  MOL    H133   133   0.0600000    1.0080
  134       HAE    1  MOL    H134   134   0.0300000    1.0080
  135       HAE    1  MOL    H135   135   0.0300000    1.0080
  136       HAE    1  MOL    H136   136   0.0300000    1.0080
  137        CT    1  MOL    C137   137  -0.1200000   12.0115
  138        CT    1  MOL    C138   138   0.0000000   12.0115
  139        CT    1  MOL    C139   139  -0.1800000   12.0115
  140       CO4    1  MOL    C140   140   0.5100000   12.0115
  141         O    1  MOL    O141   141  -0.4300000   15.9994
  142       OES    1  MOL    O142   142  -0.3300000   15.9994
  143        CT    1  MOL    C143   143   0.1600000   12.0115
  144        HC    1  MOL    H144   144   0.0600000    1.0080
  145        HC    1  MOL    H145   145   0.0600000    1.0080
  146        HC    1  MOL    H146   146   0.0600000    1.0080
  147        HC    1  MOL    H147   147   0.0600000    1.0080
  148        HC    1  MOL    H148   148   0.0600000    1.0080
  149       HAE    1  MOL    H149   149   0.0300000    1.0080
  150       HAE    1  MOL    H150   150   0.0300000    1.0080
  151       HAE    1  MOL    H151   151   0.0300000    1.0080
  152        CT    1  MOL    C152   152  -0.1200000   12.0115
  153        CT    1  MOL    C153   153   0.0000000   12.0115
  154        CT    1  MOL    C154   154  -0.1800000   12.0115
  155       CO4    1  MOL    C155   155   0.5100000   12.0115
  156         O    1  MOL    O156   156  -0.4300000   15.9994
  157       OES    1  MOL    O157   157  -0.3300000   15.9994
  158        CT    1  MOL    C158   158   0.1600000   12.0115
  159        HC    1  MOL    H159   159   0.0600000    1.0080
  160        HC    1  MOL    H160   160   0.0600000    1.0080
  161        HC    1  MOL    H161   161   0.0600000    1.0080
  162        HC    1  MOL    H162   162   0.0600000    1.0080
  163        HC    1  MOL    H163   163   0.0600000    1.0080
  164       HAE    1  MOL    H164   164   0.0300000    1.0080
  165       HAE    1  MOL    H165   165   0.0300000    1.0080
  166       HAE    1  MOL    H166   166   0.0300000    1.0080
  167        CT    1  MOL    C167   167  -0.1200000   12.0115
  168        CT    1  MOL    C168   168   0.0000000   12.0115
  169        CT    1  MOL    C169   169  -0.1800000   12.0115
  170       CO4    1  MOL    C170   170   0.5100000   12.0115
  171         O    1  MOL    O171   171  -0.4300000   15.9994
  172       OES    1  MOL    O172   172  -0.3300000   15.9994
  173        CT    1  MOL    C173   173   0.1600000   12.0115
  174        HC    1  MOL    H174   174   0.0600000    1.0080
  175        HC    1  MOL    H175   175   0.0600000    1.0080
  176        HC    1  MOL    H176   176   0.0600000    1.0080
  177        HC    1  MOL    H177   177   0.0600000    1.0080
  178        HC    1  MOL    H178   178   0.0600000    1.0080
  179       HAE    1  MOL    H179   179   0.0300000    1.0080
  180       HAE    1  MOL    H180   180   0.0300000    1.0080
  181       HAE    1  MOL    H181   181   0.0300000    1.0080
  182        CT    1  MOL    C182   182  -0.1200000   12.0115
  183        CT    1  MOL    C183   183   0.0000000   12.0115
  184        CT    1  MOL    C184   184  -0.1800000   12.0115
  185       CO4    1  MOL    C185   185   0.5100000   12.0115
  186         O    1  MOL    O186   186  -0.4300000   15.9994
  187       OES    1  MOL    O187   187  -0.3300000   15.9994
  188        CT    1  MOL    C188   188   0.1600000   12.0115
  189        HC    1  MOL    H189   189   0.0600000    1.0080
  190        HC    1  MOL    H190   190   0.0600000    1.0080
  191        HC    1  MOL    H191   191   0.0600000    1.0080
  192        HC    1  MOL    H192   192   0.0600000    1.0080
  193        HC    1  MOL    H193   193   0.0600000    1.0080
  194       HAE    1  MOL    H194   194   0.0300000    1.0080
  195       HAE    1  MOL    H195   195   0.0300000    1.0080
  196       HAE    1  MOL    H196   196   0.0300000    1.0080
  197        CT    1  MOL    C197   197  -0.1200000   12.0115
  198        CT    1  MOL    C198   198   0.0000000   12.0115
  199        CT    1  MOL    C199   199  -0.1800000   12.0115
  200       CO4    1  MOL    C200   200   0.5100000   12.0115
  201         O    1  MOL    O201   201  -0.4300000   15.9994
  202       OES    1  MOL    O202   202  -0.3300000   15.9994
  203        CT    1  MOL    C203   203   0.1600000   12.0115
  204        HC    1  MOL    H204   204   0.0600000    1.0080
  205        HC    1  MOL    H205   205   0.0600000    1.0080
  206        HC    1  MOL    H206   206   0.0600000    1.0080
  207        HC    1  MOL    H207   207   0.0600000    1.0080
  208        HC    1  MOL    H208   208   0.0600000    1.0080
  209       HAE    1  MOL    H209   209   0.0300000    1.0080
  210       HAE    1  MOL    H210   210   0.0300000    1.0080
  211       HAE    1  MOL    H211   211   0.0300000    1.0080
  212        CT    1  MOL    C212   212  -0.1200000   12.0115
  213        CT    1  MOL    C213   213   0.0000000   12.0115
  214        CT    1  MOL    C214   214  -0.1800000   12.0115
  215       CO4    1  MOL    C215   215   0.5100000   12.0115
  216         O    1  MOL    O216   216  -0.4300000   15.9994
  217       OES    1  MOL    O217   217  -0.3300000   15.9994
  218        CT    1  MOL    C218   218   0.1600000   12.0115
  219        HC    1  MOL    H219   219   0.0600000    1.0080
  220        HC    1  MOL    H220   220   0.0600000    1.0080
  221        HC    1  MOL    H221   221   0.0600000    1.0080
  222        HC    1  MOL    H222   222   0.0600000    1.0080
  223        HC    1  MOL    H223   223   0.0600000    1.0080
  224       HAE    1  MOL    H224   224   0.0300000    1.0080
  225       HAE    1  MOL    H225   225   0.0300000    1.0080
  226       HAE    1  MOL    H226   226   0.0300000    1.0080
  227        CT    1  MOL    C227   227  -0.1200000   12.0115
  228        CT    1  MOL    C228   228   0.0000000   12.0115
  229        CT    1  MOL    C229   229  -0.1800000   12.0115
  230       CO4    1  MOL    C230   230   0.5100000   12.0115
  231         O    1  MOL    O231   231  -0.4300000   15.9994
  232       OES    1  MOL    O232   232  -0.3300000   15.9994
  233        CT    1  MOL    C233   233   0.1600000   12.0115
  234        HC    1  MOL    H234   234   0.0600000    1.0080
  235        HC    1  MOL    H235   235   0.0600000    1.0080
  236        HC    1  MOL    H236   236   0.0600000    1.0080
  237        HC    1  MOL    H237   237   0.0600000    1.0080
  238        HC    1  MOL    H238   238   0.0600000    1.0080
  239       HAE    1  MOL    H239   239   0.0300000    1.0080
  240       HAE    1  MOL    H240   240   0.0300000    1.0080
  241       HAE    1  MOL    H241   241   0.0300000    1.0080
  242        CT    1  MOL    C242   242  -0.1200000   12.0115
  243        CT    1  MOL    C243   243   0.0000000   12.0115
  244        CT    1  MOL    C244   244  -0.1800000   12.0115
  245       CO4    1  MOL    C245   245   0.5100000   12.0115
  246         O    1  MOL    O246   246  -0.4300000   15.9994
  247       OES    1  MOL    O247   247  -0.3300000   15.9994
  248        CT    1  MOL    C248   248   0.1600000   12.0115
  249        HC    1  MOL    H249   249   0.0600000    1.0080
  250        HC    1  MOL    H250   250   0.0600000    1.0080
  251        HC    1  MOL    H251   251   0.0600000    1.0080
  252        HC    1  MOL    H252   252   0.0600000    1.0080
  253        HC    1  MOL    H253   253   0.0600000    1.0080
  254       HAE    1  MOL    H254   254   0.0300000    1.0080
  255       HAE    1  MOL    H255   255   0.0300000    1.0080
  256       HAE    1  MOL    H256   256   0.0300000    1.0080
  257        CT    1  MOL    C257   257  -0.1200000   12.0115
  258        CT    1  MOL    C258   258   0.0000000   12.0115
  259        CT    1  MOL    C259   259  -0.1800000   12.0115
  260       CO4    1  MOL    C260   260   0.5100000   12.0115
  261         O    1  MOL    O261   261  -0.4300000   15.9994
  262       OES    1  MOL    O262   262  -0.3300000   15.9994
  263        CT    1  MOL    C263   263   0.1600000   12.0115
  264        HC    1  MOL    H264   264   0.0600000    1.0080
  265        HC    1  MOL    H265   265   0.0600000    1.0080
  266        HC    1  MOL    H266   266   0.0600000    1.0080
  267        HC    1  MOL    H267   267   0.0600000    1.0080
  268        HC    1  MOL    H268   268   0.0600000    1.0080
  269       HAE    1  MOL    H269   269   0.0300000    1.0080
  270       HAE    1  MOL    H270   270   0.0300000    1.0080
  271       HAE    1  MOL    H271   271   0.0300000    1.0080
  272        CT    1  MOL    C272   272  -0.1200000   12.0115
  273        CT    1  MOL    C273   273   0.0000000   12.0115
  274        CT    1  MOL    C274   274  -0.1800000   12.0115
  275       CO4    1  MOL    C275   275   0.5100000   12.0115
  276         O    1  MOL    O276   276  -0.4300000   15.9994
  277       OES    1  MOL    O277   277  -0.3300000   15.9994
  278        CT    1  MOL    C278   278   0.1600000   12.0115
  279        HC    1  MOL    H279   279   0.0600000    1.0080
  280        HC    1  MOL    H280   280   0.0600000    1.0080
  281        HC    1  MOL    H281   281   0.0600000    1.0080
  282        HC    1  MOL    H282   282   0.0600000    1.0080
  283        HC    1  MOL    H283   283   0.0600000    1.0080
  284       HAE    1  MOL    H284   284   0.0300000    1.0080
  285       HAE    1  MOL    H285   285   0.0300000    1.0080
  286       HAE    1  MOL    H286   286   0.0300000    1.0080
  287        CT    1  MOL    C287   287  -0.1200000   12.0115
  288        CT    1  MOL    C288   288  -0.0600000   12.0115
  289        CT    1  MOL    C289   289  -0.1800000   12.0115
  290       CO4    1  MOL    C290   290   0.5100000   12.0115
  291         O    1  MOL    O291   291  -0.4300000   15.9994
  292       OES    1  MOL    O292   292  -0.3300000   15.9994
  293        CT    1  MOL    C293   293   0.1600000   12.0115
  294        HC    1  MOL    H294   294   0.0600000    1.0080
  295        HC    1  MOL    H295   295   0.0600000    1.0080
  296        HC    1  MOL    H296   296   0.0600000    1.0080
  297        HC    1  MOL    H297   297   0.0600000    1.0080
  298        HC    1  MOL    H298   298   0.0600000    1.0080
  299       HAE    1  MOL    H299   299   0.0300000    1.0080
  300       HAE    1  MOL    H300   300   0.0300000    1.0080
  301       HAE    1  MOL    H301   301   0.0300000    1.0080
  302       HAE    1  MOL    H302   302   0.0600000    1.0080

[ bonds ]
      1      2   1      0.1529 224262.4000
      1      8   1      0.1090 284512.0000
      1      9   1      0.1090 284512.0000
      1     16   1      0.1090 284512.0000
      2      3   1      0.1529 224262.4000
      2      4   1      0.1522 265265.6000
      2     17   1      0.1529 224262.4000
      3     10   1      0.1090 284512.0000
      3     11   1      0.1090 284512.0000
      3     12   1      0.1090 284512.0000
      4      5   1      0.1229 476976.0000
      4      6   1      0.1327 179075.2000
      6      7   1      0.1410 267776.0000
      7     13   1      0.1090 284512.0000
      7     14   1      0.1090 284512.0000
      7     15   1      0.1090 284512.0000
     17     18   1      0.1529 224262.4000
     17     24   1      0.1090 284512.0000
     17     25   1      0.1090 284512.0000
     18     19   1      0.1529 224262.4000
     18     20   1      0.1522 265265.6000
     18     32   1      0.1529 224262.4000
     19     26   1      0.1090 284512.0000
     19     27   1      0.1090 284512.0000
     19     28   1      0.1090 284512.0000
     20     21   1      0.1229 476976.0000
     20     22   1      0.1327 179075.2000
     22     23   1      0.1410 267776.0000
     23     29   1      0.1090 284512.0000
     23     30   1      0.1090 284512.0000
     23     31   1      0.1090 284512.0000
     32     33   1      0.1529 224262.4000
     32     39   1      0.1090 284512.0000
     32     40   1      0.1090 284512.0000
     33     34   1      0.1529 224262.4000
     33     35   1      0.1522 265265.6000
     33     47   1      0.1529 224262.4000
     34     41   1      0.1090 284512.0000
     34     42   1      0.1090 284512.0000
     34     43   1      0.1090 284512.0000
     35     36   1      0.1229 476976.0000
     35     37   1      0.1327 179075.2000
     37     38   1      0.1410 267776.0000
     38     44   1      0.1090 284512.0000
     38     45   1      0.1090 284512.0000
     38     46   1      0.1090 284512.0000
     47     48   1      0.1529 224262.4000
     47     54   1      0.1090 284512.0000
     47     55   1      0.1090 284512.0000
     48     49   1      0.1529 224262.4000
     48     50   1      0.1522 265265.6000
     48     62   1      0.1529 224262.4000
     49     56   1      0.1090 284512.0000
     49     57   1      0.1090 284512.0000
     49     58   1      0.1090 284512.0000
     50     51   1      0.1229 476976.0000
     50     52   1      0.1327 179075.2000
     52     53   1      0.1410 267776.0000
     53     59   1      0.1090 284512.0000
     53     60   1      0.1090 284512.0000
     53     61   1      0.1090 284512.0000
     62     63   1      0.1529 224262.4000
     62     69   1      0.1090 284512.0000
     62     70   1      0.1090 284512.0000
     63     64   1      0.1529 224262.4000
     63     65   1      0.1522 265265.6000
     63     77   1      0.1529 224262.4000
     64     71   1      0.1090 284512.0000
     64     72   1      0.1090 284512.0000
     64     73   1      0.1090 284512.0000
     65     66   1      0.1229 476976.0000
     65     67   1      0.1327 179075.2000
     67     68   1      0.1410 267776.0000
     68     74   1      0.1090 284512.0000
     68     75   1      0.1090 284512.0000
     68     76   1      0.1090 284512.0000
     77     78   1      0.1529 224262.4000
     77     84   1      0.1090 284512.0000
     77     85   1      0.1090 284512.0000
     78     79   1      0.1529 224262.4000
     78     80   1      0.1522 265265.6000
     78     92   1      0.1529 224262.4000
     79     86   1      0.1090 284512.0000
     79     87   1      0.1090 284512.0000
     79     88   1      0.1090 284512.0000
     80     81   1      0.1229 476976.0000
     80     82   1      0.1327 179075.2000
     82     83   1      0.1410 267776.0000
     83     89   1      0.1090 284512.0000
     83     90   1      0.1090 284512.0000
     83     91   1      0.1090 284512.0000
     92     93   1      0.1529 224262.4000
     92     99   1      0.1090 284512.0000
     92    100   1      0.1090 284512.0000
     93     94   1      0.1529 224262.4000
     93     95   1      0.1522 265265.6000
     93    107   1      0.1529 224262.4000
     94    101   1      0.1090 284512.0000
     94    102   1      0.1090 284512.0000
     94    103   1      0.1090 284512.0000
     95     96   1      0.1229 476976.0000
     95     97   1      0.1327 179075.2000
     97     98   1      0.1410 267776.0000
     98    104   1      0.1090 284512.0000
     98    105   1      0.1090 284512.0000
     98    106   1      0.1090 284512.0000
    107    108   1      0.1529 224262.4000
    107    114   1      0.1090 284512.0000
    107    115   1      0.1090 284512.0000
    108    109   1      0.1529 224262.4000
    108    110   1      0.1522 265265.6000
    108    122   1      0.1529 224262.4000
    109    116   1      0.1090 284512.0000
    109    117   1      0.1090 284512.0000
    109    118   1      0.1090 284512.0000
    110    111   1      0.1229 476976.0000
    110    112   1      0.1327 179075.2000
    112    113   1      0.1410 267776.0000
    113    119   1      0.1090 284512.0000
    113    120   1      0.1090 284512.0000
    113    121   1      0.1090 284512.0000
    122    123   1      0.1529 224262.4000
    122    129   1      0.1090 284512.0000
    122    130   1      0.1090 284512.0000
    123    124   1      0.1529 224262.4000
    123    125   1      0.1522 265265.6000
    123    137   1      0.1529 224262.4000
    124    131   1      0.1090 284512.0000
    124    132   1      0.1090 284512.0000
    124    133   1      0.1090 284512.0000
    125    126   1      0.1229 476976.0000
    125    127   1      0.1327 179075.2000
    127    128   1      0.1410 267776.0000
    128    134   1      0.1090 284512.0000
    128    135   1      0.1090 284512.0000
    128    136   1      0.1090 284512.0000
    137    138   1      0.1529 224262.4000
    137    144   1      0.1090 284512.0000
    137    145   1      0.1090 284512.0000
    138    139   1      0.1529 224262.4000
    138    140   1      0.1522 265265.6000
    138    152   1      0.1529 224262.4000
    139    146   1      0.1090 284512.0000
    139    147   1      0.1090 284512.0000
    139    148   1      0.1090 284512.0000
    140    141   1      0.1229 476976.0000
    140    142   1      0.1327 179075.2000
    142    143   1      0.1410 267776.0000
    143    149   1      0.1090 284512.0000
    143    150   1      0.1090 284512.0000
    143    151   1      0.1090 284512.0000
    152    153   1      0.1529 224262.4000
    152    159   1      0.1090 284512.0000
    152    160   1      0.1090 284512.0000
    153    154   1      0.1529 224262.4000
    153    155   1      0.1522 265265.6000
    153    167   1      0.1529 224262.4000
    154    161   1      0.1090 284512.0000
    154    162   1      0.1090 284512.0000
    154    163   1      0.1090 284512.0000
    155    156   1      0.1229 476976.0000
    155    157   1      0.1327 179075.2000
    157    158   1      0.1410 267776.0000
    158    164   1      0.1090 284512.0000
    158    165   1      0.1090 284512.0000
    158    166   1      0.1090 284512.0000
    167    168   1      0.1529 224262.4000
    167    174   1      0.1090 284512.0000
    167    175   1      0.1090 284512.0000
    168    169   1      0.1529 224262.4000
    168    170   1      0.1522 265265.6000
    168    182   1      0.1529 224262.4000
    169    176   1      0.1090 284512.0000
    169    177   1      0.1090 284512.0000
    169    178   1      0.1090 284512.0000
    170    171   1      0.1229 476976.0000
    170    172   1      0.1327 179075.2000
    172    173   1      0.1410 267776.0000
    173    179   1      0.1090 284512.0000
    173    180   1      0.1090 284512.0000
    173    181   1      0.1090 284512.0000
    182    183   1      0.1529 224262.4000
    182    189   1      0.1090 284512.0000
    182    190   1      0.1090 284512.0000
    183    184   1      0.1529 224262.4000
    183    185   1      0.1522 265265.6000
    183    197   1      0.1529 224262.4000
    184    191   1      0.1090 284512.0000
    184    192   1      0.1090 284512.0000
    184    193   1      0.1090 284512.0000
    185    186   1      0.1229 476976.0000
    185    187   1      0.1327 179075.2000
    187    188   1      0.1410 267776.0000
    188    194   1      0.1090 284512.0000
    188    195   1      0.1090 284512.0000
    188    196   1      0.1090 284512.0000
    197    198   1      0.1529 224262.4000
    197    204   1      0.1090 284512.0000
    197    205   1      0.1090 284512.0000
    198    199   1      0.1529 224262.4000
    198    200   1      0.1522 265265.6000
    198    212   1      0.1529 224262.4000
    199    206   1      0.1090 284512.0000
    199    207   1      0.1090 284512.0000
    199    208   1      0.1090 284512.0000
    200    201   1      0.1229 476976.0000
    200    202   1      0.1327 179075.2000
    202    203   1      0.1410 267776.0000
    203    209   1      0.1090 284512.0000
    203    210   1      0.1090 284512.0000
    203    211   1      0.1090 284512.0000
    212    213   1      0.1529 224262.4000
    212    219   1      0.1090 284512.0000
    212    220   1      0.1090 284512.0000
    213    214   1      0.1529 224262.4000
    213    215   1      0.1522 265265.6000
    213    227   1      0.1529 224262.4000
    214    221   1      0.1090 284512.0000
    214    222   1      0.1090 284512.0000
    214    223   1      0.1090 284512.0000
    215    216   1      0.1229 476976.0000
    215    217   1      0.1327 179075.2000
    217    218   1      0.1410 267776.0000
    218    224   1      0.1090 284512.0000
    218    225   1      0.1090 284512.0000
    218    226   1      0.1090 284512.0000
    227    228   1      0.1529 224262.4000
    227    234   1      0.1090 284512.0000
    227    235   1      0.1090 284512.0000
    228    229   1      0.1529 224262.4000
    228    230   1      0.1522 265265.6000
    228    242   1      0.1529 224262.4000
    229    236   1      0.1090 284512.0000
    229    237   1      0.1090 284512.0000
    229    238   1      0.1090 284512.0000
    230    231   1      0.1229 476976.0000
    230    232   1      0.1327 179075.2000
    232    233   1      0.1410 267776.0000
    233    239   1      0.1090 284512.0000
    233    240   1      0.1090 284512.0000
    233    241   1      0.1090 284512.0000
    242    243   1      0.1529 224262.4000
    242    249   1      0.1090 284512.0000
    242    250   1      0.1090 284512.0000
    243    244   1      0.1529 224262.4000
    243    245   1      0.1522 265265.6000
    243    257   1      0.1529 224262.4000
    244    251   1      0.1090 284512.0000
    244    252   1      0.1090 284512.0000
    244    253   1      0.1090 284512.0000
    245    246   1      0.1229 476976.0000
    245    247   1      0.1327 179075.2000
    247    248   1      0.1410 267776.0000
    248    254   1      0.1090 284512.0000
    248    255   1      0.1090 284512.0000
    248    256   1      0.1090 284512.0000
    257    258   1      0.1529 224262.4000
    257    264   1      0.1090 284512.0000
    257    265   1      0.1090 284512.0000
    258    259   1      0.1529 224262.4000
    258    260   1      0.1522 265265.6000
    258    272   1      0.1529 224262.4000
    259    266   1      0.1090 284512.0000
    259    267   1      0.1090 284512.0000
    259    268   1      0.1090 284512.0000
    260    261   1      0.1229 476976.0000
    260    262   1      0.1327 179075.2000
    262    263   1      0.1410 267776.0000
    263    269   1      0.1090 284512.0000
    263    270   1      0.1090 284512.0000
    263    271   1      0.1090 284512.0000
    272    273   1      0.1529 224262.4000
    272    279   1      0.1090 284512.0000
    272    280   1      0.1090 284512.0000
    273    274   1      0.1529 224262.4000
    273    275   1      0.1522 265265.6000
    273    287   1      0.1529 224262.4000
    274    281   1      0.1090 284512.0000
    274    282   1      0.1090 284512.0000
    274    283   1      0.1090 284512.0000
    275    276   1      0.1229 476976.0000
    275    277   1      0.1327 179075.2000
    277    278   1      0.1410 267776.0000
    278    284   1      0.1090 284512.0000
    278    285   1      0.1090 284512.0000
    278    286   1      0.1090 284512.0000
    287    288   1      0.1529 224262.4000
    287    294   1      0.1090 284512.0000
    287    295   1      0.1090 284512.0000
    288    289   1      0.1529 224262.4000
    288    290   1      0.1522 265265.6000
    288    302   1      0.1090 284512.0000
    289    296   1      0.1090 284512.0000
    289    297   1      0.1090 284512.0000
    289    298   1      0.1090 284512.0000
    290    291   1      0.1229 476976.0000
    290    292   1      0.1327 179075.2000
    292    293   1      0.1410 267776.0000
    293    299   1      0.1090 284512.0000
    293    300   1      0.1090 284512.0000
    293    301   1      0.1090 284512.0000

[ pairs ]
; ai   aj   funct   fudge_QQ  charge_i   charge_j   c6    c12
      8      3   2   0.50000     0.0600000   -0.1800000   2.494471e-04  1.671101e-07
      8      4   2   0.50000     0.0600000    0.5100000   3.869820e-04  3.188634e-07
      8     17   2   0.50000     0.0600000   -0.1200000   2.494471e-04  1.671101e-07
      9      3   2   0.50000     0.0600000   -0.1800000   2.494471e-04  1.671101e-07
      9      4   2   0.50000     0.0600000    0.5100000   3.869820e-04  3.188634e-07
      9     17   2   0.50000     0.0600000   -0.1200000   2.494471e-04  1.671101e-07
     16      3   2   0.50000     0.0600000   -0.1800000   2.494471e-04  1.671101e-07
     16      4   2   0.50000     0.0600000    0.5100000   3.869820e-04  3.188634e-07
     16     17   2   0.50000     0.0600000   -0.1200000   2.494471e-04  1.671101e-07
      1     10   2   0.50000    -0.1800000    0.0600000   2.494471e-04  1.671101e-07
      1     11   2   0.50000    -0.1800000    0.0600000   2.494471e-04  1.671101e-07
      1     12   2   0.50000    -0.1800000    0.0600000   2.494471e-04  1.671101e-07
      4     10   2   0.50000     0.5100000    0.0600000   3.869820e-04  3.188634e-07
      4     11   2   0.50000     0.5100000    0.0600000   3.869820e-04  3.188634e-07
      4     12   2   0.50000     0.5100000    0.0600000   3.869820e-04  3.188634e-07
     17     10   2   0.50000    -0.1200000    0.0600000   2.494471e-04  1.671101e-07
     17     11   2   0.50000    -0.1200000    0.0600000   2.494471e-04  1.671101e-07
     17     12   2   0.50000    -0.1200000    0.0600000   2.494471e-04  1.671101e-07
      1      5   2   0.50000    -0.1800000   -0.4300000   1.095425e-03  1.218041e-06
      1      6   2   0.50000    -0.1800000   -0.3300000   1.026091e-03  1.187829e-06
      3      5   2   0.50000    -0.1800000   -0.4300000   1.095425e-03  1.218041e-06
      3      6   2   0.50000    -0.1800000   -0.3300000   1.026091e-03  1.187829e-06
     17      5   2   0.50000    -0.1200000   -0.4300000   1.095425e-03  1.218041e-06
     17      6   2   0.50000    -0.1200000   -0.3300000   1.026091e-03  1.187829e-06
      1     18   2   0.50000    -0.1800000    0.0000000   1.015252e-03  1.866303e-06
      1     24   2   0.50000    -0.1800000    0.0600000   2.494471e-04  1.671101e-07
      1     25   2   0.50000    -0.1800000    0.0600000   2.494471e-04  1.671101e-07
      3     18   2   0.50000    -0.1800000    0.0000000   1.015252e-03  1.866303e-06
      3     24   2   0.50000    -0.1800000    0.0600000   2.494471e-04  1.671101e-07
      3     25   2   0.50000    -0.1800000    0.0600000   2.494471e-04  1.671101e-07
      4     18   2   0.50000     0.5100000    0.0000000   1.575021e-03  3.561100e-06
      4     24   2   0.50000     0.5100000    0.0600000   3.869820e-04  3.188634e-07
      4     25   2   0.50000     0.5100000    0.0600000   3.869820e-04  3.188634e-07
      2      7   2   0.50000     0.0000000    0.1600000   1.015252e-03  1.866303e-06
      5      7   2   0.50000    -0.4300000    0.1600000   1.095425e-03  1.218041e-06
      4     13   2   0.50000     0.5100000    0.0300000   2.482000e-04  1.854991e-07
      4     14   2   0.50000     0.5100000    0.0300000   2.482000e-04  1.854991e-07
      4     15   2   0.50000     0.5100000    0.0300000   2.482000e-04  1.854991e-07
      2     19   2   0.50000     0.0000000   -0.1800000   1.015252e-03  1.866303e-06
      2     20   2   0.50000     0.0000000    0.5100000   1.575021e-03  3.561100e-06
      2     32   2   0.50000     0.0000000   -0.1200000   1.015252e-03  1.866303e-06
     24     19   2   0.50000     0.0600000   -0.1800000   2.494471e-04  1.671101e-07
     24     20   2   0.50000     0.0600000    0.5100000   3.869820e-04  3.188634e-07
     24     32   2   0.50000     0.0600000   -0.1200000   2.494471e-04  1.671101e-07
     25     19   2   0.50000     0.0600000   -0.1800000   2.494471e-04  1.671101e-07
     25     20   2   0.50000     0.0600000    0.5100000   3.869820e-04  3.188634e-07
     25     32   2   0.50000     0.0600000   -0.1200000   2.494471e-04  1.671101e-07
     17     26   2   0.50000    -0.1200000    0.0600000   2.494471e-04  1.671101e-07
     17     27   2   0.50000    -0.1200000    0.0600000   2.494471e-04  1.671101e-07
     17     28   2   0.50000    -0.1200000    0.0600000   2.494471e-04  1.671101e-07
     20     26   2   0.50000     0.5100000    0.0600000   3.869820e-04  3.188634e-07
     20     27   2   0.50000     0.5100000    0.0600000   3.869820e-04  3.188634e-07
     20     28   2   0.50000     0.5100000    0.0600000   3.869820e-04  3.188634e-07
     32     26   2   0.50000    -0.1200000    0.0600000   2.494471e-04  1.671101e-07
     32     27   2   0.50000    -0.1200000    0.0600000   2.494471e-04  1.671101e-07
     32     28   2   0.50000    -0.1200000    0.0600000   2.494471e-04  1.671101e-07
     17     21   2   0.50000    -0.1200000   -0.4300000   1.095425e-03  1.218041e-06
     17     22   2   0.50000    -0.1200000   -0.3300000   1.026091e-03  1.187829e-06
     19     21   2   0.50000    -0.1800000   -0.4300000   1.095425e-03  1.218041e-06
     19     22   2   0.50000    -0.1800000   -0.3300000   1.026091e-03  1.187829e-06
     32     21   2   0.50000    -0.1200000   -0.4300000   1.095425e-03  1.218041e-06
     32     22   2   0.50000    -0.1200000   -0.3300000   1.026091e-03  1.187829e-06
     17     33   2   0.50000    -0.1200000    0.0000000   1.015252e-03  1.866303e-06
     17     39   2   0.50000    -0.1200000    0.0600000   2.494471e-04  1.671101e-07
     17     40   2   0.50000    -0.1200000    0.0600000   2.494471e-04  1.671101e-07
     19     33   2   0.50000    -0.1800000    0.0000000   1.015252e-03  1.866303e-06
     19     39   2   0.50000    -0.1800000    0.0600000   2.494471e-04  1.671101e-07
     19     40   2   0.50000    -0.1800000    0.0600000   2.494471e-04  1.671101e-07
     20     33   2   0.50000     0.5100000    0.0000000   1.575021e-03  3.561100e-06
     20     39   2   0.50000     0.5100000    0.0600000   3.869820e-04  3.188634e-07
     20     40   2   0.50000     0.5100000    0.0600000   3.869820e-04  3.188634e-07
     18     23   2   0.50000     0.0000000    0.1600000   1.015252e-03  1.866303e-06
     21     23   2   0.50000    -0.4300000    0.1600000   1.095425e-03  1.218041e-06
     20     29   2   0.50000     0.5100000    0.0300000   2.482000e-04  1.854991e-07
     20     30   2   0.50000     0.5100000    0.0300000   2.482000e-04  1.854991e-07
     20     31   2   0.50000     0.5100000    0.0300000   2.482000e-04  1.854991e-07
     18     34   2   0.50000     0.0000000   -0.1800000   1.015252e-03  1.866303e-06
     18     35   2   0.50000     0.0000000    0.5100000   1.575021e-03  3.561100e-06
     18     47   2   0.50000     0.0000000   -0.1200000   1.015252e-03  1.866303e-06
     39     34   2   0.50000     0.0600000   -0.1800000   2.494471e-04  1.671101e-07
     39     35   2   0.50000     0.0600000    0.5100000   3.869820e-04  3.188634e-07
     39     47   2   0.50000     0.0600000   -0.1200000   2.494471e-04  1.671101e-07
     40     34   2   0.50000     0.0600000   -0.1800000   2.494471e-04  1.671101e-07
     40     35   2   0.50000     0.0600000    0.5100000   3.869820e-04  3.188634e-07
     40     47   2   0.50000     0.0600000   -0.1200000   2.494471e-04  1.671101e-07
     32     41   2   0.50000    -0.1200000    0.0600000   2.494471e-04  1.671101e-07
     32     42   2   0.50000    -0.1200000    0.0600000   2.494471e-04  1.671101e-07
     32     43   2   0.50000    -0.1200000    0.0600000   2.494471e-04  1.671101e-07
     35     41   2   0.50000     0.5100000    0.0600000   3.869820e-04  3.188634e-07
     35     42   2   0.50000     0.5100000    0.0600000   3.869820e-04  3.188634e-07
     35     43   2   0.50000     0.5100000    0.0600000   3.869820e-04  3.188634e-07
     47     41   2   0.50000    -0.1200000    0.0600000   2.494471e-04  1.671101e-07
     47     42   2   0.50000    -0.1200000    0.0600000   2.494471e-04  1.671101e-07
     47     43   2   0.50000    -0.1200000    0.0600000   2.494471e-04  1.671101e-07
     32     36   2   0.50000    -0.1200000   -0.4300000   1.095425e-03  1.218041e-06
     32     37   2   0.50000    -0.1200000   -0.3300000   1.026091e-03  1.187829e-06
     34     36   2   0.50000    -0.1800000   -0.4300000   1.095425e-03  1.218041e-06
     34     37   2   0.50000    -0.1800000   -0.3300000   1.026091e-03  1.187829e-06
     47     36   2   0.50000    -0.1200000   -0.4300000   1.095425e-03  1.218041e-06
     47     37   2   0.50000    -0.1200000   -0.3300000   1.026091e-03  1.187829e-06
     32     48   2   0.50000    -0.1200000    0.0000000   1.015252e-03  1.866303e-06
     32     54   2   0.50000    -0.1200000    0.0600000   2.494471e-04  1.671101e-07
     32     55   2   0.50000    -0.1200000    0.0600000   2.494471e-04  1.671101e-07
     34     48   2   0.50000    -0.1800000    0.0000000   1.015252e-03  1.866303e-06
     34     54   2   0.50000    -0.1800000    0.0600000   2.494471e-04  1.671101e-07
     34     55   2   0.50000    -0.1800000    0.0600000   2.494471e-04  1.671101e-07
     35     48   2   0.50000     0.5100000    0.0000000   1.575021e-03  3.561100e-06
     35     54   2   0.50000     0.5100000    0.0600000   3.869820e-04  3.188634e-07
     35     55   2   0.50000     0.5100000    0.0600000   3.869820e-04  3.188634e-07
     33     38   2   0.50000     0.0000000    0.1600000   1.015252e-03  1.866303e-06
     36     38   2   0.50000    -0.4300000    0.1600000   1.095425e-03  1.218041e-06
     35     44   2   0.50000     0.5100000    0.0300000   2.482000e-04  1.854991e-07
     35     45   2   0.50000     0.5100000    0.0300000   2.482000e-04  1.854991e-07
     35     46   2   0.50000     0.5100000    0.0300000   2.482000e-04  1.854991e-07
     33     49   2   0.50000     0.0000000   -0.1800000   1.015252e-03  1.866303e-06
     33     50   2   0.50000     0.0000000    0.5100000   1.575021e-03  3.561100e-06
     33     62   2   0.50000     0.0000000   -0.1200000   1.015252e-03  1.866303e-06
     54     49   2   0.50000     0.0600000   -0.1800000   2.494471e-04  1.671101e-07
     54     50   2   0.50000     0.0600000    0.5100000   3.869820e-04  3.188634e-07
     54     62   2   0.50000     0.0600000   -0.1200000   2.494471e-04  1.671101e-07
     55     49   2   0.50000     0.0600000   -0.1800000   2.494471e-04  1.671101e-07
     55     50   2   0.50000     0.0600000    0.5100000   3.869820e-04  3.188634e-07
     55     62   2   0.50000     0.0600000   -0.1200000   2.494471e-04  1.671101e-07
     47     56   2   0.50000    -0.1200000    0.0600000   2.494471e-04  1.671101e-07
     47     57   2   0.50000    -0.1200000    0.0600000   2.494471e-04  1.671101e-07
     47     58   2   0.50000    -0.1200000    0.0600000   2.494471e-04  1.671101e-07
     50     56   2   0.50000     0.5100000    0.0600000   3.869820e-04  3.188634e-07
     50     57   2   0.50000     0.5100000    0.0600000   3.869820e-04  3.188634e-07
     50     58   2   0.50000     0.5100000    0.0600000   3.869820e-04  3.188634e-07
     62     56   2   0.50000    -0.1200000    0.0600000   2.494471e-04  1.671101e-07
     62     57   2   0.50000    -0.1200000    0.0600000   2.494471e-04  1.671101e-07
     62     58   2   0.50000    -0.1200000    0.0600000   2.494471e-04  1.671101e-07
     47     51   2   0.50000    -0.1200000   -0.4300000   1.095425e-03  1.218041e-06
     47     52   2   0.50000    -0.1200000   -0.3300000   1.026091e-03  1.187829e-06
     49     51   2   0.50000    -0.1800000   -0.4300000   1.095425e-03  1.218041e-06
     49     52   2   0.50000    -0.1800000   -0.3300000   1.026091e-03  1.187829e-06
     62     51   2   0.50000    -0.1200000   -0.4300000   1.095425e-03  1.218041e-06
     62     52   2   0.50000    -0.1200000   -0.3300000   1.026091e-03  1.187829e-06
     47     63   2   0.50000    -0.1200000    0.0000000   1.015252e-03  1.866303e-06
     47     69   2   0.50000    -0.1200000    0.0600000   2.494471e-04  1.671101e-07
     47     70   2   0.50000    -0.1200000    0.0600000   2.494471e-04  1.671101e-07
     49     63   2   0.50000    -0.1800000    0.0000000   1.015252e-03  1.866303e-06
     49     69   2   0.50000    -0.1800000    0.0600000   2.494471e-04  1.671101e-07
     49     70   2   0.50000    -0.1800000    0.0600000   2.494471e-04  1.671101e-07
     50     63   2   0.50000     0.5100000    0.0000000   1.575021e-03  3.561100e-06
     50     69   2   0.50000     0.5100000    0.0600000   3.869820e-04  3.188634e-07
     50     70   2   0.50000     0.5100000    0.0600000   3.869820e-04  3.188634e-07
     48     53   2   0.50000     0.0000000    0.1600000   1.015252e-03  1.866303e-06
     51     53   2   0.50000    -0.4300000    0.1600000   1.095425e-03  1.218041e-06
     50     59   2   0.50000     0.5100000    0.0300000   2.482000e-04  1.854991e-07
     50     60   2   0.50000     0.5100000    0.0300000   2.482000e-04  1.854991e-07
     50     61   2   0.50000     0.5100000    0.0300000   2.482000e-04  1.854991e-07
     48     64   2   0.50000     0.0000000   -0.1800000   1.015252e-03  1.866303e-06
     48     65   2   0.50000     0.0000000    0.5100000   1.575021e-03  3.561100e-06
     48     77   2   0.50000     0.0000000   -0.1200000   1.015252e-03  1.866303e-06
     69     64   2   0.50000     0.0600000   -0.1800000   2.494471e-04  1.671101e-07
     69     65   2   0.50000     0.0600000    0.5100000   3.869820e-04  3.188634e-07
     69     77   2   0.50000     0.0600000   -0.1200000   2.494471e-04  1.671101e-07
     70     64   2   0.50000     0.0600000   -0.1800000   2.494471e-04  1.671101e-07
     70     65   2   0.50000     0.0600000    0.5100000   3.869820e-04  3.188634e-07
     70     77   2   0.50000     0.0600000   -0.1200000   2.494471e-04  1.671101e-07
     62     71   2   0.50000    -0.1200000    0.0600000   2.494471e-04  1.671101e-07
     62     72   2   0.50000    -0.1200000    0.0600000   2.494471e-04  1.671101e-07
     62     73   2   0.50000    -0.1200000    0.0600000   2.494471e-04  1.671101e-07
     65     71   2   0.50000     0.5100000    0.0600000   3.869820e-04  3.188634e-07
     65     72   2   0.50000     0.5100000    0.0600000   3.869820e-04  3.188634e-07
     65     73   2   0.50000     0.5100000    0.0600000   3.869820e-04  3.188634e-07
     77     71   2   0.50000    -0.1200000    0.0600000   2.494471e-04  1.671101e-07
     77     72   2   0.50000    -0.1200000    0.0600000   2.494471e-04  1.671101e-07
     77     73   2   0.50000    -0.1200000    0.0600000   2.494471e-04  1.671101e-07
     62     66   2   0.50000    -0.1200000   -0.4300000   1.095425e-03  1.218041e-06
     62     67   2   0.50000    -0.1200000   -0.3300000   1.026091e-03  1.187829e-06
     64     66   2   0.50000    -0.1800000   -0.4300000   1.095425e-03  1.218041e-06
     64     67   2   0.50000    -0.1800000   -0.3300000   1.026091e-03  1.187829e-06
     77     66   2   0.50000    -0.1200000   -0.4300000   1.095425e-03  1.218041e-06
     77     67   2   0.50000    -0.1200000   -0.3300000   1.026091e-03  1.187829e-06
     62     78   2   0.50000    -0.1200000    0.0000000   1.015252e-03  1.866303e-06
     62     84   2   0.50000    -0.1200000    0.0600000   2.494471e-04  1.671101e-07
     62     85   2   0.50000    -0.1200000    0.0600000   2.494471e-04  1.671101e-07
     64     78   2   0.50000    -0.1800000    0.0000000   1.015252e-03  1.866303e-06
     64     84   2   0.50000    -0.1800000    0.0600000   2.494471e-04  1.671101e-07
     64     85   2   0.50000    -0.1800000    0.0600000   2.494471e-04  1.671101e-07
     65     78   2   0.50000     0.5100000    0.0000000   1.575021e-03  3.561100e-06
     65     84   2   0.50000     0.5100000    0.0600000   3.869820e-04  3.188634e-07
     65     85   2   0.50000     0.5100000    0.0600000   3.869820e-04  3.188634e-07
     63     68   2   0.50000     0.0000000    0.1600000   1.015252e-03  1.866303e-06
     66     68   2   0.50000    -0.4300000    0.1600000   1.095425e-03  1.218041e-06
     65     74   2   0.50000     0.5100000    0.0300000   2.482000e-04  1.854991e-07
     65     75   2   0.50000     0.5100000    0.0300000   2.482000e-04  1.854991e-07
     65     76   2   0.50000     0.5100000    0.0300000   2.482000e-04  1.854991e-07
     63     79   2   0.50000     0.0000000   -0.1800000   1.015252e-03  1.866303e-06
     63     80   2   0.50000     0.0000000    0.5100000   1.575021e-03  3.561100e-06
     63     92   2   0.50000     0.0000000   -0.1200000   1.015252e-03  1.866303e-06
     84     79   2   0.50000     0.0600000   -0.1800000   2.494471e-04  1.671101e-07
     84     80   2   0.50000     0.0600000    0.5100000   3.869820e-04  3.188634e-07
     84     92   2   0.50000     0.0600000   -0.1200000   2.494471e-04  1.671101e-07
     85     79   2   0.50000     0.0600000   -0.1800000   2.494471e-04  1.671101e-07
     85     80   2   0.50000     0.0600000    0.5100000   3.869820e-04  3.188634e-07
     85     92   2   0.50000     0.0600000   -0.1200000   2.494471e-04  1.671101e-07
     77     86   2   0.50000    -0.1200000    0.0600000   2.494471e-04  1.671101e-07
     77     87   2   0.50000    -0.1200000    0.0600000   2.494471e-04  1.671101e-07
     77     88   2   0.50000    -0.1200000    0.0600000   2.494471e-04  1.671101e-07
     80     86   2   0.50000     0.5100000    0.0600000   3.869820e-04  3.188634e-07
     80     87   2   0.50000     0.5100000    0.0600000   3.869820e-04  3.188634e-07
     80     88   2   0.50000     0.5100000    0.0600000   3.869820e-04  3.188634e-07
     92     86   2   0.50000    -0.1200000    0.0600000   2.494471e-04  1.671101e-07
     92     87   2   0.50000    -0.1200000    0.0600000   2.494471e-04  1.671101e-07
     92     88   2   0.50000    -0.1200000    0.0600000   2.494471e-04  1.671101e-07
     77     81   2   0.50000    -0.1200000   -0.4300000   1.095425e-03  1.218041e-06
     77     82   2   0.50000    -0.1200000   -0.3300000   1.026091e-03  1.187829e-06
     79     81   2   0.50000    -0.1800000   -0.4300000   1.095425e-03  1.218041e-06
     79     82   2   0.50000    -0.1800000   -0.3300000   1.026091e-03  1.187829e-06
     92     81   2   0.50000    -0.1200000   -0.4300000   1.095425e-03  1.218041e-06
     92     82   2   0.50000    -0.1200000   -0.3300000   1.026091e-03  1.187829e-06
     77     93   2   0.50000    -0.1200000    0.0000000   1.015252e-03  1.866303e-06
     77     99   2   0.50000    -0.1200000    0.0600000   2.494471e-04  1.671101e-07
     77    100   2   0.50000    -0.1200000    0.0600000   2.494471e-04  1.671101e-07
     79     93   2   0.50000    -0.1800000    0.0000000   1.015252e-03  1.866303e-06
     79     99   2   0.50000    -0.1800000    0.0600000   2.494471e-04  1.671101e-07
     79    100   2   0.50000    -0.1800000    0.0600000   2.494471e-04  1.671101e-07
     80     93   2   0.50000     0.5100000    0.0000000   1.575021e-03  3.561100e-06
     80     99   2   0.50000     0.5100000    0.0600000   3.869820e-04  3.188634e-07
     80    100   2   0.50000     0.5100000    0.0600000   3.869820e-04  3.188634e-07
     78     83   2   0.50000     0.0000000    0.1600000   1.015252e-03  1.866303e-06
     81     83   2   0.50000    -0.4300000    0.1600000   1.095425e-03  1.218041e-06
     80     89   2   0.50000     0.5100000    0.0300000   2.482000e-04  1.854991e-07
     80     90   2   0.50000     0.5100000    0.0300000   2.482000e-04  1.854991e-07
     80     91   2   0.50000     0.5100000    0.0300000   2.482000e-04  1.854991e-07
     78     94   2   0.50000     0.0000000   -0.1800000   1.015252e-03  1.866303e-06
     78     95   2   0.50000     0.0000000    0.5100000   1.575021e-03  3.561100e-06
     78    107   2   0.50000     0.0000000   -0.1200000   1.015252e-03  1.866303e-06
     99     94   2   0.50000     0.0600000   -0.1800000   2.494471e-04  1.671101e-07
     99     95   2   0.50000     0.0600000    0.5100000   3.869820e-04  3.188634e-07
     99    107   2   0.50000     0.0600000   -0.1200000   2.494471e-04  1.671101e-07
    100     94   2   0.50000     0.0600000   -0.1800000   2.494471e-04  1.671101e-07
    100     95   2   0.50000     0.0600000    0.5100000   3.869820e-04  3.188634e-07
    100    107   2   0.50000     0.0600000   -0.1200000   2.494471e-04  1.671101e-07
     92    101   2   0.50000    -0.1200000    0.0600000   2.494471e-04  1.671101e-07
     92    102   2   0.50000    -0.1200000    0.0600000   2.494471e-04  1.671101e-07
     92    103   2   0.50000    -0.1200000    0.0600000   2.494471e-04  1.671101e-07
     95    101   2   0.50000     0.5100000    0.0600000   3.869820e-04  3.188634e-07
     95    102   2   0.50000     0.5100000    0.0600000   3.869820e-04  3.188634e-07
     95    103   2   0.50000     0.5100000    0.0600000   3.869820e-04  3.188634e-07
    107    101   2   0.50000    -0.1200000    0.0600000   2.494471e-04  1.671101e-07
    107    102   2   0.50000    -0.1200000    0.0600000   2.494471e-04  1.671101e-07
    107    103   2   0.50000    -0.1200000    0.0600000   2.494471e-04  1.671101e-07
     92     96   2   0.50000    -0.1200000   -0.4300000   1.095425e-03  1.218041e-06
     92     97   2   0.50000    -0.1200000   -0.3300000   1.026091e-03  1.187829e-06
     94     96   2   0.50000    -0.1800000   -0.4300000   1.095425e-03  1.218041e-06
     94     97   2   0.50000    -0.1800000   -0.3300000   1.026091e-03  1.187829e-06
    107     96   2   0.50000    -0.1200000   -0.4300000   1.095425e-03  1.218041e-06
    107     97   2   0.50000    -0.1200000   -0.3300000   1.026091e-03  1.187829e-06
     92    108   2   0.50000    -0.1200000    0.0000000   1.015252e-03  1.866303e-06
     92    114   2   0.50000    -0.1200000    0.0600000   2.494471e-04  1.671101e-07
     92    115   2   0.50000    -0.1200000    0.0600000   2.494471e-04  1.671101e-07
     94    108   2   0.50000    -0.1800000    0.0000000   1.015252e-03  1.866303e-06
     94    114   2   0.50000    -0.1800000    0.0600000   2.494471e-04  1.671101e-07
     94    115   2   0.50000    -0.1800000    0.0600000   2.494471e-04  1.671101e-07
     95    108   2   0.50000     0.5100000    0.0000000   1.575021e-03  3.561100e-06
     95    114   2   0.50000     0.5100000    0.0600000   3.869820e-04  3.188634e-07
     95    115   2   0.50000     0.5100000    0.0600000   3.869820e-04  3.188634e-07
     93     98   2   0.50000     0.0000000    0.1600000   1.015252e-03  1.866303e-06
     96     98   2   0.50000    -0.4300000    0.1600000   1.095425e-03  1.218041e-06
     95    104   2   0.50000     0.5100000    0.0300000   2.482000e-04  1.854991e-07
     95    105   2   0.50000     0.5100000    0.0300000   2.482000e-04  1.854991e-07
     95    106   2   0.50000     0.5100000    0.0300000   2.482000e-04  1.854991e-07
     93    109   2   0.50000     0.0000000   -0.1800000   1.015252e-03  1.866303e-06
     93    110   2   0.50000     0.0000000    0.5100000   1.575021e-03  3.561100e-06
     93    122   2   0.50000     0.0000000   -0.1200000   1.015252e-03  1.866303e-06
    114    109   2   0.50000     0.0600000   -0.1800000   2.494471e-04  1.671101e-07
    114    110   2   0.50000     0.0600000    0.5100000   3.869820e-04  3.188634e-07
    114    122   2   0.50000     0.0600000   -0.1200000   2.494471e-04  1.671101e-07
    115    109   2   0.50000     0.0600000   -0.1800000   2.494471e-04  1.671101e-07
    115    110   2   0.50000     0.0600000    0.5100000   3.869820e-04  3.188634e-07
    115    122   2   0.50000     0.0600000   -0.1200000   2.494471e-04  1.671101e-07
    107    116   2   0.50000    -0.1200000    0.0600000   2.494471e-04  1.671101e-07
    107    117   2   0.50000    -0.1200000    0.0600000   2.494471e-04  1.671101e-07
    107    118   2   0.50000    -0.1200000    0.0600000   2.494471e-04  1.671101e-07
    110    116   2   0.50000     0.5100000    0.0600000   3.869820e-04  3.188634e-07
    110    117   2   0.50000     0.5100000    0.0600000   3.869820e-04  3.188634e-07
    110    118   2   0.50000     0.5100000    0.0600000   3.869820e-04  3.188634e-07
    122    116   2   0.50000    -0.1200000    0.0600000   2.494471e-04  1.671101e-07
    122    117   2   0.50000    -0.1200000    0.0600000   2.494471e-04  1.671101e-07
    122    118   2   0.50000    -0.1200000    0.0600000   2.494471e-04  1.671101e-07
    107    111   2   0.50000    -0.1200000   -0.4300000   1.095425e-03  1.218041e-06
    107    112   2   0.50000    -0.1200000   -0.3300000   1.026091e-03  1.187829e-06
    109    111   2   0.50000    -0.1800000   -0.4300000   1.095425e-03  1.218041e-06
    109    112   2   0.50000    -0.1800000   -0.3300000   1.026091e-03  1.187829e-06
    122    111   2   0.50000    -0.1200000   -0.4300000   1.095425e-03  1.218041e-06
    122    112   2   0.50000    -0.1200000   -0.3300000   1.026091e-03  1.187829e-06
    107    123   2   0.50000    -0.1200000    0.0000000   1.015252e-03  1.866303e-06
    107    129   2   0.50000    -0.1200000    0.0600000   2.494471e-04  1.671101e-07
    107    130   2   0.50000    -0.1200000    0.0600000   2.494471e-04  1.671101e-07
    109    123   2   0.50000    -0.1800000    0.0000000   1.015252e-03  1.866303e-06
    109    129   2   0.50000    -0.1800000    0.0600000   2.494471e-04  1.671101e-07
    109    130   2   0.50000    -0.1800000    0.0600000   2.494471e-04  1.671101e-07
    110    123   2   0.50000     0.5100000    0.0000000   1.575021e-03  3.561100e-06
    110    129   2   0.50000     0.5100000    0.0600000   3.869820e-04  3.188634e-07
    110    130   2   0.50000     0.5100000    0.0600000   3.869820e-04  3.188634e-07
    108    113   2   0.50000     0.0000000    0.1600000   1.015252e-03  1.866303e-06
    111    113   2   0.50000    -0.4300000    0.1600000   1.095425e-03  1.218041e-06
    110    119   2   0.50000     0.5100000    0.0300000   2.482000e-04  1.854991e-07
    110    120   2   0.50000     0.5100000    0.0300000   2.482000e-04  1.854991e-07
    110    121   2   0.50000     0.5100000    0.0300000   2.482000e-04  1.854991e-07
    108    124   2   0.50000     0.0000000   -0.1800000   1.015252e-03  1.866303e-06
    108    125   2   0.50000     0.0000000    0.5100000   1.575021e-03  3.561100e-06
    108    137   2   0.50000     0.0000000   -0.1200000   1.015252e-03  1.866303e-06
    129    124   2   0.50000     0.0600000   -0.1800000   2.494471e-04  1.671101e-07
    129    125   2   0.50000     0.0600000    0.5100000   3.869820e-04  3.188634e-07
    129    137   2   0.50000     0.0600000   -0.1200000   2.494471e-04  1.671101e-07
    130    124   2   0.50000     0.0600000   -0.1800000   2.494471e-04  1.671101e-07
    130    125   2   0.50000     0.0600000    0.5100000   3.869820e-04  3.188634e-07
    130    137   2   0.50000     0.0600000   -0.1200000   2.494471e-04  1.671101e-07
    122    131   2   0.50000    -0.1200000    0.0600000   2.494471e-04  1.671101e-07
    122    132   2   0.50000    -0.1200000    0.0600000   2.494471e-04  1.671101e-07
    122    133   2   0.50000    -0.1200000    0.0600000   2.494471e-04  1.671101e-07
    125    131   2   0.50000     0.5100000    0.0600000   3.869820e-04  3.188634e-07
    125    132   2   0.50000     0.5100000    0.0600000   3.869820e-04  3.188634e-07
    125    133   2   0.50000     0.5100000    0.0600000   3.869820e-04  3.188634e-07
    137    131   2   0.50000    -0.1200000    0.0600000   2.494471e-04  1.671101e-07
    137    132   2   0.50000    -0.1200000    0.0600000   2.494471e-04  1.671101e-07
    137    133   2   0.50000    -0.1200000    0.0600000   2.494471e-04  1.671101e-07
    122    126   2   0.50000    -0.1200000   -0.4300000   1.095425e-03  1.218041e-06
    122    127   2   0.50000    -0.1200000   -0.3300000   1.026091e-03  1.187829e-06
    124    126   2   0.50000    -0.1800000   -0.4300000   1.095425e-03  1.218041e-06
    124    127   2   0.50000    -0.1800000   -0.3300000   1.026091e-03  1.187829e-06
    137    126   2   0.50000    -0.1200000   -0.4300000   1.095425e-03  1.218041e-06
    137    127   2   0.50000    -0.1200000   -0.3300000   1.026091e-03  1.187829e-06
    122    138   2   0.50000    -0.1200000    0.0000000   1.015252e-03  1.866303e-06
    122    144   2   0.50000    -0.1200000    0.0600000   2.494471e-04  1.671101e-07
    122    145   2   0.50000    -0.1200000    0.0600000   2.494471e-04  1.671101e-07
    124    138   2   0.50000    -0.1800000    0.0000000   1.015252e-03  1.866303e-06
    124    144   2   0.50000    -0.1800000    0.0600000   2.494471e-04  1.671101e-07
    124    145   2   0.50000    -0.1800000    0.0600000   2.494471e-04  1.671101e-07
    125    138   2   0.50000     0.5100000    0.0000000   1.575021e-03  3.561100e-06
    125    144   2   0.50000     0.5100000    0.0600000   3.869820e-04  3.188634e-07
    125    145   2   0.50000     0.5100000    0.0600000   3.869820e-04  3.188634e-07
    123    128   2   0.50000     0.0000000    0.1600000   1.015252e-03  1.866303e-06
    126    128   2   0.50000    -0.4300000    0.1600000   1.095425e-03  1.218041e-06
    125    134   2   0.50000     0.5100000    0.0300000   2.482000e-04  1.854991e-07
    125    135   2   0.50000     0.5100000    0.0300000   2.482000e-04  1.854991e-07
    125    136   2   0.50000     0.5100000    0.0300000   2.482000e-04  1.854991e-07
    123    139   2   0.50000     0.0000000   -0.1800000   1.015252e-03  1.866303e-06
    123    140   2   0.50000     0.0000000    0.5100000   1.575021e-03  3.561100e-06
    123    152   2   0.50000     0.0000000   -0.1200000   1.015252e-03  1.866303e-06
    144    139   2   0.50000     0.0600000   -0.1800000   2.494471e-04  1.671101e-07
    144    140   2   0.50000     0.0600000    0.5100000   3.869820e-04  3.188634e-07
    144    152   2   0.50000     0.0600000   -0.1200000   2.494471e-04  1.671101e-07
    145    139   2   0.50000     0.0600000   -0.1800000   2.494471e-04  1.671101e-07
    145    140   2   0.50000     0.0600000    0.5100000   3.869820e-04  3.188634e-07
    145    152   2   0.50000     0.0600000   -0.1200000   2.494471e-04  1.671101e-07
    137    146   2   0.50000    -0.1200000    0.0600000   2.494471e-04  1.671101e-07
    137    147   2   0.50000    -0.1200000    0.0600000   2.494471e-04  1.671101e-07
    137    148   2   0.50000    -0.1200000    0.0600000   2.494471e-04  1.671101e-07
    140    146   2   0.50000     0.5100000    0.0600000   3.869820e-04  3.188634e-07
    140    147   2   0.50000     0.5100000    0.0600000   3.869820e-04  3.188634e-07
    140    148   2   0.50000     0.5100000    0.0600000   3.869820e-04  3.188634e-07
    152    146   2   0.50000    -0.1200000    0.0600000   2.494471e-04  1.671101e-07
    152    147   2   0.50000    -0.1200000    0.0600000   2.494471e-04  1.671101e-07
    152    148   2   0.50000    -0.1200000    0.0600000   2.494471e-04  1.671101e-07
    137    141   2   0.50000    -0.1200000   -0.4300000   1.095425e-03  1.218041e-06
    137    142   2   0.50000    -0.1200000   -0.3300000   1.026091e-03  1.187829e-06
    139    141   2   0.50000    -0.1800000   -0.4300000   1.095425e-03  1.218041e-06
    139    142   2   0.50000    -0.1800000   -0.3300000   1.026091e-03  1.187829e-06
    152    141   2   0.50000    -0.1200000   -0.4300000   1.095425e-03  1.218041e-06
    152    142   2   0.50000    -0.1200000   -0.3300000   1.026091e-03  1.187829e-06
    137    153   2   0.50000    -0.1200000    0.0000000   1.015252e-03  1.866303e-06
    137    159   2   0.50000    -0.1200000    0.0600000   2.494471e-04  1.671101e-07
    137    160   2   0.50000    -0.1200000    0.0600000   2.494471e-04  1.671101e-07
    139    153   2   0.50000    -0.1800000    0.0000000   1.015252e-03  1.866303e-06
    139    159   2   0.50000    -0.1800000    0.0600000   2.494471e-04  1.671101e-07
    139    160   2   0.50000    -0.1800000    0.0600000   2.494471e-04  1.671101e-07
    140    153   2   0.50000     0.5100000    0.0000000   1.575021e-03  3.561100e-06
    140    159   2   0.50000     0.5100000    0.0600000   3.869820e-04  3.188634e-07
    140    160   2   0.50000     0.5100000    0.0600000   3.869820e-04  3.188634e-07
    138    143   2   0.50000     0.0000000    0.1600000   1.015252e-03  1.866303e-06
    141    143   2   0.50000    -0.4300000    0.1600000   1.095425e-03  1.218041e-06
    140    149   2   0.50000     0.5100000    0.0300000   2.482000e-04  1.854991e-07
    140    150   2   0.50000     0.5100000    0.0300000   2.482000e-04  1.854991e-07
    140    151   2   0.50000     0.5100000    0.0300000   2.482000e-04  1.854991e-07
    138    154   2   0.50000     0.0000000   -0.1800000   1.015252e-03  1.866303e-06
    138    155   2   0.50000     0.0000000    0.5100000   1.575021e-03  3.561100e-06
    138    167   2   0.50000     0.0000000   -0.1200000   1.015252e-03  1.866303e-06
    159    154   2   0.50000     0.0600000   -0.1800000   2.494471e-04  1.671101e-07
    159    155   2   0.50000     0.0600000    0.5100000   3.869820e-04  3.188634e-07
    159    167   2   0.50000     0.0600000   -0.1200000   2.494471e-04  1.671101e-07
    160    154   2   0.50000     0.0600000   -0.1800000   2.494471e-04  1.671101e-07
    160    155   2   0.50000     0.0600000    0.5100000   3.869820e-04  3.188634e-07
    160    167   2   0.50000     0.0600000   -0.1200000   2.494471e-04  1.671101e-07
    152    161   2   0.50000    -0.1200000    0.0600000   2.494471e-04  1.671101e-07
    152    162   2   0.50000    -0.1200000    0.0600000   2.494471e-04  1.671101e-07
    152    163   2   0.50000    -0.1200000    0.0600000   2.494471e-04  1.671101e-07
    155    161   2   0.50000     0.5100000    0.0600000   3.869820e-04  3.188634e-07
    155    162   2   0.50000     0.5100000    0.0600000   3.869820e-04  3.188634e-07
    155    163   2   0.50000     0.5100000    0.0600000   3.869820e-04  3.188634e-07
    167    161   2   0.50000    -0.1200000    0.0600000   2.494471e-04  1.671101e-07
    167    162   2   0.50000    -0.1200000    0.0600000   2.494471e-04  1.671101e-07
    167    163   2   0.50000    -0.1200000    0.0600000   2.494471e-04  1.671101e-07
    152    156   2   0.50000    -0.1200000   -0.4300000   1.095425e-03  1.218041e-06
    152    157   2   0.50000    -0.1200000   -0.3300000   1.026091e-03  1.187829e-06
    154    156   2   0.50000    -0.1800000   -0.4300000   1.095425e-03  1.218041e-06
    154    157   2   0.50000    -0.1800000   -0.3300000   1.026091e-03  1.187829e-06
    167    156   2   0.50000    -0.1200000   -0.4300000   1.095425e-03  1.218041e-06
    167    157   2   0.50000    -0.1200000   -0.3300000   1.026091e-03  1.187829e-06
    152    168   2   0.50000    -0.1200000    0.0000000   1.015252e-03  1.866303e-06
    152    174   2   0.50000    -0.1200000    0.0600000   2.494471e-04  1.671101e-07
    152    175   2   0.50000    -0.1200000    0.0600000   2.494471e-04  1.671101e-07
    154    168   2   0.50000    -0.1800000    0.0000000   1.015252e-03  1.866303e-06
    154    174   2   0.50000    -0.1800000    0.0600000   2.494471e-04  1.671101e-07
    154    175   2   0.50000    -0.1800000    0.0600000   2.494471e-04  1.671101e-07
    155    168   2   0.50000     0.5100000    0.0000000   1.575021e-03  3.561100e-06
    155    174   2   0.50000     0.5100000    0.0600000   3.869820e-04  3.188634e-07
    155    175   2   0.50000     0.5100000    0.0600000   3.869820e-04  3.188634e-07
    153    158   2   0.50000     0.0000000    0.1600000   1.015252e-03  1.866303e-06
    156    158   2   0.50000    -0.4300000    0.1600000   1.095425e-03  1.218041e-06
    155    164   2   0.50000     0.5100000    0.0300000   2.482000e-04  1.854991e-07
    155    165   2   0.50000     0.5100000    0.0300000   2.482000e-04  1.854991e-07
    155    166   2   0.50000     0.5100000    0.0300000   2.482000e-04  1.854991e-07
    153    169   2   0.50000     0.0000000   -0.1800000   1.015252e-03  1.866303e-06
    153    170   2   0.50000     0.0000000    0.5100000   1.575021e-03  3.561100e-06
    153    182   2   0.50000     0.0000000   -0.1200000   1.015252e-03  1.866303e-06
    174    169   2   0.50000     0.0600000   -0.1800000   2.494471e-04  1.671101e-07
    174    170   2   0.50000     0.0600000    0.5100000   3.869820e-04  3.188634e-07
    174    182   2   0.50000     0.0600000   -0.1200000   2.494471e-04  1.671101e-07
    175    169   2   0.50000     0.0600000   -0.1800000   2.494471e-04  1.671101e-07
    175    170   2   0.50000     0.0600000    0.5100000   3.869820e-04  3.188634e-07
    175    182   2   0.50000     0.0600000   -0.1200000   2.494471e-04  1.671101e-07
    167    176   2   0.50000    -0.1200000    0.0600000   2.494471e-04  1.671101e-07
    167    177   2   0.50000    -0.1200000    0.0600000   2.494471e-04  1.671101e-07
    167    178   2   0.50000    -0.1200000    0.0600000   2.494471e-04  1.671101e-07
    170    176   2   0.50000     0.5100000    0.0600000   3.869820e-04  3.188634e-07
    170    177   2   0.50000     0.5100000    0.0600000   3.869820e-04  3.188634e-07
    170    178   2   0.50000     0.5100000    0.0600000   3.869820e-04  3.188634e-07
    182    176   2   0.50000    -0.1200000    0.0600000   2.494471e-04  1.671101e-07
    182    177   2   0.50000    -0.1200000    0.0600000   2.494471e-04  1.671101e-07
    182    178   2   0.50000    -0.1200000    0.0600000   2.494471e-04  1.671101e-07
    167    171   2   0.50000    -0.1200000   -0.4300000   1.095425e-03  1.218041e-06
    167    172   2   0.50000    -0.1200000   -0.3300000   1.026091e-03  1.187829e-06
    169    171   2   0.50000    -0.1800000   -0.4300000   1.095425e-03  1.218041e-06
    169    172   2   0.50000    -0.1800000   -0.3300000   1.026091e-03  1.187829e-06
    182    171   2   0.50000    -0.1200000   -0.4300000   1.095425e-03  1.218041e-06
    182    172   2   0.50000    -0.1200000   -0.3300000   1.026091e-03  1.187829e-06
    167    183   2   0.50000    -0.1200000    0.0000000   1.015252e-03  1.866303e-06
    167    189   2   0.50000    -0.1200000    0.0600000   2.494471e-04  1.671101e-07
    167    190   2   0.50000    -0.1200000    0.0600000   2.494471e-04  1.671101e-07
    169    183   2   0.50000    -0.1800000    0.0000000   1.015252e-03  1.866303e-06
    169    189   2   0.50000    -0.1800000    0.0600000   2.494471e-04  1.671101e-07
    169    190   2   0.50000    -0.1800000    0.0600000   2.494471e-04  1.671101e-07
    170    183   2   0.50000     0.5100000    0.0000000   1.575021e-03  3.561100e-06
    170    189   2   0.50000     0.5100000    0.0600000   3.869820e-04  3.188634e-07
    170    190   2   0.50000     0.5100000    0.0600000   3.869820e-04  3.188634e-07
    168    173   2   0.50000     0.0000000    0.1600000   1.015252e-03  1.866303e-06
    171    173   2   0.50000    -0.4300000    0.1600000   1.095425e-03  1.218041e-06
    170    179   2   0.50000     0.5100000    0.0300000   2.482000e-04  1.854991e-07
    170    180   2   0.50000     0.5100000    0.0300000   2.482000e-04  1.854991e-07
    170    181   2   0.50000     0.5100000    0.0300000   2.482000e-04  1.854991e-07
    168    184   2   0.50000     0.0000000   -0.1800000   1.015252e-03  1.866303e-06
    168    185   2   0.50000     0.0000000    0.5100000   1.575021e-03  3.561100e-06
    168    197   2   0.50000     0.0000000   -0.1200000   1.015252e-03  1.866303e-06
    189    184   2   0.50000     0.0600000   -0.1800000   2.494471e-04  1.671101e-07
    189    185   2   0.50000     0.0600000    0.5100000   3.869820e-04  3.188634e-07
    189    197   2   0.50000     0.0600000   -0.1200000   2.494471e-04  1.671101e-07
    190    184   2   0.50000     0.0600000   -0.1800000   2.494471e-04  1.671101e-07
    190    185   2   0.50000     0.0600000    0.5100000   3.869820e-04  3.188634e-07
    190    197   2   0.50000     0.0600000   -0.1200000   2.494471e-04  1.671101e-07
    182    191   2   0.50000    -0.1200000    0.0600000   2.494471e-04  1.671101e-07
    182    192   2   0.50000    -0.1200000    0.0600000   2.494471e-04  1.671101e-07
    182    193   2   0.50000    -0.1200000    0.0600000   2.494471e-04  1.671101e-07
    185    191   2   0.50000     0.5100000    0.0600000   3.869820e-04  3.188634e-07
    185    192   2   0.50000     0.5100000    0.0600000   3.869820e-04  3.188634e-07
    185    193   2   0.50000     0.5100000    0.0600000   3.869820e-04  3.188634e-07
    197    191   2   0.50000    -0.1200000    0.0600000   2.494471e-04  1.671101e-07
    197    192   2   0.50000    -0.1200000    0.0600000   2.494471e-04  1.671101e-07
    197    193   2   0.50000    -0.1200000    0.0600000   2.494471e-04  1.671101e-07
    182    186   2   0.50000    -0.1200000   -0.4300000   1.095425e-03  1.218041e-06
    182    187   2   0.50000    -0.1200000   -0.3300000   1.026091e-03  1.187829e-06
    184    186   2   0.50000    -0.1800000   -0.4300000   1.095425e-03  1.218041e-06
    184    187   2   0.50000    -0.1800000   -0.3300000   1.026091e-03  1.187829e-06
    197    186   2   0.50000    -0.1200000   -0.4300000   1.095425e-03  1.218041e-06
    197    187   2   0.50000    -0.1200000   -0.3300000   1.026091e-03  1.187829e-06
    182    198   2   0.50000    -0.1200000    0.0000000   1.015252e-03  1.866303e-06
    182    204   2   0.50000    -0.1200000    0.0600000   2.494471e-04  1.671101e-07
    182    205   2   0.50000    -0.1200000    0.0600000   2.494471e-04  1.671101e-07
    184    198   2   0.50000    -0.1800000    0.0000000   1.015252e-03  1.866303e-06
    184    204   2   0.50000    -0.1800000    0.0600000   2.494471e-04  1.671101e-07
    184    205   2   0.50000    -0.1800000    0.0600000   2.494471e-04  1.671101e-07
    185    198   2   0.50000     0.5100000    0.0000000   1.575021e-03  3.561100e-06
    185    204   2   0.50000     0.5100000    0.0600000   3.869820e-04  3.188634e-07
    185    205   2   0.50000     0.5100000    0.0600000   3.869820e-04  3.188634e-07
    183    188   2   0.50000     0.0000000    0.1600000   1.015252e-03  1.866303e-06
    186    188   2   0.50000    -0.4300000    0.1600000   1.095425e-03  1.218041e-06
    185    194   2   0.50000     0.5100000    0.0300000   2.482000e-04  1.854991e-07
    185    195   2   0.50000     0.5100000    0.0300000   2.482000e-04  1.854991e-07
    185    196   2   0.50000     0.5100000    0.0300000   2.482000e-04  1.854991e-07
    183    199   2   0.50000     0.0000000   -0.1800000   1.015252e-03  1.866303e-06
    183    200   2   0.50000     0.0000000    0.5100000   1.575021e-03  3.561100e-06
    183    212   2   0.50000     0.0000000   -0.1200000   1.015252e-03  1.866303e-06
    204    199   2   0.50000     0.0600000   -0.1800000   2.494471e-04  1.671101e-07
    204    200   2   0.50000     0.0600000    0.5100000   3.869820e-04  3.188634e-07
    204    212   2   0.50000     0.0600000   -0.1200000   2.494471e-04  1.671101e-07
    205    199   2   0.50000     0.0600000   -0.1800000   2.494471e-04  1.671101e-07
    205    200   2   0.50000     0.0600000    0.5100000   3.869820e-04  3.188634e-07
    205    212   2   0.50000     0.0600000   -0.1200000   2.494471e-04  1.671101e-07
    197    206   2   0.50000    -0.1200000    0.0600000   2.494471e-04  1.671101e-07
    197    207   2   0.50000    -0.1200000    0.0600000   2.494471e-04  1.671101e-07
    197    208   2   0.50000    -0.1200000    0.0600000   2.494471e-04  1.671101e-07
    200    206   2   0.50000     0.5100000    0.0600000   3.869820e-04  3.188634e-07
    200    207   2   0.50000     0.5100000    0.0600000   3.869820e-04  3.188634e-07
    200    208   2   0.50000     0.5100000    0.0600000   3.869820e-04  3.188634e-07
    212    206   2   0.50000    -0.1200000    0.0600000   2.494471e-04  1.671101e-07
    212    207   2   0.50000    -0.1200000    0.0600000   2.494471e-04  1.671101e-07
    212    208   2   0.50000    -0.1200000    0.0600000   2.494471e-04  1.671101e-07
    197    201   2   0.50000    -0.1200000   -0.4300000   1.095425e-03  1.218041e-06
    197    202   2   0.50000    -0.1200000   -0.3300000   1.026091e-03  1.187829e-06
    199    201   2   0.50000    -0.1800000   -0.4300000   1.095425e-03  1.218041e-06
    199    202   2   0.50000    -0.1800000   -0.3300000   1.026091e-03  1.187829e-06
    212    201   2   0.50000    -0.1200000   -0.4300000   1.095425e-03  1.218041e-06
    212    202   2   0.50000    -0.1200000   -0.3300000   1.026091e-03  1.187829e-06
    197    213   2   0.50000    -0.1200000    0.0000000   1.015252e-03  1.866303e-06
    197    219   2   0.50000    -0.1200000    0.0600000   2.494471e-04  1.671101e-07
    197    220   2   0.50000    -0.1200000    0.0600000   2.494471e-04  1.671101e-07
    199    213   2   0.50000    -0.1800000    0.0000000   1.015252e-03  1.866303e-06
    199    219   2   0.50000    -0.1800000    0.0600000   2.494471e-04  1.671101e-07
    199    220   2   0.50000    -0.1800000    0.0600000   2.494471e-04  1.671101e-07
    200    213   2   0.50000     0.5100000    0.0000000   1.575021e-03  3.561100e-06
    200    219   2   0.50000     0.5100000    0.0600000   3.869820e-04  3.188634e-07
    200    220   2   0.50000     0.5100000    0.0600000   3.869820e-04  3.188634e-07
    198    203   2   0.50000     0.0000000    0.1600000   1.015252e-03  1.866303e-06
    201    203   2   0.50000    -0.4300000    0.1600000   1.095425e-03  1.218041e-06
    200    209   2   0.50000     0.5100000    0.0300000   2.482000e-04  1.854991e-07
    200    210   2   0.50000     0.5100000    0.0300000   2.482000e-04  1.854991e-07
    200    211   2   0.50000     0.5100000    0.0300000   2.482000e-04  1.854991e-07
    198    214   2   0.50000     0.0000000   -0.1800000   1.015252e-03  1.866303e-06
    198    215   2   0.50000     0.0000000    0.5100000   1.575021e-03  3.561100e-06
    198    227   2   0.50000     0.0000000   -0.1200000   1.015252e-03  1.866303e-06
    219    214   2   0.50000     0.0600000   -0.1800000   2.494471e-04  1.671101e-07
    219    215   2   0.50000     0.0600000    0.5100000   3.869820e-04  3.188634e-07
    219    227   2   0.50000     0.0600000   -0.1200000   2.494471e-04  1.671101e-07
    220    214   2   0.50000     0.0600000   -0.1800000   2.494471e-04  1.671101e-07
    220    215   2   0.50000     0.0600000    0.5100000   3.869820e-04  3.188634e-07
    220    227   2   0.50000     0.0600000   -0.1200000   2.494471e-04  1.671101e-07
    212    221   2   0.50000    -0.1200000    0.0600000   2.494471e-04  1.671101e-07
    212    222   2   0.50000    -0.1200000    0.0600000   2.494471e-04  1.671101e-07
    212    223   2   0.50000    -0.1200000    0.0600000   2.494471e-04  1.671101e-07
    215    221   2   0.50000     0.5100000    0.0600000   3.869820e-04  3.188634e-07
    215    222   2   0.50000     0.5100000    0.0600000   3.869820e-04  3.188634e-07
    215    223   2   0.50000     0.5100000    0.0600000   3.869820e-04  3.188634e-07
    227    221   2   0.50000    -0.1200000    0.0600000   2.494471e-04  1.671101e-07
    227    222   2   0.50000    -0.1200000    0.0600000   2.494471e-04  1.671101e-07
    227    223   2   0.50000    -0.1200000    0.0600000   2.494471e-04  1.671101e-07
    212    216   2   0.50000    -0.1200000   -0.4300000   1.095425e-03  1.218041e-06
    212    217   2   0.50000    -0.1200000   -0.3300000   1.026091e-03  1.187829e-06
    214    216   2   0.50000    -0.1800000   -0.4300000   1.095425e-03  1.218041e-06
    214    217   2   0.50000    -0.1800000   -0.3300000   1.026091e-03  1.187829e-06
    227    216   2   0.50000    -0.1200000   -0.4300000   1.095425e-03  1.218041e-06
    227    217   2   0.50000    -0.1200000   -0.3300000   1.026091e-03  1.187829e-06
    212    228   2   0.50000    -0.1200000    0.0000000   1.015252e-03  1.866303e-06
    212    234   2   0.50000    -0.1200000    0.0600000   2.494471e-04  1.671101e-07
    212    235   2   0.50000    -0.1200000    0.0600000   2.494471e-04  1.671101e-07
    214    228   2   0.50000    -0.1800000    0.0000000   1.015252e-03  1.866303e-06
    214    234   2   0.50000    -0.1800000    0.0600000   2.494471e-04  1.671101e-07
    214    235   2   0.50000    -0.1800000    0.0600000   2.494471e-04  1.671101e-07
    215    228   2   0.50000     0.5100000    0.0000000   1.575021e-03  3.561100e-06
    215    234   2   0.50000     0.5100000    0.0600000   3.869820e-04  3.188634e-07
    215    235   2   0.50000     0.5100000    0.0600000   3.869820e-04  3.188634e-07
    213    218   2   0.50000     0.0000000    0.1600000   1.015252e-03  1.866303e-06
    216    218   2   0.50000    -0.4300000    0.1600000   1.095425e-03  1.218041e-06
    215    224   2   0.50000     0.5100000    0.0300000   2.482000e-04  1.854991e-07
    215    225   2   0.50000     0.5100000    0.0300000   2.482000e-04  1.854991e-07
    215    226   2   0.50000     0.5100000    0.0300000   2.482000e-04  1.854991e-07
    213    229   2   0.50000     0.0000000   -0.1800000   1.015252e-03  1.866303e-06
    213    230   2   0.50000     0.0000000    0.5100000   1.575021e-03  3.561100e-06
    213    242   2   0.50000     0.0000000   -0.1200000   1.015252e-03  1.866303e-06
    234    229   2   0.50000     0.0600000   -0.1800000   2.494471e-04  1.671101e-07
    234    230   2   0.50000     0.0600000    0.5100000   3.869820e-04  3.188634e-07
    234    242   2   0.50000     0.0600000   -0.1200000   2.494471e-04  1.671101e-07
    235    229   2   0.50000     0.0600000   -0.1800000   2.494471e-04  1.671101e-07
    235    230   2   0.50000     0.0600000    0.5100000   3.869820e-04  3.188634e-07
    235    242   2   0.50000     0.0600000   -0.1200000   2.494471e-04  1.671101e-07
    227    236   2   0.50000    -0.1200000    0.0600000   2.494471e-04  1.671101e-07
    227    237   2   0.50000    -0.1200000    0.0600000   2.494471e-04  1.671101e-07
    227    238   2   0.50000    -0.1200000    0.0600000   2.494471e-04  1.671101e-07
    230    236   2   0.50000     0.5100000    0.0600000   3.869820e-04  3.188634e-07
    230    237   2   0.50000     0.5100000    0.0600000   3.869820e-04  3.188634e-07
    230    238   2   0.50000     0.5100000    0.0600000   3.869820e-04  3.188634e-07
    242    236   2   0.50000    -0.1200000    0.0600000   2.494471e-04  1.671101e-07
    242    237   2   0.50000    -0.1200000    0.0600000   2.494471e-04  1.671101e-07
    242    238   2   0.50000    -0.1200000    0.0600000   2.494471e-04  1.671101e-07
    227    231   2   0.50000    -0.1200000   -0.4300000   1.095425e-03  1.218041e-06
    227    232   2   0.50000    -0.1200000   -0.3300000   1.026091e-03  1.187829e-06
    229    231   2   0.50000    -0.1800000   -0.4300000   1.095425e-03  1.218041e-06
    229    232   2   0.50000    -0.1800000   -0.3300000   1.026091e-03  1.187829e-06
    242    231   2   0.50000    -0.1200000   -0.4300000   1.095425e-03  1.218041e-06
    242    232   2   0.50000    -0.1200000   -0.3300000   1.026091e-03  1.187829e-06
    227    243   2   0.50000    -0.1200000    0.0000000   1.015252e-03  1.866303e-06
    227    249   2   0.50000    -0.1200000    0.0600000   2.494471e-04  1.671101e-07
    227    250   2   0.50000    -0.1200000    0.0600000   2.494471e-04  1.671101e-07
    229    243   2   0.50000    -0.1800000    0.0000000   1.015252e-03  1.866303e-06
    229    249   2   0.50000    -0.1800000    0.0600000   2.494471e-04  1.671101e-07
    229    250   2   0.50000    -0.1800000    0.0600000   2.494471e-04  1.671101e-07
    230    243   2   0.50000     0.5100000    0.0000000   1.575021e-03  3.561100e-06
    230    249   2   0.50000     0.5100000    0.0600000   3.869820e-04  3.188634e-07
    230    250   2   0.50000     0.5100000    0.0600000   3.869820e-04  3.188634e-07
    228    233   2   0.50000     0.0000000    0.1600000   1.015252e-03  1.866303e-06
    231    233   2   0.50000    -0.4300000    0.1600000   1.095425e-03  1.218041e-06
    230    239   2   0.50000     0.5100000    0.0300000   2.482000e-04  1.854991e-07
    230    240   2   0.50000     0.5100000    0.0300000   2.482000e-04  1.854991e-07
    230    241   2   0.50000     0.5100000    0.0300000   2.482000e-04  1.854991e-07
    228    244   2   0.50000     0.0000000   -0.1800000   1.015252e-03  1.866303e-06
    228    245   2   0.50000     0.0000000    0.5100000   1.575021e-03  3.561100e-06
    228    257   2   0.50000     0.0000000   -0.1200000   1.015252e-03  1.866303e-06
    249    244   2   0.50000     0.0600000   -0.1800000   2.494471e-04  1.671101e-07
    249    245   2   0.50000     0.0600000    0.5100000   3.869820e-04  3.188634e-07
    249    257   2   0.50000     0.0600000   -0.1200000   2.494471e-04  1.671101e-07
    250    244   2   0.50000     0.0600000   -0.1800000   2.494471e-04  1.671101e-07
    250    245   2   0.50000     0.0600000    0.5100000   3.869820e-04  3.188634e-07
    250    257   2   0.50000     0.0600000   -0.1200000   2.494471e-04  1.671101e-07
    242    251   2   0.50000    -0.1200000    0.0600000   2.494471e-04  1.671101e-07
    242    252   2   0.50000    -0.1200000    0.0600000   2.494471e-04  1.671101e-07
    242    253   2   0.50000    -0.1200000    0.0600000   2.494471e-04  1.671101e-07
    245    251   2   0.50000     0.5100000    0.0600000   3.869820e-04  3.188634e-07
    245    252   2   0.50000     0.5100000    0.0600000   3.869820e-04  3.188634e-07
    245    253   2   0.50000     0.5100000    0.0600000   3.869820e-04  3.188634e-07
    257    251   2   0.50000    -0.1200000    0.0600000   2.494471e-04  1.671101e-07
    257    252   2   0.50000    -0.1200000    0.0600000   2.494471e-04  1.671101e-07
    257    253   2   0.50000    -0.1200000    0.0600000   2.494471e-04  1.671101e-07
    242    246   2   0.50000    -0.1200000   -0.4300000   1.095425e-03  1.218041e-06
    242    247   2   0.50000    -0.1200000   -0.3300000   1.026091e-03  1.187829e-06
    244    246   2   0.50000    -0.1800000   -0.4300000   1.095425e-03  1.218041e-06
    244    247   2   0.50000    -0.1800000   -0.3300000   1.026091e-03  1.187829e-06
    257    246   2   0.50000    -0.1200000   -0.4300000   1.095425e-03  1.218041e-06
    257    247   2   0.50000    -0.1200000   -0.3300000   1.026091e-03  1.187829e-06
    242    258   2   0.50000    -0.1200000    0.0000000   1.015252e-03  1.866303e-06
    242    264   2   0.50000    -0.1200000    0.0600000   2.494471e-04  1.671101e-07
    242    265   2   0.50000    -0.1200000    0.0600000   2.494471e-04  1.671101e-07
    244    258   2   0.50000    -0.1800000    0.0000000   1.015252e-03  1.866303e-06
    244    264   2   0.50000    -0.1800000    0.0600000   2.494471e-04  1.671101e-07
    244    265   2   0.50000    -0.1800000    0.0600000   2.494471e-04  1.671101e-07
    245    258   2   0.50000     0.5100000    0.0000000   1.575021e-03  3.561100e-06
    245    264   2   0.50000     0.5100000    0.0600000   3.869820e-04  3.188634e-07
    245    265   2   0.50000     0.5100000    0.0600000   3.869820e-04  3.188634e-07
    243    248   2   0.50000     0.0000000    0.1600000   1.015252e-03  1.866303e-06
    246    248   2   0.50000    -0.4300000    0.1600000   1.095425e-03  1.218041e-06
    245    254   2   0.50000     0.5100000    0.0300000   2.482000e-04  1.854991e-07
    245    255   2   0.50000     0.5100000    0.0300000   2.482000e-04  1.854991e-07
    245    256   2   0.50000     0.5100000    0.0300000   2.482000e-04  1.854991e-07
    243    259   2   0.50000     0.0000000   -0.1800000   1.015252e-03  1.866303e-06
    243    260   2   0.50000     0.0000000    0.5100000   1.575021e-03  3.561100e-06
    243    272   2   0.50000     0.0000000   -0.1200000   1.015252e-03  1.866303e-06
    264    259   2   0.50000     0.0600000   -0.1800000   2.494471e-04  1.671101e-07
    264    260   2   0.50000     0.0600000    0.5100000   3.869820e-04  3.188634e-07
    264    272   2   0.50000     0.0600000   -0.1200000   2.494471e-04  1.671101e-07
    265    259   2   0.50000     0.0600000   -0.1800000   2.494471e-04  1.671101e-07
    265    260   2   0.50000     0.0600000    0.5100000   3.869820e-04  3.188634e-07
    265    272   2   0.50000     0.0600000   -0.1200000   2.494471e-04  1.671101e-07
    257    266   2   0.50000    -0.1200000    0.0600000   2.494471e-04  1.671101e-07
    257    267   2   0.50000    -0.1200000    0.0600000   2.494471e-04  1.671101e-07
    257    268   2   0.50000    -0.1200000    0.0600000   2.494471e-04  1.671101e-07
    260    266   2   0.50000     0.5100000    0.0600000   3.869820e-04  3.188634e-07
    260    267   2   0.50000     0.5100000    0.0600000   3.869820e-04  3.188634e-07
    260    268   2   0.50000     0.5100000    0.0600000   3.869820e-04  3.188634e-07
    272    266   2   0.50000    -0.1200000    0.0600000   2.494471e-04  1.671101e-07
    272    267   2   0.50000    -0.1200000    0.0600000   2.494471e-04  1.671101e-07
    272    268   2   0.50000    -0.1200000    0.0600000   2.494471e-04  1.671101e-07
    257    261   2   0.50000    -0.1200000   -0.4300000   1.095425e-03  1.218041e-06
    257    262   2   0.50000    -0.1200000   -0.3300000   1.026091e-03  1.187829e-06
    259    261   2   0.50000    -0.1800000   -0.4300000   1.095425e-03  1.218041e-06
    259    262   2   0.50000    -0.1800000   -0.3300000   1.026091e-03  1.187829e-06
    272    261   2   0.50000    -0.1200000   -0.4300000   1.095425e-03  1.218041e-06
    272    262   2   0.50000    -0.1200000   -0.3300000   1.026091e-03  1.187829e-06
    257    273   2   0.50000    -0.1200000    0.0000000   1.015252e-03  1.866303e-06
    257    279   2   0.50000    -0.1200000    0.0600000   2.494471e-04  1.671101e-07
    257    280   2   0.50000    -0.1200000    0.0600000   2.494471e-04  1.671101e-07
    259    273   2   0.50000    -0.1800000    0.0000000   1.015252e-03  1.866303e-06
    259    279   2   0.50000    -0.1800000    0.0600000   2.494471e-04  1.671101e-07
    259    280   2   0.50000    -0.1800000    0.0600000   2.494471e-04  1.671101e-07
    260    273   2   0.50000     0.5100000    0.0000000   1.575021e-03  3.561100e-06
    260    279   2   0.50000     0.5100000    0.0600000   3.869820e-04  3.188634e-07
    260    280   2   0.50000     0.5100000    0.0600000   3.869820e-04  3.188634e-07
    258    263   2   0.50000     0.0000000    0.1600000   1.015252e-03  1.866303e-06
    261    263   2   0.50000    -0.4300000    0.1600000   1.095425e-03  1.218041e-06
    260    269   2   0.50000     0.5100000    0.0300000   2.482000e-04  1.854991e-07
    260    270   2   0.50000     0.5100000    0.0300000   2.482000e-04  1.854991e-07
    260    271   2   0.50000     0.5100000    0.0300000   2.482000e-04  1.854991e-07
    258    274   2   0.50000     0.0000000   -0.1800000   1.015252e-03  1.866303e-06
    258    275   2   0.50000     0.0000000    0.5100000   1.575021e-03  3.561100e-06
    258    287   2   0.50000     0.0000000   -0.1200000   1.015252e-03  1.866303e-06
    279    274   2   0.50000     0.0600000   -0.1800000   2.494471e-04  1.671101e-07
    279    275   2   0.50000     0.0600000    0.5100000   3.869820e-04  3.188634e-07
    279    287   2   0.50000     0.0600000   -0.1200000   2.494471e-04  1.671101e-07
    280    274   2   0.50000     0.0600000   -0.1800000   2.494471e-04  1.671101e-07
    280    275   2   0.50000     0.0600000    0.5100000   3.869820e-04  3.188634e-07
    280    287   2   0.50000     0.0600000   -0.1200000   2.494471e-04  1.671101e-07
    272    281   2   0.50000    -0.1200000    0.0600000   2.494471e-04  1.671101e-07
    272    282   2   0.50000    -0.1200000    0.0600000   2.494471e-04  1.671101e-07
    272    283   2   0.50000    -0.1200000    0.0600000   2.494471e-04  1.671101e-07
    275    281   2   0.50000     0.5100000    0.0600000   3.869820e-04  3.188634e-07
    275    282   2   0.50000     0.5100000    0.0600000   3.869820e-04  3.188634e-07
    275    283   2   0.50000     0.5100000    0.0600000   3.869820e-04  3.188634e-07
    287    281   2   0.50000    -0.1200000    0.0600000   2.494471e-04  1.671101e-07
    287    282   2   0.50000    -0.1200000    0.0600000   2.494471e-04  1.671101e-07
    287    283   2   0.50000    -0.1200000    0.0600000   2.494471e-04  1.671101e-07
    272    276   2   0.50000    -0.1200000   -0.4300000   1.095425e-03  1.218041e-06
    272    277   2   0.50000    -0.1200000   -0.3300000   1.026091e-03  1.187829e-06
    274    276   2   0.50000    -0.1800000   -0.4300000   1.095425e-03  1.218041e-06
    274    277   2   0.50000    -0.1800000   -0.3300000   1.026091e-03  1.187829e-06
    287    276   2   0.50000    -0.1200000   -0.4300000   1.095425e-03  1.218041e-06
    287    277   2   0.50000    -0.1200000   -0.3300000   1.026091e-03  1.187829e-06
    272    288   2   0.50000    -0.1200000   -0.0600000   1.015252e-03  1.866303e-06
    272    294   2   0.50000    -0.1200000    0.0600000   2.494471e-04  1.671101e-07
    272    295   2   0.50000    -0.1200000    0.0600000   2.494471e-04  1.671101e-07
    274    288   2   0.50000    -0.1800000   -0.0600000   1.015252e-03  1.866303e-06
    274    294   2   0.50000    -0.1800000    0.0600000   2.494471e-04  1.671101e-07
    274    295   2   0.50000    -0.1800000    0.0600000   2.494471e-04  1.671101e-07
    275    288   2   0.50000     0.5100000   -0.0600000   1.575021e-03  3.561100e-06
    275    294   2   0.50000     0.5100000    0.0600000   3.869820e-04  3.188634e-07
    275    295   2   0.50000     0.5100000    0.0600000   3.869820e-04  3.188634e-07
    273    278   2   0.50000     0.0000000    0.1600000   1.015252e-03  1.866303e-06
    276    278   2   0.50000    -0.4300000    0.1600000   1.095425e-03  1.218041e-06
    275    284   2   0.50000     0.5100000    0.0300000   2.482000e-04  1.854991e-07
    275    285   2   0.50000     0.5100000    0.0300000   2.482000e-04  1.854991e-07
    275    286   2   0.50000     0.5100000    0.0300000   2.482000e-04  1.854991e-07
    273    289   2   0.50000     0.0000000   -0.1800000   1.015252e-03  1.866303e-06
    273    290   2   0.50000     0.0000000    0.5100000   1.575021e-03  3.561100e-06
    273    302   2   0.50000     0.0000000    0.0600000   1.599888e-04  9.721644e-08
    294    289   2   0.50000     0.0600000   -0.1800000   2.494471e-04  1.671101e-07
    294    290   2   0.50000     0.0600000    0.5100000   3.869820e-04  3.188634e-07
    294    302   2   0.50000     0.0600000    0.0600000   3.930919e-05  8.704828e-09
    295    289   2   0.50000     0.0600000   -0.1800000   2.494471e-04  1.671101e-07
    295    290   2   0.50000     0.0600000    0.5100000   3.869820e-04  3.188634e-07
    295    302   2   0.50000     0.0600000    0.0600000   3.930919e-05  8.704828e-09
    287    296   2   0.50000    -0.1200000    0.0600000   2.494471e-04  1.671101e-07
    287    297   2   0.50000    -0.1200000    0.0600000   2.494471e-04  1.671101e-07
    287    298   2   0.50000    -0.1200000    0.0600000   2.494471e-04  1.671101e-07
    290    296   2   0.50000     0.5100000    0.0600000   3.869820e-04  3.188634e-07
    290    297   2   0.50000     0.5100000    0.0600000   3.869820e-04  3.188634e-07
    290    298   2   0.50000     0.5100000    0.0600000   3.869820e-04  3.188634e-07
    302    296   2   0.50000     0.0600000    0.0600000   3.930919e-05  8.704828e-09
    302    297   2   0.50000     0.0600000    0.0600000   3.930919e-05  8.704828e-09
    302    298   2   0.50000     0.0600000    0.0600000   3.930919e-05  8.704828e-09
    287    291   2   0.50000    -0.1200000   -0.4300000   1.095425e-03  1.218041e-06
    287    292   2   0.50000    -0.1200000   -0.3300000   1.026091e-03  1.187829e-06
    289    291   2   0.50000    -0.1800000   -0.4300000   1.095425e-03  1.218041e-06
    289    292   2   0.50000    -0.1800000   -0.3300000   1.026091e-03  1.187829e-06
    302    291   2   0.50000     0.0600000   -0.4300000   1.726228e-04  6.344822e-08
    302    292   2   0.50000     0.0600000   -0.3300000   1.616969e-04  6.187447e-08
    288    293   2   0.50000    -0.0600000    0.1600000   1.015252e-03  1.866303e-06
    291    293   2   0.50000    -0.4300000    0.1600000   1.095425e-03  1.218041e-06
    290    299   2   0.50000     0.5100000    0.0300000   2.482000e-04  1.854991e-07
    290    300   2   0.50000     0.5100000    0.0300000   2.482000e-04  1.854991e-07
    290    301   2   0.50000     0.5100000    0.0300000   2.482000e-04  1.854991e-07

[ angles ]
; ai  aj  ak
      2      1      8   1    110.7000    313.8000
      2      1      9   1    110.7000    313.8000
      2      1     16   1    110.7000    313.8000
      8      1      9   1    107.8000    276.1440
      8      1     16   1    107.8000    276.1440
      9      1     16   1    107.8000    276.1440
      1      2      3   1    112.7000    488.2728
      1      2      4   1    111.1000    527.1840
      1      2     17   1    112.7000    488.2728
      3      2      4   1    111.1000    527.1840
      3      2     17   1    112.7000    488.2728
      4      2     17   1    111.1000    527.1840
      2      3     10   1    110.7000    313.8000
      2      3     11   1    110.7000    313.8000
      2      3     12   1    110.7000    313.8000
     10      3     11   1    107.8000    276.1440
     10      3     12   1    107.8000    276.1440
     11      3     12   1    107.8000    276.1440
      2      4      5   1    120.4000    669.4400
      2      4      6   1    111.4000    677.8080
      5      4      6   1    123.4000    694.5440
      4      6      7   1    116.9000    694.5440
      6      7     13   1    109.5000    292.8800
      6      7     14   1    109.5000    292.8800
      6      7     15   1    109.5000    292.8800
     13      7     14   1    107.8000    276.1440
     13      7     15   1    107.8000    276.1440
     14      7     15   1    107.8000    276.1440
      2     17     18   1    112.7000    488.2728
      2     17     24   1    110.7000    313.8000
      2     17     25   1    110.7000    313.8000
     18     17     24   1    110.7000    313.8000
     18     17     25   1    110.7000    313.8000
     24     17     25   1    107.8000    276.1440
     17     18     19   1    112.7000    488.2728
     17     18     20   1    111.1000    527.1840
     17     18     32   1    112.7000    488.2728
     19     18     20   1    111.1000    527.1840
     19     18     32   1    112.7000    488.2728
     20     18     32   1    111.1000    527.1840
     18     19     26   1    110.7000    313.8000
     18     19     27   1    110.7000    313.8000
     18     19     28   1    110.7000    313.8000
     26     19     27   1    107.8000    276.1440
     26     19     28   1    107.8000    276.1440
     27     19     28   1    107.8000    276.1440
     18     20     21   1    120.4000    669.4400
     18     20     22   1    111.4000    677.8080
     21     20     22   1    123.4000    694.5440
     20     22     23   1    116.9000    694.5440
     22     23     29   1    109.5000    292.8800
     22     23     30   1    109.5000    292.8800
     22     23     31   1    109.5000    292.8800
     29     23     30   1    107.8000    276.1440
     29     23     31   1    107.8000    276.1440
     30     23     31   1    107.8000    276.1440
     18     32     33   1    112.7000    488.2728
     18     32     39   1    110.7000    313.8000
     18     32     40   1    110.7000    313.8000
     33     32     39   1    110.7000    313.8000
     33     32     40   1    110.7000    313.8000
     39     32     40   1    107.8000    276.1440
     32     33     34   1    112.7000    488.2728
     32     33     35   1    111.1000    527.1840
     32     33     47   1    112.7000    488.2728
     34     33     35   1    111.1000    527.1840
     34     33     47   1    112.7000    488.2728
     35     33     47   1    111.1000    527.1840
     33     34     41   1    110.7000    313.8000
     33     34     42   1    110.7000    313.8000
     33     34     43   1    110.7000    313.8000
     41     34     42   1    107.8000    276.1440
     41     34     43   1    107.8000    276.1440
     42     34     43   1    107.8000    276.1440
     33     35     36   1    120.4000    669.4400
     33     35     37   1    111.4000    677.8080
     36     35     37   1    123.4000    694.5440
     35     37     38   1    116.9000    694.5440
     37     38     44   1    109.5000    292.8800
     37     38     45   1    109.5000    292.8800
     37     38     46   1    109.5000    292.8800
     44     38     45   1    107.8000    276.1440
     44     38     46   1    107.8000    276.1440
     45     38     46   1    107.8000    276.1440
     33     47     48   1    112.7000    488.2728
     33     47     54   1    110.7000    313.8000
     33     47     55   1    110.7000    313.8000
     48     47     54   1    110.7000    313.8000
     48     47     55   1    110.7000    313.8000
     54     47     55   1    107.8000    276.1440
     47     48     49   1    112.7000    488.2728
     47     48     50   1    111.1000    527.1840
     47     48     62   1    112.7000    488.2728
     49     48     50   1    111.1000    527.1840
     49     48     62   1    112.7000    488.2728
     50     48     62   1    111.1000    527.1840
     48     49     56   1    110.7000    313.8000
     48     49     57   1    110.7000    313.8000
     48     49     58   1    110.7000    313.8000
     56     49     57   1    107.8000    276.1440
     56     49     58   1    107.8000    276.1440
     57     49     58   1    107.8000    276.1440
     48     50     51   1    120.4000    669.4400
     48     50     52   1    111.4000    677.8080
     51     50     52   1    123.4000    694.5440
     50     52     53   1    116.9000    694.5440
     52     53     59   1    109.5000    292.8800
     52     53     60   1    109.5000    292.8800
     52     53     61   1    109.5000    292.8800
     59     53     60   1    107.8000    276.1440
     59     53     61   1    107.8000    276.1440
     60     53     61   1    107.8000    276.1440
     48     62     63   1    112.7000    488.2728
     48     62     69   1    110.7000    313.8000
     48     62     70   1    110.7000    313.8000
     63     62     69   1    110.7000    313.8000
     63     62     70   1    110.7000    313.8000
     69     62     70   1    107.8000    276.1440
     62     63     64   1    112.7000    488.2728
     62     63     65   1    111.1000    527.1840
     62     63     77   1    112.7000    488.2728
     64     63     65   1    111.1000    527.1840
     64     63     77   1    112.7000    488.2728
     65     63     77   1    111.1000    527.1840
     63     64     71   1    110.7000    313.8000
     63     64     72   1    110.7000    313.8000
     63     64     73   1    110.7000    313.8000
     71     64     72   1    107.8000    276.1440
     71     64     73   1    107.8000    276.1440
     72     64     73   1    107.8000    276.1440
     63     65     66   1    120.4000    669.4400
     63     65     67   1    111.4000    677.8080
     66     65     67   1    123.4000    694.5440
     65     67     68   1    116.9000    694.5440
     67     68     74   1    109.5000    292.8800
     67     68     75   1    109.5000    292.8800
     67     68     76   1    109.5000    292.8800
     74     68     75   1    107.8000    276.1440
     74     68     76   1    107.8000    276.1440
     75     68     76   1    107.8000    276.1440
     63     77     78   1    112.7000    488.2728
     63     77     84   1    110.7000    313.8000
     63     77     85   1    110.7000    313.8000
     78     77     84   1    110.7000    313.8000
     78     77     85   1    110.7000    313.8000
     84     77     85   1    107.8000    276.1440
     77     78     79   1    112.7000    488.2728
     77     78     80   1    111.1000    527.1840
     77     78     92   1    112.7000    488.2728
     79     78     80   1    111.1000    527.1840
     79     78     92   1    112.7000    488.2728
     80     78     92   1    111.1000    527.1840
     78     79     86   1    110.7000    313.8000
     78     79     87   1    110.7000    313.8000
     78     79     88   1    110.7000    313.8000
     86     79     87   1    107.8000    276.1440
     86     79     88   1    107.8000    276.1440
     87     79     88   1    107.8000    276.1440
     78     80     81   1    120.4000    669.4400
     78     80     82   1    111.4000    677.8080
     81     80     82   1    123.4000    694.5440
     80     82     83   1    116.9000    694.5440
     82     83     89   1    109.5000    292.8800
     82     83     90   1    109.5000    292.8800
     82     83     91   1    109.5000    292.8800
     89     83     90   1    107.8000    276.1440
     89     83     91   1    107.8000    276.1440
     90     83     91   1    107.8000    276.1440
     78     92     93   1    112.7000    488.2728
     78     92     99   1    110.7000    313.8000
     78     92    100   1    110.7000    313.8000
     93     92     99   1    110.7000    313.8000
     93     92    100   1    110.7000    313.8000
     99     92    100   1    107.8000    276.1440
     92     93     94   1    112.7000    488.2728
     92     93     95   1    111.1000    527.1840
     92     93    107   1    112.7000    488.2728
     94     93     95   1    111.1000    527.1840
     94     93    107   1    112.7000    488.2728
     95     93    107   1    111.1000    527.1840
     93     94    101   1    110.7000    313.8000
     93     94    102   1    110.7000    313.8000
     93     94    103   1    110.7000    313.8000
    101     94    102   1    107.8000    276.1440
    101     94    103   1    107.8000    276.1440
    102     94    103   1    107.8000    276.1440
     93     95     96   1    120.4000    669.4400
     93     95     97   1    111.4000    677.8080
     96     95     97   1    123.4000    694.5440
     95     97     98   1    116.9000    694.5440
     97     98    104   1    109.5000    292.8800
     97     98    105   1    109.5000    292.8800
     97     98    106   1    109.5000    292.8800
    104     98    105   1    107.8000    276.1440
    104     98    106   1    107.8000    276.1440
    105     98    106   1    107.8000    276.1440
     93    107    108   1    112.7000    488.2728
     93    107    114   1    110.7000    313.8000
     93    107    115   1    110.7000    313.8000
    108    107    114   1    110.7000    313.8000
    108    107    115   1    110.7000    313.8000
    114    107    115   1    107.8000    276.1440
    107    108    109   1    112.7000    488.2728
    107    108    110   1    111.1000    527.1840
    107    108    122   1    112.7000    488.2728
    109    108    110   1    111.1000    527.1840
    109    108    122   1    112.7000    488.2728
    110    108    122   1    111.1000    527.1840
    108    109    116   1    110.7000    313.8000
    108    109    117   1    110.7000    313.8000
    108    109    118   1    110.7000    313.8000
    116    109    117   1    107.8000    276.1440
    116    109    118   1    107.8000    276.1440
    117    109    118   1    107.8000    276.1440
    108    110    111   1    120.4000    669.4400
    108    110    112   1    111.4000    677.8080
    111    110    112   1    123.4000    694.5440
    110    112    113   1    116.9000    694.5440
    112    113    119   1    109.5000    292.8800
    112    113    120   1    109.5000    292.8800
    112    113    121   1    109.5000    292.8800
    119    113    120   1    107.8000    276.1440
    119    113    121   1    107.8000    276.1440
    120    113    121   1    107.8000    276.1440
    108    122    123   1    112.7000    488.2728
    108    122    129   1    110.7000    313.8000
    108    122    130   1    110.7000    313.8000
    123    122    129   1    110.7000    313.8000
    123    122    130   1    110.7000    313.8000
    129    122    130   1    107.8000    276.1440
    122    123    124   1    112.7000    488.2728
    122    123    125   1    111.1000    527.1840
    122    123    137   1    112.7000    488.2728
    124    123    125   1    111.1000    527.1840
    124    123    137   1    112.7000    488.2728
    125    123    137   1    111.1000    527.1840
    123    124    131   1    110.7000    313.8000
    123    124    132   1    110.7000    313.8000
    123    124    133   1    110.7000    313.8000
    131    124    132   1    107.8000    276.1440
    131    124    133   1    107.8000    276.1440
    132    124    133   1    107.8000    276.1440
    123    125    126   1    120.4000    669.4400
    123    125    127   1    111.4000    677.8080
    126    125    127   1    123.4000    694.5440
    125    127    128   1    116.9000    694.5440
    127    128    134   1    109.5000    292.8800
    127    128    135   1    109.5000    292.8800
    127    128    136   1    109.5000    292.8800
    134    128    135   1    107.8000    276.1440
    134    128    136   1    107.8000    276.1440
    135    128    136   1    107.8000    276.1440
    123    137    138   1    112.7000    488.2728
    123    137    144   1    110.7000    313.8000
    123    137    145   1    110.7000    313.8000
    138    137    144   1    110.7000    313.8000
    138    137    145   1    110.7000    313.8000
    144    137    145   1    107.8000    276.1440
    137    138    139   1    112.7000    488.2728
    137    138    140   1    111.1000    527.1840
    137    138    152   1    112.7000    488.2728
    139    138    140   1    111.1000    527.1840
    139    138    152   1    112.7000    488.2728
    140    138    152   1    111.1000    527.1840
    138    139    146   1    110.7000    313.8000
    138    139    147   1    110.7000    313.8000
    138    139    148   1    110.7000    313.8000
    146    139    147   1    107.8000    276.1440
    146    139    148   1    107.8000    276.1440
    147    139    148   1    107.8000    276.1440
    138    140    141   1    120.4000    669.4400
    138    140    142   1    111.4000    677.8080
    141    140    142   1    123.4000    694.5440
    140    142    143   1    116.9000    694.5440
    142    143    149   1    109.5000    292.8800
    142    143    150   1    109.5000    292.8800
    142    143    151   1    109.5000    292.8800
    149    143    150   1    107.8000    276.1440
    149    143    151   1    107.8000    276.1440
    150    143    151   1    107.8000    276.1440
    138    152    153   1    112.7000    488.2728
    138    152    159   1    110.7000    313.8000
    138    152    160   1    110.7000    313.8000
    153    152    159   1    110.7000    313.8000
    153    152    160   1    110.7000    313.8000
    159    152    160   1    107.8000    276.1440
    152    153    154   1    112.7000    488.2728
    152    153    155   1    111.1000    527.1840
    152    153    167   1    112.7000    488.2728
    154    153    155   1    111.1000    527.1840
    154    153    167   1    112.7000    488.2728
    155    153    167   1    111.1000    527.1840
    153    154    161   1    110.7000    313.8000
    153    154    162   1    110.7000    313.8000
    153    154    163   1    110.7000    313.8000
    161    154    162   1    107.8000    276.1440
    161    154    163   1    107.8000    276.1440
    162    154    163   1    107.8000    276.1440
    153    155    156   1    120.4000    669.4400
    153    155    157   1    111.4000    677.8080
    156    155    157   1    123.4000    694.5440
    155    157    158   1    116.9000    694.5440
    157    158    164   1    109.5000    292.8800
    157    158    165   1    109.5000    292.8800
    157    158    166   1    109.5000    292.8800
    164    158    165   1    107.8000    276.1440
    164    158    166   1    107.8000    276.1440
    165    158    166   1    107.8000    276.1440
    153    167    168   1    112.7000    488.2728
    153    167    174   1    110.7000    313.8000
    153    167    175   1    110.7000    313.8000
    168    167    174   1    110.7000    313.8000
    168    167    175   1    110.7000    313.8000
    174    167    175   1    107.8000    276.1440
    167    168    169   1    112.7000    488.2728
    167    168    170   1    111.1000    527.1840
    167    168    182   1    112.7000    488.2728
    169    168    170   1    111.1000    527.1840
    169    168    182   1    112.7000    488.2728
    170    168    182   1    111.1000    527.1840
    168    169    176   1    110.7000    313.8000
    168    169    177   1    110.7000    313.8000
    168    169    178   1    110.7000    313.8000
    176    169    177   1    107.8000    276.1440
    176    169    178   1    107.8000    276.1440
    177    169    178   1    107.8000    276.1440
    168    170    171   1    120.4000    669.4400
    168    170    172   1    111.4000    677.8080
    171    170    172   1    123.4000    694.5440
    170    172    173   1    116.9000    694.5440
    172    173    179   1    109.5000    292.8800
    172    173    180   1    109.5000    292.8800
    172    173    181   1    109.5000    292.8800
    179    173    180   1    107.8000    276.1440
    179    173    181   1    107.8000    276.1440
    180    173    181   1    107.8000    276.1440
    168    182    183   1    112.7000    488.2728
    168    182    189   1    110.7000    313.8000
    168    182    190   1    110.7000    313.8000
    183    182    189   1    110.7000    313.8000
    183    182    190   1    110.7000    313.8000
    189    182    190   1    107.8000    276.1440
    182    183    184   1    112.7000    488.2728
    182    183    185   1    111.1000    527.1840
    182    183    197   1    112.7000    488.2728
    184    183    185   1    111.1000    527.1840
    184    183    197   1    112.7000    488.2728
    185    183    197   1    111.1000    527.1840
    183    184    191   1    110.7000    313.8000
    183    184    192   1    110.7000    313.8000
    183    184    193   1    110.7000    313.8000
    191    184    192   1    107.8000    276.1440
    191    184    193   1    107.8000    276.1440
    192    184    193   1    107.8000    276.1440
    183    185    186   1    120.4000    669.4400
    183    185    187   1    111.4000    677.8080
    186    185    187   1    123.4000    694.5440
    185    187    188   1    116.9000    694.5440
    187    188    194   1    109.5000    292.8800
    187    188    195   1    109.5000    292.8800
    187    188    196   1    109.5000    292.8800
    194    188    195   1    107.8000    276.1440
    194    188    196   1    107.8000    276.1440
    195    188    196   1    107.8000    276.1440
    183    197    198   1    112.7000    488.2728
    183    197    204   1    110.7000    313.8000
    183    197    205   1    110.7000    313.8000
    198    197    204   1    110.7000    313.8000
    198    197    205   1    110.7000    313.8000
    204    197    205   1    107.8000    276.1440
    197    198    199   1    112.7000    488.2728
    197    198    200   1    111.1000    527.1840
    197    198    212   1    112.7000    488.2728
    199    198    200   1    111.1000    527.1840
    199    198    212   1    112.7000    488.2728
    200    198    212   1    111.1000    527.1840
    198    199    206   1    110.7000    313.8000
    198    199    207   1    110.7000    313.8000
    198    199    208   1    110.7000    313.8000
    206    199    207   1    107.8000    276.1440
    206    199    208   1    107.8000    276.1440
    207    199    208   1    107.8000    276.1440
    198    200    201   1    120.4000    669.4400
    198    200    202   1    111.4000    677.8080
    201    200    202   1    123.4000    694.5440
    200    202    203   1    116.9000    694.5440
    202    203    209   1    109.5000    292.8800
    202    203    210   1    109.5000    292.8800
    202    203    211   1    109.5000    292.8800
    209    203    210   1    107.8000    276.1440
    209    203    211   1    107.8000    276.1440
    210    203    211   1    107.8000    276.1440
    198    212    213   1    112.7000    488.2728
    198    212    219   1    110.7000    313.8000
    198    212    220   1    110.7000    313.8000
    213    212    219   1    110.7000    313.8000
    213    212    220   1    110.7000    313.8000
    219    212    220   1    107.8000    276.1440
    212    213    214   1    112.7000    488.2728
    212    213    215   1    111.1000    527.1840
    212    213    227   1    112.7000    488.2728
    214    213    215   1    111.1000    527.1840
    214    213    227   1    112.7000    488.2728
    215    213    227   1    111.1000    527.1840
    213    214    221   1    110.7000    313.8000
    213    214    222   1    110.7000    313.8000
    213    214    223   1    110.7000    313.8000
    221    214    222   1    107.8000    276.1440
    221    214    223   1    107.8000    276.1440
    222    214    223   1    107.8000    276.1440
    213    215    216   1    120.4000    669.4400
    213    215    217   1    111.4000    677.8080
    216    215    217   1    123.4000    694.5440
    215    217    218   1    116.9000    694.5440
    217    218    224   1    109.5000    292.8800
    217    218    225   1    109.5000    292.8800
    217    218    226   1    109.5000    292.8800
    224    218    225   1    107.8000    276.1440
    224    218    226   1    107.8000    276.1440
    225    218    226   1    107.8000    276.1440
    213    227    228   1    112.7000    488.2728
    213    227    234   1    110.7000    313.8000
    213    227    235   1    110.7000    313.8000
    228    227    234   1    110.7000    313.8000
    228    227    235   1    110.7000    313.8000
    234    227    235   1    107.8000    276.1440
    227    228    229   1    112.7000    488.2728
    227    228    230   1    111.1000    527.1840
    227    228    242   1    112.7000    488.2728
    229    228    230   1    111.1000    527.1840
    229    228    242   1    112.7000    488.2728
    230    228    242   1    111.1000    527.1840
    228    229    236   1    110.7000    313.8000
    228    229    237   1    110.7000    313.8000
    228    229    238   1    110.7000    313.8000
    236    229    237   1    107.8000    276.1440
    236    229    238   1    107.8000    276.1440
    237    229    238   1    107.8000    276.1440
    228    230    231   1    120.4000    669.4400
    228    230    232   1    111.4000    677.8080
    231    230    232   1    123.4000    694.5440
    230    232    233   1    116.9000    694.5440
    232    233    239   1    109.5000    292.8800
    232    233    240   1    109.5000    292.8800
    232    233    241   1    109.5000    292.8800
    239    233    240   1    107.8000    276.1440
    239    233    241   1    107.8000    276.1440
    240    233    241   1    107.8000    276.1440
    228    242    243   1    112.7000    488.2728
    228    242    249   1    110.7000    313.8000
    228    242    250   1    110.7000    313.8000
    243    242    249   1    110.7000    313.8000
    243    242    250   1    110.7000    313.8000
    249    242    250   1    107.8000    276.1440
    242    243    244   1    112.7000    488.2728
    242    243    245   1    111.1000    527.1840
    242    243    257   1    112.7000    488.2728
    244    243    245   1    111.1000    527.1840
    244    243    257   1    112.7000    488.2728
    245    243    257   1    111.1000    527.1840
    243    244    251   1    110.7000    313.8000
    243    244    252   1    110.7000    313.8000
    243    244    253   1    110.7000    313.8000
    251    244    252   1    107.8000    276.1440
    251    244    253   1    107.8000    276.1440
    252    244    253   1    107.8000    276.1440
    243    245    246   1    120.4000    669.4400
    243    245    247   1    111.4000    677.8080
    246    245    247   1    123.4000    694.5440
    245    247    248   1    116.9000    694.5440
    247    248    254   1    109.5000    292.8800
    247    248    255   1    109.5000    292.8800
    247    248    256   1    109.5000    292.8800
    254    248    255   1    107.8000    276.1440
    254    248    256   1    107.8000    276.1440
    255    248    256   1    107.8000    276.1440
    243    257    258   1    112.7000    488.2728
    243    257    264   1    110.7000    313.8000
    243    257    265   1    110.7000    313.8000
    258    257    264   1    110.7000    313.8000
    258    257    265   1    110.7000    313.8000
    264    257    265   1    107.8000    276.1440
    257    258    259   1    112.7000    488.2728
    257    258    260   1    111.1000    527.1840
    257    258    272   1    112.7000    488.2728
    259    258    260   1    111.1000    527.1840
    259    258    272   1    112.7000    488.2728
    260    258    272   1    111.1000    527.1840
    258    259    266   1    110.7000    313.8000
    258    259    267   1    110.7000    313.8000
    258    259    268   1    110.7000    313.8000
    266    259    267   1    107.8000    276.1440
    266    259    268   1    107.8000    276.1440
    267    259    268   1    107.8000    276.1440
    258    260    261   1    120.4000    669.4400
    258    260    262   1    111.4000    677.8080
    261    260    262   1    123.4000    694.5440
    260    262    263   1    116.9000    694.5440
    262    263    269   1    109.5000    292.8800
    262    263    270   1    109.5000    292.8800
    262    263    271   1    109.5000    292.8800
    269    263    270   1    107.8000    276.1440
    269    263    271   1    107.8000    276.1440
    270    263    271   1    107.8000    276.1440
    258    272    273   1    112.7000    488.2728
    258    272    279   1    110.7000    313.8000
    258    272    280   1    110.7000    313.8000
    273    272    279   1    110.7000    313.8000
    273    272    280   1    110.7000    313.8000
    279    272    280   1    107.8000    276.1440
    272    273    274   1    112.7000    488.2728
    272    273    275   1    111.1000    527.1840
    272    273    287   1    112.7000    488.2728
    274    273    275   1    111.1000    527.1840
    274    273    287   1    112.7000    488.2728
    275    273    287   1    111.1000    527.1840
    273    274    281   1    110.7000    313.8000
    273    274    282   1    110.7000    313.8000
    273    274    283   1    110.7000    313.8000
    281    274    282   1    107.8000    276.1440
    281    274    283   1    107.8000    276.1440
    282    274    283   1    107.8000    276.1440
    273    275    276   1    120.4000    669.4400
    273    275    277   1    111.4000    677.8080
    276    275    277   1    123.4000    694.5440
    275    277    278   1    116.9000    694.5440
    277    278    284   1    109.5000    292.8800
    277    278    285   1    109.5000    292.8800
    277    278    286   1    109.5000    292.8800
    284    278    285   1    107.8000    276.1440
    284    278    286   1    107.8000    276.1440
    285    278    286   1    107.8000    276.1440
    273    287    288   1    112.7000    488.2728
    273    287    294   1    110.7000    313.8000
    273    287    295   1    110.7000    313.8000
    288    287    294   1    110.7000    313.8000
    288    287    295   1    110.7000    313.8000
    294    287    295   1    107.8000    276.1440
    287    288    289   1    112.7000    488.2728
    287    288    290   1    111.1000    527.1840
    287    288    302   1    110.7000    313.8000
    289    288    290   1    111.1000    527.1840
    289    288    302   1    110.7000    313.8000
    290    288    302   1    109.5000    292.8800
    288    289    296   1    110.7000    313.8000
    288    289    297   1    110.7000    313.8000
    288    289    298   1    110.7000    313.8000
    296    289    297   1    107.8000    276.1440
    296    289    298   1    107.8000    276.1440
    297    289    298   1    107.8000    276.1440
    288    290    291   1    120.4000    669.4400
    288    290    292   1    111.4000    677.8080
    291    290    292   1    123.4000    694.5440
    290    292    293   1    116.9000    694.5440
    292    293    299   1    109.5000    292.8800
    292    293    300   1    109.5000    292.8800
    292    293    301   1    109.5000    292.8800
    299    293    300   1    107.8000    276.1440
    299    293    301   1    107.8000    276.1440
    300    293    301   1    107.8000    276.1440

[ dihedrals ]
; Proper dihedrals
      8      1      2      3   5     0.00000     0.00000     1.25520  0.0
      8      1      2      4   5     0.00000     0.00000    -0.94140  0.0
      8      1      2     17   5     0.00000     0.00000     1.25520  0.0
      9      1      2      3   5     0.00000     0.00000     1.25520  0.0
      9      1      2      4   5     0.00000     0.00000    -0.94140  0.0
      9      1      2     17   5     0.00000     0.00000     1.25520  0.0
     16      1      2      3   5     0.00000     0.00000     1.25520  0.0
     16      1      2      4   5     0.00000     0.00000    -0.94140  0.0
     16      1      2     17   5     0.00000     0.00000     1.25520  0.0
      1      2      3     10   5     0.00000     0.00000     1.25520  0.0
      1      2      3     11   5     0.00000     0.00000     1.25520  0.0
      1      2      3     12   5     0.00000     0.00000     1.25520  0.0
      4      2      3     10   5     0.00000     0.00000    -0.94140  0.0
      4      2      3     11   5     0.00000     0.00000    -0.94140  0.0
      4      2      3     12   5     0.00000     0.00000    -0.94140  0.0
     17      2      3     10   5     0.00000     0.00000     1.25520  0.0
     17      2      3     11   5     0.00000     0.00000     1.25520  0.0
     17      2      3     12   5     0.00000     0.00000     1.25520  0.0
      1      2      4      5   5     0.00000     2.52295     0.00000  0.0
      1      2      4      6   5     0.00000     0.00000     3.07524  0.0
      3      2      4      5   5     0.00000     2.52295     0.00000  0.0
      3      2      4      6   5     0.00000     0.00000     3.07524  0.0
     17      2      4      5   5     0.00000     2.52295     0.00000  0.0
     17      2      4      6   5     0.00000     0.00000     3.07524  0.0
      1      2     17     18   5     4.74884    -0.63178     1.67360  0.0
      1      2     17     24   5     0.00000     0.00000     1.25520  0.0
      1      2     17     25   5     0.00000     0.00000     1.25520  0.0
      3      2     17     18   5     4.74884    -0.63178     1.67360  0.0
      3      2     17     24   5     0.00000     0.00000     1.25520  0.0
      3      2     17     25   5     0.00000     0.00000     1.25520  0.0
      4      2     17     18   5    -8.00818    -1.52298     2.46438  0.0
      4      2     17     24   5     0.00000     0.00000    -0.94140  0.0
      4      2     17     25   5     0.00000     0.00000    -0.94140  0.0
      2      4      6      7   5    13.65239    24.43456     0.00000  0.0
      5      4      6      7   5     0.00000    25.10400     0.00000  0.0
      4      6      7     13   5     0.00000     0.00000     0.67362  0.0
      4      6      7     14   5     0.00000     0.00000     0.67362  0.0
      4      6      7     15   5     0.00000     0.00000     0.67362  0.0
      2     17     18     19   5     4.74884    -0.63178     1.67360  0.0
      2     17     18     20   5    -8.00818    -1.52298     2.46438  0.0
      2     17     18     32   5     4.74884    -0.63178     1.67360  0.0
     24     17     18     19   5     0.00000     0.00000     1.25520  0.0
     24     17     18     20   5     0.00000     0.00000    -0.94140  0.0
     24     17     18     32   5     0.00000     0.00000     1.25520  0.0
     25     17     18     19   5     0.00000     0.00000     1.25520  0.0
     25     17     18     20   5     0.00000     0.00000    -0.94140  0.0
     25     17     18     32   5     0.00000     0.00000     1.25520  0.0
     17     18     19     26   5     0.00000     0.00000     1.25520  0.0
     17     18     19     27   5     0.00000     0.00000     1.25520  0.0
     17     18     19     28   5     0.00000     0.00000     1.25520  0.0
     20     18     19     26   5     0.00000     0.00000    -0.94140  0.0
     20     18     19     27   5     0.00000     0.00000    -0.94140  0.0
     20     18     19     28   5     0.00000     0.00000    -0.94140  0.0
     32     18     19     26   5     0.00000     0.00000     1.25520  0.0
     32     18     19     27   5     0.00000     0.00000     1.25520  0.0
     32     18     19     28   5     0.00000     0.00000     1.25520  0.0
     17     18     20     21   5     0.00000     2.52295     0.00000  0.0
     17     18     20     22   5     0.00000     0.00000     3.07524  0.0
     19     18     20     21   5     0.00000     2.52295     0.00000  0.0
     19     18     20     22   5     0.00000     0.00000     3.07524  0.0
     32     18     20     21   5     0.00000     2.52295     0.00000  0.0
     32     18     20     22   5     0.00000     0.00000     3.07524  0.0
     17     18     32     33   5     4.74884    -0.63178     1.67360  0.0
     17     18     32     39   5     0.00000     0.00000     1.25520  0.0
     17     18     32     40   5     0.00000     0.00000     1.25520  0.0
     19     18     32     33   5     4.74884    -0.63178     1.67360  0.0
     19     18     32     39   5     0.00000     0.00000     1.25520  0.0
     19     18     32     40   5     0.00000     0.00000     1.25520  0.0
     20     18     32     33   5    -8.00818    -1.52298     2.46438  0.0
     20     18     32     39   5     0.00000     0.00000    -0.94140  0.0
     20     18     32     40   5     0.00000     0.00000    -0.94140  0.0
     18     20     22     23   5    13.65239    24.43456     0.00000  0.0
     21     20     22     23   5     0.00000    25.10400     0.00000  0.0
     20     22     23     29   5     0.00000     0.00000     0.67362  0.0
     20     22     23     30   5     0.00000     0.00000     0.67362  0.0
     20     22     23     31   5     0.00000     0.00000     0.67362  0.0
     18     32     33     34   5     4.74884    -0.63178     1.67360  0.0
     18     32     33     35   5    -8.00818    -1.52298     2.46438  0.0
     18     32     33     47   5     4.74884    -0.63178     1.67360  0.0
     39     32     33     34   5     0.00000     0.00000     1.25520  0.0
     39     32     33     35   5     0.00000     0.00000    -0.94140  0.0
     39     32     33     47   5     0.00000     0.00000     1.25520  0.0
     40     32     33     34   5     0.00000     0.00000     1.25520  0.0
     40     32     33     35   5     0.00000     0.00000    -0.94140  0.0
     40     32     33     47   5     0.00000     0.00000     1.25520  0.0
     32     33     34     41   5     0.00000     0.00000     1.25520  0.0
     32     33     34     42   5     0.00000     0.00000     1.25520  0.0
     32     33     34     43   5     0.00000     0.00000     1.25520  0.0
     35     33     34     41   5     0.00000     0.00000    -0.94140  0.0
     35     33     34     42   5     0.00000     0.00000    -0.94140  0.0
     35     33     34     43   5     0.00000     0.00000    -0.94140  0.0
     47     33     34     41   5     0.00000     0.00000     1.25520  0.0
     47     33     34     42   5     0.00000     0.00000     1.25520  0.0
     47     33     34     43   5     0.00000     0.00000     1.25520  0.0
     32     33     35     36   5     0.00000     2.52295     0.00000  0.0
     32     33     35     37   5     0.00000     0.00000     3.07524  0.0
     34     33     35     36   5     0.00000     2.52295     0.00000  0.0
     34     33     35     37   5     0.00000     0.00000     3.07524  0.0
     47     33     35     36   5     0.00000     2.52295     0.00000  0.0
     47     33     35     37   5     0.00000     0.00000     3.07524  0.0
     32     33     47     48   5     4.74884    -0.63178     1.67360  0.0
     32     33     47     54   5     0.00000     0.00000     1.25520  0.0
     32     33     47     55   5     0.00000     0.00000     1.25520  0.0
     34     33     47     48   5     4.74884    -0.63178     1.67360  0.0
     34     33     47     54   5     0.00000     0.00000     1.25520  0.0
     34     33     47     55   5     0.00000     0.00000     1.25520  0.0
     35     33     47     48   5    -8.00818    -1.52298     2.46438  0.0
     35     33     47     54   5     0.00000     0.00000    -0.94140  0.0
     35     33     47     55   5     0.00000     0.00000    -0.94140  0.0
     33     35     37     38   5    13.65239    24.43456     0.00000  0.0
     36     35     37     38   5     0.00000    25.10400     0.00000  0.0
     35     37     38     44   5     0.00000     0.00000     0.67362  0.0
     35     37     38     45   5     0.00000     0.00000     0.67362  0.0
     35     37     38     46   5     0.00000     0.00000     0.67362  0.0
     33     47     48     49   5     4.74884    -0.63178     1.67360  0.0
     33     47     48     50   5    -8.00818    -1.52298     2.46438  0.0
     33     47     48     62   5     4.74884    -0.63178     1.67360  0.0
     54     47     48     49   5     0.00000     0.00000     1.25520  0.0
     54     47     48     50   5     0.00000     0.00000    -0.94140  0.0
     54     47     48     62   5     0.00000     0.00000     1.25520  0.0
     55     47     48     49   5     0.00000     0.00000     1.25520  0.0
     55     47     48     50   5     0.00000     0.00000    -0.94140  0.0
     55     47     48     62   5     0.00000     0.00000     1.25520  0.0
     47     48     49     56   5     0.00000     0.00000     1.25520  0.0
     47     48     49     57   5     0.00000     0.00000     1.25520  0.0
     47     48     49     58   5     0.00000     0.00000     1.25520  0.0
     50     48     49     56   5     0.00000     0.00000    -0.94140  0.0
     50     48     49     57   5     0.00000     0.00000    -0.94140  0.0
     50     48     49     58   5     0.00000     0.00000    -0.94140  0.0
     62     48     49     56   5     0.00000     0.00000     1.25520  0.0
     62     48     49     57   5     0.00000     0.00000     1.25520  0.0
     62     48     49     58   5     0.00000     0.00000     1.25520  0.0
     47     48     50     51   5     0.00000     2.52295     0.00000  0.0
     47     48     50     52   5     0.00000     0.00000     3.07524  0.0
     49     48     50     51   5     0.00000     2.52295     0.00000  0.0
     49     48     50     52   5     0.00000     0.00000     3.07524  0.0
     62     48     50     51   5     0.00000     2.52295     0.00000  0.0
     62     48     50     52   5     0.00000     0.00000     3.07524  0.0
     47     48     62     63   5     4.74884    -0.63178     1.67360  0.0
     47     48     62     69   5     0.00000     0.00000     1.25520  0.0
     47     48     62     70   5     0.00000     0.00000     1.25520  0.0
     49     48     62     63   5     4.74884    -0.63178     1.67360  0.0
     49     48     62     69   5     0.00000     0.00000     1.25520  0.0
     49     48     62     70   5     0.00000     0.00000     1.25520  0.0
     50     48     62     63   5    -8.00818    -1.52298     2.46438  0.0
     50     48     62     69   5     0.00000     0.00000    -0.94140  0.0
     50     48     62     70   5     0.00000     0.00000    -0.94140  0.0
     48     50     52     53   5    13.65239    24.43456     0.00000  0.0
     51     50     52     53   5     0.00000    25.10400     0.00000  0.0
     50     52     53     59   5     0.00000     0.00000     0.67362  0.0
     50     52     53     60   5     0.00000     0.00000     0.67362  0.0
     50     52     53     61   5     0.00000     0.00000     0.67362  0.0
     48     62     63     64   5     4.74884    -0.63178     1.67360  0.0
     48     62     63     65   5    -8.00818    -1.52298     2.46438  0.0
     48     62     63     77   5     4.74884    -0.63178     1.67360  0.0
     69     62     63     64   5     0.00000     0.00000     1.25520  0.0
     69     62     63     65   5     0.00000     0.00000    -0.94140  0.0
     69     62     63     77   5     0.00000     0.00000     1.25520  0.0
     70     62     63     64   5     0.00000     0.00000     1.25520  0.0
     70     62     63     65   5     0.00000     0.00000    -0.94140  0.0
     70     62     63     77   5     0.00000     0.00000     1.25520  0.0
     62     63     64     71   5     0.00000     0.00000     1.25520  0.0
     62     63     64     72   5     0.00000     0.00000     1.25520  0.0
     62     63     64     73   5     0.00000     0.00000     1.25520  0.0
     65     63     64     71   5     0.00000     0.00000    -0.94140  0.0
     65     63     64     72   5     0.00000     0.00000    -0.94140  0.0
     65     63     64     73   5     0.00000     0.00000    -0.94140  0.0
     77     63     64     71   5     0.00000     0.00000     1.25520  0.0
     77     63     64     72   5     0.00000     0.00000     1.25520  0.0
     77     63     64     73   5     0.00000     0.00000     1.25520  0.0
     62     63     65     66   5     0.00000     2.52295     0.00000  0.0
     62     63     65     67   5     0.00000     0.00000     3.07524  0.0
     64     63     65     66   5     0.00000     2.52295     0.00000  0.0
     64     63     65     67   5     0.00000     0.00000     3.07524  0.0
     77     63     65     66   5     0.00000     2.52295     0.00000  0.0
     77     63     65     67   5     0.00000     0.00000     3.07524  0.0
     62     63     77     78   5     4.74884    -0.63178     1.67360  0.0
     62     63     77     84   5     0.00000     0.00000     1.25520  0.0
     62     63     77     85   5     0.00000     0.00000     1.25520  0.0
     64     63     77     78   5     4.74884    -0.63178     1.67360  0.0
     64     63     77     84   5     0.00000     0.00000     1.25520  0.0
     64     63     77     85   5     0.00000     0.00000     1.25520  0.0
     65     63     77     78   5    -8.00818    -1.52298     2.46438  0.0
     65     63     77     84   5     0.00000     0.00000    -0.94140  0.0
     65     63     77     85   5     0.00000     0.00000    -0.94140  0.0
     63     65     67     68   5    13.65239    24.43456     0.00000  0.0
     66     65     67     68   5     0.00000    25.10400     0.00000  0.0
     65     67     68     74   5     0.00000     0.00000     0.67362  0.0
     65     67     68     75   5     0.00000     0.00000     0.67362  0.0
     65     67     68     76   5     0.00000     0.00000     0.67362  0.0
     63     77     78     79   5     4.74884    -0.63178     1.67360  0.0
     63     77     78     80   5    -8.00818    -1.52298     2.46438  0.0
     63     77     78     92   5     4.74884    -0.63178     1.67360  0.0
     84     77     78     79   5     0.00000     0.00000     1.25520  0.0
     84     77     78     80   5     0.00000     0.00000    -0.94140  0.0
     84     77     78     92   5     0.00000     0.00000     1.25520  0.0
     85     77     78     79   5     0.00000     0.00000     1.25520  0.0
     85     77     78     80   5     0.00000     0.00000    -0.94140  0.0
     85     77     78     92   5     0.00000     0.00000     1.25520  0.0
     77     78     79     86   5     0.00000     0.00000     1.25520  0.0
     77     78     79     87   5     0.00000     0.00000     1.25520  0.0
     77     78     79     88   5     0.00000     0.00000     1.25520  0.0
     80     78     79     86   5     0.00000     0.00000    -0.94140  0.0
     80     78     79     87   5     0.00000     0.00000    -0.94140  0.0
     80     78     79     88   5     0.00000     0.00000    -0.94140  0.0
     92     78     79     86   5     0.00000     0.00000     1.25520  0.0
     92     78     79     87   5     0.00000     0.00000     1.25520  0.0
     92     78     79     88   5     0.00000     0.00000     1.25520  0.0
     77     78     80     81   5     0.00000     2.52295     0.00000  0.0
     77     78     80     82   5     0.00000     0.00000     3.07524  0.0
     79     78     80     81   5     0.00000     2.52295     0.00000  0.0
     79     78     80     82   5     0.00000     0.00000     3.07524  0.0
     92     78     80     81   5     0.00000     2.52295     0.00000  0.0
     92     78     80     82   5     0.00000     0.00000     3.07524  0.0
     77     78     92     93   5     4.74884    -0.63178     1.67360  0.0
     77     78     92     99   5     0.00000     0.00000     1.25520  0.0
     77     78     92    100   5     0.00000     0.00000     1.25520  0.0
     79     78     92     93   5     4.74884    -0.63178     1.67360  0.0
     79     78     92     99   5     0.00000     0.00000     1.25520  0.0
     79     78     92    100   5     0.00000     0.00000     1.25520  0.0
     80     78     92     93   5    -8.00818    -1.52298     2.46438  0.0
     80     78     92     99   5     0.00000     0.00000    -0.94140  0.0
     80     78     92    100   5     0.00000     0.00000    -0.94140  0.0
     78     80     82     83   5    13.65239    24.43456     0.00000  0.0
     81     80     82     83   5     0.00000    25.10400     0.00000  0.0
     80     82     83     89   5     0.00000     0.00000     0.67362  0.0
     80     82     83     90   5     0.00000     0.00000     0.67362  0.0
     80     82     83     91   5     0.00000     0.00000     0.67362  0.0
     78     92     93     94   5     4.74884    -0.63178     1.67360  0.0
     78     92     93     95   5    -8.00818    -1.52298     2.46438  0.0
     78     92     93    107   5     4.74884    -0.63178     1.67360  0.0
     99     92     93     94   5     0.00000     0.00000     1.25520  0.0
     99     92     93     95   5     0.00000     0.00000    -0.94140  0.0
     99     92     93    107   5     0.00000     0.00000     1.25520  0.0
    100     92     93     94   5     0.00000     0.00000     1.25520  0.0
    100     92     93     95   5     0.00000     0.00000    -0.94140  0.0
    100     92     93    107   5     0.00000     0.00000     1.25520  0.0
     92     93     94    101   5     0.00000     0.00000     1.25520  0.0
     92     93     94    102   5     0.00000     0.00000     1.25520  0.0
     92     93     94    103   5     0.00000     0.00000     1.25520  0.0
     95     93     94    101   5     0.00000     0.00000    -0.94140  0.0
     95     93     94    102   5     0.00000     0.00000    -0.94140  0.0
     95     93     94    103   5     0.00000     0.00000    -0.94140  0.0
    107     93     94    101   5     0.00000     0.00000     1.25520  0.0
    107     93     94    102   5     0.00000     0.00000     1.25520  0.0
    107     93     94    103   5     0.00000     0.00000     1.25520  0.0
     92     93     95     96   5     0.00000     2.52295     0.00000  0.0
     92     93     95     97   5     0.00000     0.00000     3.07524  0.0
     94     93     95     96   5     0.00000     2.52295     0.00000  0.0
     94     93     95     97   5     0.00000     0.00000     3.07524  0.0
    107     93     95     96   5     0.00000     2.52295     0.00000  0.0
    107     93     95     97   5     0.00000     0.00000     3.07524  0.0
     92     93    107    108   5     4.74884    -0.63178     1.67360  0.0
     92     93    107    114   5     0.00000     0.00000     1.25520  0.0
     92     93    107    115   5     0.00000     0.00000     1.25520  0.0
     94     93    107    108   5     4.74884    -0.63178     1.67360  0.0
     94     93    107    114   5     0.00000     0.00000     1.25520  0.0
     94     93    107    115   5     0.00000     0.00000     1.25520  0.0
     95     93    107    108   5    -8.00818    -1.52298     2.46438  0.0
     95     93    107    114   5     0.00000     0.00000    -0.94140  0.0
     95     93    107    115   5     0.00000     0.00000    -0.94140  0.0
     93     95     97     98   5    13.65239    24.43456     0.00000  0.0
     96     95     97     98   5     0.00000    25.10400     0.00000  0.0
     95     97     98    104   5     0.00000     0.00000     0.67362  0.0
     95     97     98    105   5     0.00000     0.00000     0.67362  0.0
     95     97     98    106   5     0.00000     0.00000     0.67362  0.0
     93    107    108    109   5     4.74884    -0.63178     1.67360  0.0
     93    107    108    110   5    -8.00818    -1.52298     2.46438  0.0
     93    107    108    122   5     4.74884    -0.63178     1.67360  0.0
    114    107    108    109   5     0.00000     0.00000     1.25520  0.0
    114    107    108    110   5     0.00000     0.00000    -0.94140  0.0
    114    107    108    122   5     0.00000     0.00000     1.25520  0.0
    115    107    108    109   5     0.00000     0.00000     1.25520  0.0
    115    107    108    110   5     0.00000     0.00000    -0.94140  0.0
    115    107    108    122   5     0.00000     0.00000     1.25520  0.0
    107    108    109    116   5     0.00000     0.00000     1.25520  0.0
    107    108    109    117   5     0.00000     0.00000     1.25520  0.0
    107    108    109    118   5     0.00000     0.00000     1.25520  0.0
    110    108    109    116   5     0.00000     0.00000    -0.94140  0.0
    110    108    109    117   5     0.00000     0.00000    -0.94140  0.0
    110    108    109    118   5     0.00000     0.00000    -0.94140  0.0
    122    108    109    116   5     0.00000     0.00000     1.25520  0.0
    122    108    109    117   5     0.00000     0.00000     1.25520  0.0
    122    108    109    118   5     0.00000     0.00000     1.25520  0.0
    107    108    110    111   5     0.00000     2.52295     0.00000  0.0
    107    108    110    112   5     0.00000     0.00000     3.07524  0.0
    109    108    110    111   5     0.00000     2.52295     0.00000  0.0
    109    108    110    112   5     0.00000     0.00000     3.07524  0.0
    122    108    110    111   5     0.00000     2.52295     0.00000  0.0
    122    108    110    112   5     0.00000     0.00000     3.07524  0.0
    107    108    122    123   5     4.74884    -0.63178     1.67360  0.0
    107    108    122    129   5     0.00000     0.00000     1.25520  0.0
    107    108    122    130   5     0.00000     0.00000     1.25520  0.0
    109    108    122    123   5     4.74884    -0.63178     1.67360  0.0
    109    108    122    129   5     0.00000     0.00000     1.25520  0.0
    109    108    122    130   5     0.00000     0.00000     1.25520  0.0
    110    108    122    123   5    -8.00818    -1.52298     2.46438  0.0
    110    108    122    129   5     0.00000     0.00000    -0.94140  0.0
    110    108    122    130   5     0.00000     0.00000    -0.94140  0.0
    108    110    112    113   5    13.65239    24.43456     0.00000  0.0
    111    110    112    113   5     0.00000    25.10400     0.00000  0.0
    110    112    113    119   5     0.00000     0.00000     0.67362  0.0
    110    112    113    120   5     0.00000     0.00000     0.67362  0.0
    110    112    113    121   5     0.00000     0.00000     0.67362  0.0
    108    122    123    124   5     4.74884    -0.63178     1.67360  0.0
    108    122    123    125   5    -8.00818    -1.52298     2.46438  0.0
    108    122    123    137   5     4.74884    -0.63178     1.67360  0.0
    129    122    123    124   5     0.00000     0.00000     1.25520  0.0
    129    122    123    125   5     0.00000     0.00000    -0.94140  0.0
    129    122    123    137   5     0.00000     0.00000     1.25520  0.0
    130    122    123    124   5     0.00000     0.00000     1.25520  0.0
    130    122    123    125   5     0.00000     0.00000    -0.94140  0.0
    130    122    123    137   5     0.00000     0.00000     1.25520  0.0
    122    123    124    131   5     0.00000     0.00000     1.25520  0.0
    122    123    124    132   5     0.00000     0.00000     1.25520  0.0
    122    123    124    133   5     0.00000     0.00000     1.25520  0.0
    125    123    124    131   5     0.00000     0.00000    -0.94140  0.0
    125    123    124    132   5     0.00000     0.00000    -0.94140  0.0
    125    123    124    133   5     0.00000     0.00000    -0.94140  0.0
    137    123    124    131   5     0.00000     0.00000     1.25520  0.0
    137    123    124    132   5     0.00000     0.00000     1.25520  0.0
    137    123    124    133   5     0.00000     0.00000     1.25520  0.0
    122    123    125    126   5     0.00000     2.52295     0.00000  0.0
    122    123    125    127   5     0.00000     0.00000     3.07524  0.0
    124    123    125    126   5     0.00000     2.52295     0.00000  0.0
    124    123    125    127   5     0.00000     0.00000     3.07524  0.0
    137    123    125    126   5     0.00000     2.52295     0.00000  0.0
    137    123    125    127   5     0.00000     0.00000     3.07524  0.0
    122    123    137    138   5     4.74884    -0.63178     1.67360  0.0
    122    123    137    144   5     0.00000     0.00000     1.25520  0.0
    122    123    137    145   5     0.00000     0.00000     1.25520  0.0
    124    123    137    138   5     4.74884    -0.63178     1.67360  0.0
    124    123    137    144   5     0.00000     0.00000     1.25520  0.0
    124    123    137    145   5     0.00000     0.00000     1.25520  0.0
    125    123    137    138   5    -8.00818    -1.52298     2.46438  0.0
    125    123    137    144   5     0.00000     0.00000    -0.94140  0.0
    125    123    137    145   5     0.00000     0.00000    -0.94140  0.0
    123    125    127    128   5    13.65239    24.43456     0.00000  0.0
    126    125    127    128   5     0.00000    25.10400     0.00000  0.0
    125    127    128    134   5     0.00000     0.00000     0.67362  0.0
    125    127    128    135   5     0.00000     0.00000     0.67362  0.0
    125    127    128    136   5     0.00000     0.00000     0.67362  0.0
    123    137    138    139   5     4.74884    -0.63178     1.67360  0.0
    123    137    138    140   5    -8.00818    -1.52298     2.46438  0.0
    123    137    138    152   5     4.74884    -0.63178     1.67360  0.0
    144    137    138    139   5     0.00000     0.00000     1.25520  0.0
    144    137    138    140   5     0.00000     0.00000    -0.94140  0.0
    144    137    138    152   5     0.00000     0.00000     1.25520  0.0
    145    137    138    139   5     0.00000     0.00000     1.25520  0.0
    145    137    138    140   5     0.00000     0.00000    -0.94140  0.0
    145    137    138    152   5     0.00000     0.00000     1.25520  0.0
    137    138    139    146   5     0.00000     0.00000     1.25520  0.0
    137    138    139    147   5     0.00000     0.00000     1.25520  0.0
    137    138    139    148   5     0.00000     0.00000     1.25520  0.0
    140    138    139    146   5     0.00000     0.00000    -0.94140  0.0
    140    138    139    147   5     0.00000     0.00000    -0.94140  0.0
    140    138    139    148   5     0.00000     0.00000    -0.94140  0.0
    152    138    139    146   5     0.00000     0.00000     1.25520  0.0
    152    138    139    147   5     0.00000     0.00000     1.25520  0.0
    152    138    139    148   5     0.00000     0.00000     1.25520  0.0
    137    138    140    141   5     0.00000     2.52295     0.00000  0.0
    137    138    140    142   5     0.00000     0.00000     3.07524  0.0
    139    138    140    141   5     0.00000     2.52295     0.00000  0.0
    139    138    140    142   5     0.00000     0.00000     3.07524  0.0
    152    138    140    141   5     0.00000     2.52295     0.00000  0.0
    152    138    140    142   5     0.00000     0.00000     3.07524  0.0
    137    138    152    153   5     4.74884    -0.63178     1.67360  0.0
    137    138    152    159   5     0.00000     0.00000     1.25520  0.0
    137    138    152    160   5     0.00000     0.00000     1.25520  0.0
    139    138    152    153   5     4.74884    -0.63178     1.67360  0.0
    139    138    152    159   5     0.00000     0.00000     1.25520  0.0
    139    138    152    160   5     0.00000     0.00000     1.25520  0.0
    140    138    152    153   5    -8.00818    -1.52298     2.46438  0.0
    140    138    152    159   5     0.00000     0.00000    -0.94140  0.0
    140    138    152    160   5     0.00000     0.00000    -0.94140  0.0
    138    140    142    143   5    13.65239    24.43456     0.00000  0.0
    141    140    142    143   5     0.00000    25.10400     0.00000  0.0
    140    142    143    149   5     0.00000     0.00000     0.67362  0.0
    140    142    143    150   5     0.00000     0.00000     0.67362  0.0
    140    142    143    151   5     0.00000     0.00000     0.67362  0.0
    138    152    153    154   5     4.74884    -0.63178     1.67360  0.0
    138    152    153    155   5    -8.00818    -1.52298     2.46438  0.0
    138    152    153    167   5     4.74884    -0.63178     1.67360  0.0
    159    152    153    154   5     0.00000     0.00000     1.25520  0.0
    159    152    153    155   5     0.00000     0.00000    -0.94140  0.0
    159    152    153    167   5     0.00000     0.00000     1.25520  0.0
    160    152    153    154   5     0.00000     0.00000     1.25520  0.0
    160    152    153    155   5     0.00000     0.00000    -0.94140  0.0
    160    152    153    167   5     0.00000     0.00000     1.25520  0.0
    152    153    154    161   5     0.00000     0.00000     1.25520  0.0
    152    153    154    162   5     0.00000     0.00000     1.25520  0.0
    152    153    154    163   5     0.00000     0.00000     1.25520  0.0
    155    153    154    161   5     0.00000     0.00000    -0.94140  0.0
    155    153    154    162   5     0.00000     0.00000    -0.94140  0.0
    155    153    154    163   5     0.00000     0.00000    -0.94140  0.0
    167    153    154    161   5     0.00000     0.00000     1.25520  0.0
    167    153    154    162   5     0.00000     0.00000     1.25520  0.0
    167    153    154    163   5     0.00000     0.00000     1.25520  0.0
    152    153    155    156   5     0.00000     2.52295     0.00000  0.0
    152    153    155    157   5     0.00000     0.00000     3.07524  0.0
    154    153    155    156   5     0.00000     2.52295     0.00000  0.0
    154    153    155    157   5     0.00000     0.00000     3.07524  0.0
    167    153    155    156   5     0.00000     2.52295     0.00000  0.0
    167    153    155    157   5     0.00000     0.00000     3.07524  0.0
    152    153    167    168   5     4.74884    -0.63178     1.67360  0.0
    152    153    167    174   5     0.00000     0.00000     1.25520  0.0
    152    153    167    175   5     0.00000     0.00000     1.25520  0.0
    154    153    167    168   5     4.74884    -0.63178     1.67360  0.0
    154    153    167    174   5     0.00000     0.00000     1.25520  0.0
    154    153    167    175   5     0.00000     0.00000     1.25520  0.0
    155    153    167    168   5    -8.00818    -1.52298     2.46438  0.0
    155    153    167    174   5     0.00000     0.00000    -0.94140  0.0
    155    153    167    175   5     0.00000     0.00000    -0.94140  0.0
    153    155    157    158   5    13.65239    24.43456     0.00000  0.0
    156    155    157    158   5     0.00000    25.10400     0.00000  0.0
    155    157    158    164   5     0.00000     0.00000     0.67362  0.0
    155    157    158    165   5     0.00000     0.00000     0.67362  0.0
    155    157    158    166   5     0.00000     0.00000     0.67362  0.0
    153    167    168    169   5     4.74884    -0.63178     1.67360  0.0
    153    167    168    170   5    -8.00818    -1.52298     2.46438  0.0
    153    167    168    182   5     4.74884    -0.63178     1.67360  0.0
    174    167    168    169   5     0.00000     0.00000     1.25520  0.0
    174    167    168    170   5     0.00000     0.00000    -0.94140  0.0
    174    167    168    182   5     0.00000     0.00000     1.25520  0.0
    175    167    168    169   5     0.00000     0.00000     1.25520  0.0
    175    167    168    170   5     0.00000     0.00000    -0.94140  0.0
    175    167    168    182   5     0.00000     0.00000     1.25520  0.0
    167    168    169    176   5     0.00000     0.00000     1.25520  0.0
    167    168    169    177   5     0.00000     0.00000     1.25520  0.0
    167    168    169    178   5     0.00000     0.00000     1.25520  0.0
    170    168    169    176   5     0.00000     0.00000    -0.94140  0.0
    170    168    169    177   5     0.00000     0.00000    -0.94140  0.0
    170    168    169    178   5     0.00000     0.00000    -0.94140  0.0
    182    168    169    176   5     0.00000     0.00000     1.25520  0.0
    182    168    169    177   5     0.00000     0.00000     1.25520  0.0
    182    168    169    178   5     0.00000     0.00000     1.25520  0.0
    167    168    170    171   5     0.00000     2.52295     0.00000  0.0
    167    168    170    172   5     0.00000     0.00000     3.07524  0.0
    169    168    170    171   5     0.00000     2.52295     0.00000  0.0
    169    168    170    172   5     0.00000     0.00000     3.07524  0.0
    182    168    170    171   5     0.00000     2.52295     0.00000  0.0
    182    168    170    172   5     0.00000     0.00000     3.07524  0.0
    167    168    182    183   5     4.74884    -0.63178     1.67360  0.0
    167    168    182    189   5     0.00000     0.00000     1.25520  0.0
    167    168    182    190   5     0.00000     0.00000     1.25520  0.0
    169    168    182    183   5     4.74884    -0.63178     1.67360  0.0
    169    168    182    189   5     0.00000     0.00000     1.25520  0.0
    169    168    182    190   5     0.00000     0.00000     1.25520  0.0
    170    168    182    183   5    -8.00818    -1.52298     2.46438  0.0
    170    168    182    189   5     0.00000     0.00000    -0.94140  0.0
    170    168    182    190   5     0.00000     0.00000    -0.94140  0.0
    168    170    172    173   5    13.65239    24.43456     0.00000  0.0
    171    170    172    173   5     0.00000    25.10400     0.00000  0.0
    170    172    173    179   5     0.00000     0.00000     0.67362  0.0
    170    172    173    180   5     0.00000     0.00000     0.67362  0.0
    170    172    173    181   5     0.00000     0.00000     0.67362  0.0
    168    182    183    184   5     4.74884    -0.63178     1.67360  0.0
    168    182    183    185   5    -8.00818    -1.52298     2.46438  0.0
    168    182    183    197   5     4.74884    -0.63178     1.67360  0.0
    189    182    183    184   5     0.00000     0.00000     1.25520  0.0
    189    182    183    185   5     0.00000     0.00000    -0.94140  0.0
    189    182    183    197   5     0.00000     0.00000     1.25520  0.0
    190    182    183    184   5     0.00000     0.00000     1.25520  0.0
    190    182    183    185   5     0.00000     0.00000    -0.94140  0.0
    190    182    183    197   5     0.00000     0.00000     1.25520  0.0
    182    183    184    191   5     0.00000     0.00000     1.25520  0.0
    182    183    184    192   5     0.00000     0.00000     1.25520  0.0
    182    183    184    193   5     0.00000     0.00000     1.25520  0.0
    185    183    184    191   5     0.00000     0.00000    -0.94140  0.0
    185    183    184    192   5     0.00000     0.00000    -0.94140  0.0
    185    183    184    193   5     0.00000     0.00000    -0.94140  0.0
    197    183    184    191   5     0.00000     0.00000     1.25520  0.0
    197    183    184    192   5     0.00000     0.00000     1.25520  0.0
    197    183    184    193   5     0.00000     0.00000     1.25520  0.0
    182    183    185    186   5     0.00000     2.52295     0.00000  0.0
    182    183    185    187   5     0.00000     0.00000     3.07524  0.0
    184    183    185    186   5     0.00000     2.52295     0.00000  0.0
    184    183    185    187   5     0.00000     0.00000     3.07524  0.0
    197    183    185    186   5     0.00000     2.52295     0.00000  0.0
    197    183    185    187   5     0.00000     0.00000     3.07524  0.0
    182    183    197    198   5     4.74884    -0.63178     1.67360  0.0
    182    183    197    204   5     0.00000     0.00000     1.25520  0.0
    182    183    197    205   5     0.00000     0.00000     1.25520  0.0
    184    183    197    198   5     4.74884    -0.63178     1.67360  0.0
    184    183    197    204   5     0.00000     0.00000     1.25520  0.0
    184    183    197    205   5     0.00000     0.00000     1.25520  0.0
    185    183    197    198   5    -8.00818    -1.52298     2.46438  0.0
    185    183    197    204   5     0.00000     0.00000    -0.94140  0.0
    185    183    197    205   5     0.00000     0.00000    -0.94140  0.0
    183    185    187    188   5    13.65239    24.43456     0.00000  0.0
    186    185    187    188   5     0.00000    25.10400     0.00000  0.0
    185    187    188    194   5     0.00000     0.00000     0.67362  0.0
    185    187    188    195   5     0.00000     0.00000     0.67362  0.0
    185    187    188    196   5     0.00000     0.00000     0.67362  0.0
    183    197    198    199   5     4.74884    -0.63178     1.67360  0.0
    183    197    198    200   5    -8.00818    -1.52298     2.46438  0.0
    183    197    198    212   5     4.74884    -0.63178     1.67360  0.0
    204    197    198    199   5     0.00000     0.00000     1.25520  0.0
    204    197    198    200   5     0.00000     0.00000    -0.94140  0.0
    204    197    198    212   5     0.00000     0.00000     1.25520  0.0
    205    197    198    199   5     0.00000     0.00000     1.25520  0.0
    205    197    198    200   5     0.00000     0.00000    -0.94140  0.0
    205    197    198    212   5     0.00000     0.00000     1.25520  0.0
    197    198    199    206   5     0.00000     0.00000     1.25520  0.0
    197    198    199    207   5     0.00000     0.00000     1.25520  0.0
    197    198    199    208   5     0.00000     0.00000     1.25520  0.0
    200    198    199    206   5     0.00000     0.00000    -0.94140  0.0
    200    198    199    207   5     0.00000     0.00000    -0.94140  0.0
    200    198    199    208   5     0.00000     0.00000    -0.94140  0.0
    212    198    199    206   5     0.00000     0.00000     1.25520  0.0
    212    198    199    207   5     0.00000     0.00000     1.25520  0.0
    212    198    199    208   5     0.00000     0.00000     1.25520  0.0
    197    198    200    201   5     0.00000     2.52295     0.00000  0.0
    197    198    200    202   5     0.00000     0.00000     3.07524  0.0
    199    198    200    201   5     0.00000     2.52295     0.00000  0.0
    199    198    200    202   5     0.00000     0.00000     3.07524  0.0
    212    198    200    201   5     0.00000     2.52295     0.00000  0.0
    212    198    200    202   5     0.00000     0.00000     3.07524  0.0
    197    198    212    213   5     4.74884    -0.63178     1.67360  0.0
    197    198    212    219   5     0.00000     0.00000     1.25520  0.0
    197    198    212    220   5     0.00000     0.00000     1.25520  0.0
    199    198    212    213   5     4.74884    -0.63178     1.67360  0.0
    199    198    212    219   5     0.00000     0.00000     1.25520  0.0
    199    198    212    220   5     0.00000     0.00000     1.25520  0.0
    200    198    212    213   5    -8.00818    -1.52298     2.46438  0.0
    200    198    212    219   5     0.00000     0.00000    -0.94140  0.0
    200    198    212    220   5     0.00000     0.00000    -0.94140  0.0
    198    200    202    203   5    13.65239    24.43456     0.00000  0.0
    201    200    202    203   5     0.00000    25.10400     0.00000  0.0
    200    202    203    209   5     0.00000     0.00000     0.67362  0.0
    200    202    203    210   5     0.00000     0.00000     0.67362  0.0
    200    202    203    211   5     0.00000     0.00000     0.67362  0.0
    198    212    213    214   5     4.74884    -0.63178     1.67360  0.0
    198    212    213    215   5    -8.00818    -1.52298     2.46438  0.0
    198    212    213    227   5     4.74884    -0.63178     1.67360  0.0
    219    212    213    214   5     0.00000     0.00000     1.25520  0.0
    219    212    213    215   5     0.00000     0.00000    -0.94140  0.0
    219    212    213    227   5     0.00000     0.00000     1.25520  0.0
    220    212    213    214   5     0.00000     0.00000     1.25520  0.0
    220    212    213    215   5     0.00000     0.00000    -0.94140  0.0
    220    212    213    227   5     0.00000     0.00000     1.25520  0.0
    212    213    214    221   5     0.00000     0.00000     1.25520  0.0
    212    213    214    222   5     0.00000     0.00000     1.25520  0.0
    212    213    214    223   5     0.00000     0.00000     1.25520  0.0
    215    213    214    221   5     0.00000     0.00000    -0.94140  0.0
    215    213    214    222   5     0.00000     0.00000    -0.94140  0.0
    215    213    214    223   5     0.00000     0.00000    -0.94140  0.0
    227    213    214    221   5     0.00000     0.00000     1.25520  0.0
    227    213    214    222   5     0.00000     0.00000     1.25520  0.0
    227    213    214    223   5     0.00000     0.00000     1.25520  0.0
    212    213    215    216   5     0.00000     2.52295     0.00000  0.0
    212    213    215    217   5     0.00000     0.00000     3.07524  0.0
    214    213    215    216   5     0.00000     2.52295     0.00000  0.0
    214    213    215    217   5     0.00000     0.00000     3.07524  0.0
    227    213    215    216   5     0.00000     2.52295     0.00000  0.0
    227    213    215    217   5     0.00000     0.00000     3.07524  0.0
    212    213    227    228   5     4.74884    -0.63178     1.67360  0.0
    212    213    227    234   5     0.00000     0.00000     1.25520  0.0
    212    213    227    235   5     0.00000     0.00000     1.25520  0.0
    214    213    227    228   5     4.74884    -0.63178     1.67360  0.0
    214    213    227    234   5     0.00000     0.00000     1.25520  0.0
    214    213    227    235   5     0.00000     0.00000     1.25520  0.0
    215    213    227    228   5    -8.00818    -1.52298     2.46438  0.0
    215    213    227    234   5     0.00000     0.00000    -0.94140  0.0
    215    213    227    235   5     0.00000     0.00000    -0.94140  0.0
    213    215    217    218   5    13.65239    24.43456     0.00000  0.0
    216    215    217    218   5     0.00000    25.10400     0.00000  0.0
    215    217    218    224   5     0.00000     0.00000     0.67362  0.0
    215    217    218    225   5     0.00000     0.00000     0.67362  0.0
    215    217    218    226   5     0.00000     0.00000     0.67362  0.0
    213    227    228    229   5     4.74884    -0.63178     1.67360  0.0
    213    227    228    230   5    -8.00818    -1.52298     2.46438  0.0
    213    227    228    242   5     4.74884    -0.63178     1.67360  0.0
    234    227    228    229   5     0.00000     0.00000     1.25520  0.0
    234    227    228    230   5     0.00000     0.00000    -0.94140  0.0
    234    227    228    242   5     0.00000     0.00000     1.25520  0.0
    235    227    228    229   5     0.00000     0.00000     1.25520  0.0
    235    227    228    230   5     0.00000     0.00000    -0.94140  0.0
    235    227    228    242   5     0.00000     0.00000     1.25520  0.0
    227    228    229    236   5     0.00000     0.00000     1.25520  0.0
    227    228    229    237   5     0.00000     0.00000     1.25520  0.0
    227    228    229    238   5     0.00000     0.00000     1.25520  0.0
    230    228    229    236   5     0.00000     0.00000    -0.94140  0.0
    230    228    229    237   5     0.00000     0.00000    -0.94140  0.0
    230    228    229    238   5     0.00000     0.00000    -0.94140  0.0
    242    228    229    236   5     0.00000     0.00000     1.25520  0.0
    242    228    229    237   5     0.00000     0.00000     1.25520  0.0
    242    228    229    238   5     0.00000     0.00000     1.25520  0.0
    227    228    230    231   5     0.00000     2.52295     0.00000  0.0
    227    228    230    232   5     0.00000     0.00000     3.07524  0.0
    229    228    230    231   5     0.00000     2.52295     0.00000  0.0
    229    228    230    232   5     0.00000     0.00000     3.07524  0.0
    242    228    230    231   5     0.00000     2.52295     0.00000  0.0
    242    228    230    232   5     0.00000     0.00000     3.07524  0.0
    227    228    242    243   5     4.74884    -0.63178     1.67360  0.0
    227    228    242    249   5     0.00000     0.00000     1.25520  0.0
    227    228    242    250   5     0.00000     0.00000     1.25520  0.0
    229    228    242    243   5     4.74884    -0.63178     1.67360  0.0
    229    228    242    249   5     0.00000     0.00000     1.25520  0.0
    229    228    242    250   5     0.00000     0.00000     1.25520  0.0
    230    228    242    243   5    -8.00818    -1.52298     2.46438  0.0
    230    228    242    249   5     0.00000     0.00000    -0.94140  0.0
    230    228    242    250   5     0.00000     0.00000    -0.94140  0.0
    228    230    232    233   5    13.65239    24.43456     0.00000  0.0
    231    230    232    233   5     0.00000    25.10400     0.00000  0.0
    230    232    233    239   5     0.00000     0.00000     0.67362  0.0
    230    232    233    240   5     0.00000     0.00000     0.67362  0.0
    230    232    233    241   5     0.00000     0.00000     0.67362  0.0
    228    242    243    244   5     4.74884    -0.63178     1.67360  0.0
    228    242    243    245   5    -8.00818    -1.52298     2.46438  0.0
    228    242    243    257   5     4.74884    -0.63178     1.67360  0.0
    249    242    243    244   5     0.00000     0.00000     1.25520  0.0
    249    242    243    245   5     0.00000     0.00000    -0.94140  0.0
    249    242    243    257   5     0.00000     0.00000     1.25520  0.0
    250    242    243    244   5     0.00000     0.00000     1.25520  0.0
    250    242    243    245   5     0.00000     0.00000    -0.94140  0.0
    250    242    243    257   5     0.00000     0.00000     1.25520  0.0
    242    243    244    251   5     0.00000     0.00000     1.25520  0.0
    242    243    244    252   5     0.00000     0.00000     1.25520  0.0
    242    243    244    253   5     0.00000     0.00000     1.25520  0.0
    245    243    244    251   5     0.00000     0.00000    -0.94140  0.0
    245    243    244    252   5     0.00000     0.00000    -0.94140  0.0
    245    243    244    253   5     0.00000     0.00000    -0.94140  0.0
    257    243    244    251   5     0.00000     0.00000     1.25520  0.0
    257    243    244    252   5     0.00000     0.00000     1.25520  0.0
    257    243    244    253   5     0.00000     0.00000     1.25520  0.0
    242    243    245    246   5     0.00000     2.52295     0.00000  0.0
    242    243    245    247   5     0.00000     0.00000     3.07524  0.0
    244    243    245    246   5     0.00000     2.52295     0.00000  0.0
    244    243    245    247   5     0.00000     0.00000     3.07524  0.0
    257    243    245    246   5     0.00000     2.52295     0.00000  0.0
    257    243    245    247   5     0.00000     0.00000     3.07524  0.0
    242    243    257    258   5     4.74884    -0.63178     1.67360  0.0
    242    243    257    264   5     0.00000     0.00000     1.25520  0.0
    242    243    257    265   5     0.00000     0.00000     1.25520  0.0
    244    243    257    258   5     4.74884    -0.63178     1.67360  0.0
    244    243    257    264   5     0.00000     0.00000     1.25520  0.0
    244    243    257    265   5     0.00000     0.00000     1.25520  0.0
    245    243    257    258   5    -8.00818    -1.52298     2.46438  0.0
    245    243    257    264   5     0.00000     0.00000    -0.94140  0.0
    245    243    257    265   5     0.00000     0.00000    -0.94140  0.0
    243    245    247    248   5    13.65239    24.43456     0.00000  0.0
    246    245    247    248   5     0.00000    25.10400     0.00000  0.0
    245    247    248    254   5     0.00000     0.00000     0.67362  0.0
    245    247    248    255   5     0.00000     0.00000     0.67362  0.0
    245    247    248    256   5     0.00000     0.00000     0.67362  0.0
    243    257    258    259   5     4.74884    -0.63178     1.67360  0.0
    243    257    258    260   5    -8.00818    -1.52298     2.46438  0.0
    243    257    258    272   5     4.74884    -0.63178     1.67360  0.0
    264    257    258    259   5     0.00000     0.00000     1.25520  0.0
    264    257    258    260   5     0.00000     0.00000    -0.94140  0.0
    264    257    258    272   5     0.00000     0.00000     1.25520  0.0
    265    257    258    259   5     0.00000     0.00000     1.25520  0.0
    265    257    258    260   5     0.00000     0.00000    -0.94140  0.0
    265    257    258    272   5     0.00000     0.00000     1.25520  0.0
    257    258    259    266   5     0.00000     0.00000     1.25520  0.0
    257    258    259    267   5     0.00000     0.00000     1.25520  0.0
    257    258    259    268   5     0.00000     0.00000     1.25520  0.0
    260    258    259    266   5     0.00000     0.00000    -0.94140  0.0
    260    258    259    267   5     0.00000     0.00000    -0.94140  0.0
    260    258    259    268   5     0.00000     0.00000    -0.94140  0.0
    272    258    259    266   5     0.00000     0.00000     1.25520  0.0
    272    258    259    267   5     0.00000     0.00000     1.25520  0.0
    272    258    259    268   5     0.00000     0.00000     1.25520  0.0
    257    258    260    261   5     0.00000     2.52295     0.00000  0.0
    257    258    260    262   5     0.00000     0.00000     3.07524  0.0
    259    258    260    261   5     0.00000     2.52295     0.00000  0.0
    259    258    260    262   5     0.00000     0.00000     3.07524  0.0
    272    258    260    261   5     0.00000     2.52295     0.00000  0.0
    272    258    260    262   5     0.00000     0.00000     3.07524  0.0
    257    258    272    273   5     4.74884    -0.63178     1.67360  0.0
    257    258    272    279   5     0.00000     0.00000     1.25520  0.0
    257    258    272    280   5     0.00000     0.00000     1.25520  0.0
    259    258    272    273   5     4.74884    -0.63178     1.67360  0.0
    259    258    272    279   5     0.00000     0.00000     1.25520  0.0
    259    258    272    280   5     0.00000     0.00000     1.25520  0.0
    260    258    272    273   5    -8.00818    -1.52298     2.46438  0.0
    260    258    272    279   5     0.00000     0.00000    -0.94140  0.0
    260    258    272    280   5     0.00000     0.00000    -0.94140  0.0
    258    260    262    263   5    13.65239    24.43456     0.00000  0.0
    261    260    262    263   5     0.00000    25.10400     0.00000  0.0
    260    262    263    269   5     0.00000     0.00000     0.67362  0.0
    260    262    263    270   5     0.00000     0.00000     0.67362  0.0
    260    262    263    271   5     0.00000     0.00000     0.67362  0.0
    258    272    273    274   5     4.74884    -0.63178     1.67360  0.0
    258    272    273    275   5    -8.00818    -1.52298     2.46438  0.0
    258    272    273    287   5     4.74884    -0.63178     1.67360  0.0
    279    272    273    274   5     0.00000     0.00000     1.25520  0.0
    279    272    273    275   5     0.00000     0.00000    -0.94140  0.0
    279    272    273    287   5     0.00000     0.00000     1.25520  0.0
    280    272    273    274   5     0.00000     0.00000     1.25520  0.0
    280    272    273    275   5     0.00000     0.00000    -0.94140  0.0
    280    272    273    287   5     0.00000     0.00000     1.25520  0.0
    272    273    274    281   5     0.00000     0.00000     1.25520  0.0
    272    273    274    282   5     0.00000     0.00000     1.25520  0.0
    272    273    274    283   5     0.00000     0.00000     1.25520  0.0
    275    273    274    281   5     0.00000     0.00000    -0.94140  0.0
    275    273    274    282   5     0.00000     0.00000    -0.94140  0.0
    275    273    274    283   5     0.00000     0.00000    -0.94140  0.0
    287    273    274    281   5     0.00000     0.00000     1.25520  0.0
    287    273    274    282   5     0.00000     0.00000     1.25520  0.0
    287    273    274    283   5     0.00000     0.00000     1.25520  0.0
    272    273    275    276   5     0.00000     2.52295     0.00000  0.0
    272    273    275    277   5     0.00000     0.00000     3.07524  0.0
    274    273    275    276   5     0.00000     2.52295     0.00000  0.0
    274    273    275    277   5     0.00000     0.00000     3.07524  0.0
    287    273    275    276   5     0.00000     2.52295     0.00000  0.0
    287    273    275    277   5     0.00000     0.00000     3.07524  0.0
    272    273    287    288   5     4.74884    -0.63178     1.67360  0.0
    272    273    287    294   5     0.00000     0.00000     1.25520  0.0
    272    273    287    295   5     0.00000     0.00000     1.25520  0.0
    274    273    287    288   5     4.74884    -0.63178     1.67360  0.0
    274    273    287    294   5     0.00000     0.00000     1.25520  0.0
    274    273    287    295   5     0.00000     0.00000     1.25520  0.0
    275    273    287    288   5    -8.00818    -1.52298     2.46438  0.0
    275    273    287    294   5     0.00000     0.00000    -0.94140  0.0
    275    273    287    295   5     0.00000     0.00000    -0.94140  0.0
    273    275    277    278   5    13.65239    24.43456     0.00000  0.0
    276    275    277    278   5     0.00000    25.10400     0.00000  0.0
    275    277    278    284   5     0.00000     0.00000     0.67362  0.0
    275    277    278    285   5     0.00000     0.00000     0.67362  0.0
    275    277    278    286   5     0.00000     0.00000     0.67362  0.0
    273    287    288    289   5     4.74884    -0.63178     1.67360  0.0
    273    287    288    290   5    -8.00818    -1.52298     2.46438  0.0
    273    287    288    302   5     0.00000     0.00000     1.25520  0.0
    294    287    288    289   5     0.00000     0.00000     1.25520  0.0
    294    287    288    290   5     0.00000     0.00000    -0.94140  0.0
    294    287    288    302   5     0.00000     0.00000     1.25520  0.0
    295    287    288    289   5     0.00000     0.00000     1.25520  0.0
    295    287    288    290   5     0.00000     0.00000    -0.94140  0.0
    295    287    288    302   5     0.00000     0.00000     1.25520  0.0
    287    288    289    296   5     0.00000     0.00000     1.25520  0.0
    287    288    289    297   5     0.00000     0.00000     1.25520  0.0
    287    288    289    298   5     0.00000     0.00000     1.25520  0.0
    290    288    289    296   5     0.00000     0.00000    -0.94140  0.0
    290    288    289    297   5     0.00000     0.00000    -0.94140  0.0
    290    288    289    298   5     0.00000     0.00000    -0.94140  0.0
    302    288    289    296   5     0.00000     0.00000     1.25520  0.0
    302    288    289    297   5     0.00000     0.00000     1.25520  0.0
    302    288    289    298   5     0.00000     0.00000     1.25520  0.0
    287    288    290    291   5     0.00000     2.52295     0.00000  0.0
    287    288    290    292   5     0.00000     0.00000     3.07524  0.0
    289    288    290    291   5     0.00000     2.52295     0.00000  0.0
    289    288    290    292   5     0.00000     0.00000     3.07524  0.0
    302    288    290    291   5     0.00000     0.00000     0.00000  0.0
    302    288    290    292   5     0.00000     0.00000     0.00000  0.0
    288    290    292    293   5    13.65239    24.43456     0.00000  0.0
    291    290    292    293   5     0.00000    25.10400     0.00000  0.0
    290    292    293    299   5     0.00000     0.00000     0.67362  0.0
    290    292    293    300   5     0.00000     0.00000     0.67362  0.0
    290    292    293    301   5     0.00000     0.00000     0.67362  0.0

[ dihedrals ]
; Improper dihedrals
; h   i   j   k   funct
      2      5      4      6   5     0.00000    87.86400     0.00000  0.0
     18     21     20     22   5     0.00000    87.86400     0.00000  0.0
     33     36     35     37   5     0.00000    87.86400     0.00000  0.0
     48     51     50     52   5     0.00000    87.86400     0.00000  0.0
     63     66     65     67   5     0.00000    87.86400     0.00000  0.0
     78     81     80     82   5     0.00000    87.86400     0.00000  0.0
     93     96     95     97   5     0.00000    87.86400     0.00000  0.0
    108    111    110    112   5     0.00000    87.86400     0.00000  0.0
    123    126    125    127   5     0.00000    87.86400     0.00000  0.0
    138    141    140    142   5     0.00000    87.86400     0.00000  0.0
    153    156    155    157   5     0.00000    87.86400     0.00000  0.0
    168    171    170    172   5     0.00000    87.86400     0.00000  0.0
    183    186    185    187   5     0.00000    87.86400     0.00000  0.0
    198    201    200    202   5     0.00000    87.86400     0.00000  0.0
    213    216    215    217   5     0.00000    87.86400     0.00000  0.0
    228    231    230    232   5     0.00000    87.86400     0.00000  0.0
    243    246    245    247   5     0.00000    87.86400     0.00000  0.0
    258    261    260    262   5     0.00000    87.86400     0.00000  0.0
    273    276    275    277   5     0.00000    87.86400     0.00000  0.0
    288    291    290    292   5     0.00000    87.86400     0.00000  0.0
