Control file title. For DL_FIELD 4.10
49830
    1MOL     C1    1   6.632   4.693   0.077 -0.0255  0.2957  0.9896
    1MOL     C2    2   6.732   4.784   0.153  0.3113  0.5166  0.1565
    1MOL     C3    3   6.875   4.732   0.118 -0.2190 -0.2032  0.0227
    1MOL     C4    4   6.727   4.927   0.091 -0.2055  0.2551  0.3124
    1MOL     O5    5   6.657   4.949   7.870 -0.7178  0.5486  0.1789
    1MOL     O6    6   6.809   5.014   0.153  0.2389 -0.7821  0.1808
    1MOL     C7    7   6.820   5.145   0.101 -0.7199  0.0006 -1.0134
    1MOL     H8    8   6.641   4.699   7.846  1.1844  0.2763  1.0756
    1MOL     H9    9   6.651   4.589   0.103 -1.1312  0.1685  1.2968
    1MOL    H10   10   6.949   4.802   0.158 -0.8168 -0.4062  1.5336
    1MOL    H11   11   6.905   4.632   0.151 -1.8993 -0.6026  0.3748
    1MOL    H12   12   6.887   4.719   0.011 -0.5496  0.0466 -0.0432
    1MOL    H13   13   6.826   5.150   7.869  1.4361  1.9681 -0.8487
    1MOL    H14   14   6.904   5.198   0.146 -0.2746 -0.9028 -0.7740
    1MOL    H15   15   6.729   5.200   0.127  0.6694  0.7688  2.3703
    1MOL    H16   16   6.530   4.720   0.103 -0.3165 -1.0545  1.2641
    1MOL    C17   17   6.711   4.767   0.309 -0.7385  0.0200 -0.3714
    1MOL    C18   18   6.608   4.853   0.400  0.7455  0.2426 -0.8731
    1MOL    C19   19   6.705   4.955   0.467 -0.3228  0.2068 -0.1461
    1MOL    C20   20   6.498   4.915   0.320 -0.4678 -0.2257 -0.4684
    1MOL    O21   21   6.494   5.037   0.300 -0.2405 -0.2916  0.0345
    1MOL    O22   22   6.414   4.829   0.274  0.5020  0.0993 -0.0259
    1MOL    C23   23   6.311   4.875   0.189 -0.6216  0.5730 -0.4344
    1MOL    H24   24   6.807   4.756   0.360 -0.9826 -1.2095 -0.1762
    1MOL    H25   25   6.673   4.667   0.330  0.2543 -0.6122 -1.5323
    1MOL    H26   26   6.755   4.916   0.555  0.0977 -0.6855 -0.7858
    1MOL    H27   27   6.788   4.986   0.403 -0.0469 -0.0328  0.0962
    1MOL    H28   28   6.659   5.052   0.485  2.5670  1.5099  0.5182
    1MOL    H29   29   6.347   4.954   0.123 -0.3430  2.3424  1.7711
    1MOL    H30   30   6.220   4.903   0.242 -1.8811 -1.2138 -1.5908
    1MOL    H31   31   6.276   4.796   0.121 -1.0961  1.3995 -1.1689
    1MOL    C32   32   6.548   4.761   0.509 -0.1953  0.0495 -0.2230
    1MOL    C33   33   6.436   4.802   0.614 -0.0794  0.2427  0.1829
    1MOL    C34   34   6.469   4.937   0.676  0.1717 -0.6843 -0.5439
    1MOL    C35   35   6.289   4.795   0.548 -0.1764  0.4526  0.3858
    1MOL    O36   36   6.210   4.890   0.543 -0.0661  0.1048 -0.2015
    1MOL    O37   37   6.249   4.673   0.509 -0.2041  0.5069  0.6171
    1MOL    C38   38   6.128   4.661   0.428 -0.7488  0.6219  0.1628
    1MOL    H39   39   6.636   4.718   0.556 -1.4187 -1.9808  0.2775
    1MOL    H40   40   6.511   4.673   0.457 -1.2895  1.0747 -1.2085
    1MOL    H41   41   6.391   4.963   0.747 -0.1702  1.3559 -1.6294
    1MOL    H42   42   6.570   4.946   0.717  0.7200 -1.7856 -1.6073
    1MOL    H43   43   6.467   5.018   0.603 -0.3772  1.1747  1.4930
    1MOL    H44   44   6.058   4.744   0.441  1.2523  2.6521 -1.4056
    1MOL    H45   45   6.076   4.575   0.468  0.5444 -0.5533 -0.6477
    1MOL    H46   46   6.159   4.660   0.323  1.5086 -2.3106  0.7922
    1MOL    C47   47   6.449   4.686   0.727 -0.5869 -0.0873  0.1329
    1MOL    C48   48   6.366   4.682   0.864  0.4616  0.4120 -0.4550
    1MOL    C49   49   6.389   4.539   0.928 -1.1763  0.1186 -0.4276
    1MOL    C50   50   6.432   4.778   0.963 -0.3325 -1.0123  0.3394
    1MOL    O51   51   6.401   4.896   0.977  0.1580 -0.3860  0.0680
    1MOL    O52   52   6.518   4.722   1.059 -0.1235  0.3895 -0.1664
    1MOL    C53   53   6.569   4.800   1.171  0.0497  0.0610 -0.1048
    1MOL    H54   54   6.555   4.681   0.752 -0.3463  0.8023 -0.6825
    1MOL    H55   55   6.414   4.598   0.673 -0.9352 -0.6084  1.1783
    1MOL    H56   56   6.359   4.462   0.857  2.6718  1.2383 -3.4536
    1MOL    H57   57   6.492   4.511   0.949 -1.7460 -1.9602 -0.2628
    1MOL    H58   58   6.334   4.526   1.022 -1.2569 -0.7823 -0.5962
    1MOL    H59   59   6.616   4.893   1.140  0.7485  0.0447  0.8655
    1MOL    H60   60   6.649   4.749   1.226  0.2196  1.2477  0.7625
    1MOL    H61   61   6.489   4.831   1.239 -0.7388 -0.6254 -0.7076
    1MOL    C62   62   6.214   4.715   0.848  0.2895  0.0530  0.3920
    1MOL    C63   63   6.106   4.704   0.964 -0.3163  0.1442 -0.3538
    1MOL    C64   64   6.152   4.761   1.106 -0.1782 -0.9918  0.0423
    1MOL    C65   65   5.991   4.801   0.916 -0.5739  0.0985 -0.2843
    1MOL    O66   66   5.931   4.872   0.991  0.2416  0.4925 -0.4243
    1MOL    O67   67   5.963   4.796   0.783  0.0553  0.1561  0.1450
    1MOL    C68   68   5.864   4.878   0.726 -0.0025 -0.0196  0.2603
    1MOL    H69   69   6.175   4.662   0.761 -1.7467  0.8050  0.8363
    1MOL    H70   70   6.213   4.816   0.806  0.6396 -0.7904 -1.6909
    1MOL    H71   71   6.079   4.754   1.187 -0.5067 -1.5403 -0.2965
    1MOL    H72   72   6.235   4.699   1.140 -1.6528 -1.9652  2.0023
    1MOL    H73   73   6.184   4.865   1.107  2.2977 -1.6732 -2.5908
    1MOL    H74   74   5.765   4.838   0.745 -0.3836  1.4311  1.4174
    1MOL    H75   75   5.875   4.890   0.618  0.6330  1.9003  0.5256
    1MOL    H76   76   5.866   4.980   0.765 -3.5935  0.1542  0.0682
    1MOL    C77   77   6.062   4.555   0.983 -0.2469  1.0549 -0.0495
    1MOL    C78   78   5.925   4.510   1.030 -0.0981  0.6038  0.2892
    1MOL    C79   79   5.880   4.583   1.156  0.3862  0.2196 -0.0935
    1MOL    C80   80   5.833   4.538   0.910 -0.4663 -0.3684  0.5199
    1MOL    O81   81   5.865   4.519   0.787 -0.4023  0.2721 -0.1818
    1MOL    O82   82   5.713   4.571   0.951  0.4320 -0.7603  0.2921
    1MOL    C83   83   5.614   4.607   0.860  0.0587  0.2833 -0.2831
    1MOL    H84   84   6.141   4.508   1.041 -1.5594 -2.3036 -0.8738
    1MOL    H85   85   6.090   4.504   0.890 -0.9405 -0.9814  0.8335
    1MOL    H86   86   5.971   4.589   1.216  0.7071  3.0602 -0.8084
    1MOL    H87   87   5.861   4.689   1.140 -1.0625  0.0087  0.2219
    1MOL    H88   88   5.795   4.538   1.206  0.4991 -0.6644 -0.6864
    1MOL    H89   89   5.651   4.686   0.796  0.0666 -0.1719 -0.8457
    1MOL    H90   90   5.515   4.636   0.897 -0.6105 -2.4900  0.2388
    1MOL    H91   91   5.584   4.532   0.787  0.3289 -0.6219  0.5217
    1MOL    C92   92   5.929   4.355   1.069  0.0929 -0.0735 -0.9481
    1MOL    C93   93   5.802   4.259   1.069  0.0852  0.3056 -1.1130
    1MOL    C94   94   5.668   4.311   1.142 -0.6107  0.0891 -0.3970
    1MOL    C95   95   5.764   4.219   0.922  1.0639 -0.6202  0.6173
    1MOL    O96   96   5.648   4.229   0.882  0.3846  0.8034 -0.1495
    1MOL    O97   97   5.870   4.188   0.844 -0.1824  0.2049  0.7202
    1MOL    C98   98   5.844   4.172   0.712  0.0821  0.2194 -0.3731
    1MOL    H99   99   5.972   4.355   1.169 -1.5296  0.7053 -0.2518
    1MOL   H100  100   6.015   4.310   1.018  0.1448 -0.4204 -0.5547
    1MOL   H101  101   5.634   4.399   1.086  0.6609  0.5864 -0.4219
    1MOL   H102  102   5.590   4.236   1.132 -0.7500  0.4110 -1.9038
    1MOL   H103  103   5.664   4.337   1.248  1.1279 -0.4229 -0.1951
    1MOL   H104  104   5.927   4.123   0.662 -0.0492 -0.5300  0.1235
    1MOL   H105  105   5.838   4.265   0.656  1.1722  1.2922  1.2678
    1MOL   H106  106   5.762   4.106   0.684  0.5900 -1.0867  1.1489
    1MOL   C107  107   5.858   4.135   1.148 -0.0194  0.5276  0.1643
    1MOL   C108  108   5.810   3.982   1.123 -0.1838 -0.5919  0.0154
    1MOL   C109  109   5.666   3.957   1.124 -0.0357 -0.0755 -0.4513
    1MOL   C110  110   5.875   3.928   0.988  0.1686 -0.5618  0.0304
    1MOL   O111  111   5.809   3.886   0.895 -0.6683  0.0919 -0.8036
    1MOL   O112  112   6.012   3.931   0.998  0.1612  0.0903 -0.3359
    1MOL   C113  113   6.099   3.892   0.895  0.4417  0.2555  0.4232
    1MOL   H114  114   5.860   4.156   1.255 -0.5409  1.5738 -0.0276
    1MOL   H115  115   5.967   4.133   1.136 -0.2970 -1.0165 -2.5785
    1MOL   H116  116   5.609   3.998   1.208  0.1175  0.3453 -0.5551
    1MOL   H117  117   5.618   4.004   1.038 -1.9195  1.6377  1.4729
    1MOL   H118  118   5.637   3.853   1.108 -0.4688  0.2921 -2.0786
    1MOL   H119  119   6.139   3.791   0.910  1.1247  0.7306  1.8934
    1MOL   H120  120   6.180   3.963   0.878 -2.8699  3.8168 -1.1438
    1MOL   H121  121   6.043   3.899   0.802 -0.0179  0.0752  0.6842
    1MOL   C122  122   5.882   3.902   1.242  0.0510 -0.1552  0.3666
    1MOL   C123  123   5.813   3.869   1.377 -0.3737  0.3951 -0.6845
    1MOL   C124  124   5.765   4.003   1.445  0.2758 -0.2443 -0.2804
    1MOL   C125  125   5.694   3.775   1.355 -0.7550  1.0031 -0.1662
    1MOL   O126  126   5.582   3.795   1.404 -0.2562  0.1208 -0.3723
    1MOL   O127  127   5.726   3.671   1.285 -0.1475  0.1344  0.0503
    1MOL   C128  128   5.631   3.576   1.237 -0.1096  0.2418 -0.3365
    1MOL   H129  129   5.974   3.953   1.268  0.7994 -1.2461 -0.1126
    1MOL   H130  130   5.915   3.806   1.203 -0.8616 -0.5635  0.5669
    1MOL   H131  131   5.714   3.989   1.541  1.2200 -0.9942  0.1226
    1MOL   H132  132   5.853   4.067   1.460 -1.3496  1.4859  2.4051
    1MOL   H133  133   5.697   4.058   1.381 -0.7340  0.6987  1.5659
    1MOL   H134  134   5.658   3.482   1.283 -1.5758  0.1878  0.4542
    1MOL   H135  135   5.641   3.573   1.128  1.8345  0.7476 -0.1919
    1MOL   H136  136   5.530   3.601   1.270  0.5024 -1.7128  3.2329
    1MOL   C137  137   5.919   3.786   1.466  0.1954 -0.4373  0.2709
    1MOL   C138  138   5.920   3.778   1.624  0.1982  0.1189  0.6304
    1MOL   C139  139   5.980   3.909   1.682  0.1738 -0.5965 -0.2764
    1MOL   C140  140   5.773   3.749   1.676  0.7542  1.0556  0.0100
    1MOL   O141  141   5.716   3.828   1.752  0.4168 -0.3944 -0.0021
    1MOL   O142  142   5.728   3.631   1.654 -0.2740  0.2941  0.0336
    1MOL   C143  143   5.600   3.594   1.715 -0.6902  0.1508  0.2653
    1MOL   H144  144   6.014   3.828   1.434  1.1375 -0.7128  2.5408
    1MOL   H145  145   5.922   3.682   1.434  2.0859 -1.0574  2.2717
    1MOL   H146  146   5.904   3.988   1.679 -0.8236 -1.5896 -2.4601
    1MOL   H147  147   6.006   3.907   1.788  1.4526  2.1666 -0.4936
    1MOL   H148  148   6.067   3.940   1.624  0.0079  0.1921 -0.1032
    1MOL   H149  149   5.518   3.614   1.646 -0.4323 -1.4243 -0.5192
    1MOL   H150  150   5.573   3.640   1.811 -1.6884 -1.3228  0.7093
    1MOL   H151  151   5.611   3.488   1.737  1.9359  0.5387  1.0497
    1MOL   C152  152   6.010   3.655   1.668 -0.3151  0.4499  0.1984
    1MOL   C153  153   6.083   3.643   1.807  0.3139 -0.1429 -0.3125
    1MOL   C154  154   6.225   3.696   1.810 -0.1623 -0.1829  0.1658
    1MOL   C155  155   5.994   3.695   1.930 -0.0841  0.1177  0.2512
    1MOL   O156  156   6.036   3.786   2.007 -0.1214 -0.1349  0.0153
    1MOL   O157  157   5.889   3.620   1.950  0.3813  0.5673  0.2779
    1MOL   C158  158   5.793   3.654   2.049 -0.0551  0.0597  0.0653
    1MOL   H159  159   6.095   3.644   1.601 -2.0630  1.9238 -2.3491
    1MOL   H160  160   5.955   3.565   1.640 -0.0532  0.6265 -0.9088
    1MOL   H161  161   6.216   3.796   1.767  0.0691 -0.1012  0.3078
    1MOL   H162  162   6.268   3.712   1.908 -1.2972  1.1956  0.4460
    1MOL   H163  163   6.296   3.646   1.744  0.9472  1.9228 -0.2743
    1MOL   H164  164   5.811   3.578   2.125 -0.7927 -1.5751 -1.3682
    1MOL   H165  165   5.697   3.638   2.001 -0.3231 -0.6740  0.8314
    1MOL   H166  166   5.794   3.758   2.084 -0.7176  0.6807 -1.7418
    1MOL   C167  167   6.103   3.490   1.824 -0.1026 -0.0520  0.7224
    1MOL   C168  168   6.190   3.417   1.946  0.2211  0.6518  0.6714
    1MOL   C169  169   6.336   3.390   1.903 -0.1139  0.3376 -0.2052
    1MOL   C170  170   6.188   3.484   2.086  0.4447 -0.0169  0.2499
    1MOL   O171  171   6.285   3.551   2.129 -0.3783  0.4062 -0.3287
    1MOL   O172  172   6.077   3.468   2.151  0.2583 -0.9939  0.5305
    1MOL   C173  173   6.064   3.538   2.279 -0.1018 -0.3018 -0.0947
    1MOL   H174  174   6.140   3.437   1.736 -1.5250  0.2051 -0.0365
    1MOL   H175  175   6.003   3.446   1.827  0.2448 -0.9671 -0.5974
    1MOL   H176  176   6.357   3.358   1.801  2.1324 -0.6513  0.5542
    1MOL   H177  177   6.395   3.481   1.913 -2.3979  2.0491 -1.4440
    1MOL   H178  178   6.381   3.320   1.973 -0.3775  0.0295 -0.3379
    1MOL   H179  179   6.095   3.642   2.282  0.1105 -0.3883  2.5437
    1MOL   H180  180   6.118   3.498   2.365  0.9208  0.2192 -0.4939
    1MOL   H181  181   5.959   3.533   2.309 -0.1122  1.5487  0.2240
    1MOL   C182  182   6.125   3.271   1.977  0.2077 -0.2716  0.1040
    1MOL   C183  183   6.149   3.140   1.895  0.1845  0.6377  0.3316
    1MOL   C184  184   6.127   3.175   1.746  0.5372  0.4868  0.1490
    1MOL   C185  185   6.290   3.071   1.913 -0.4763  0.3630 -0.1467
    1MOL   O186  186   6.339   3.007   1.824 -0.0312 -0.2416  0.0216
    1MOL   O187  187   6.343   3.094   2.028  0.1200  0.0791  0.3276
    1MOL   C188  188   6.457   3.019   2.056  0.6797  0.0783 -0.9632
    1MOL   H189  189   6.020   3.285   2.002  0.2901 -0.6950  0.7237
    1MOL   H190  190   6.163   3.238   2.074 -2.2989 -2.1299  0.4936
    1MOL   H191  191   6.044   3.242   1.723  1.2687  1.6579  0.8511
    1MOL   H192  192   6.210   3.238   1.715  0.9527  0.2701  0.8143
    1MOL   H193  193   6.126   3.088   1.680  0.2721 -2.8438  4.2540
    1MOL   H194  194   6.437   2.912   2.054 -1.0273  0.4046 -2.6081
    1MOL   H195  195   6.491   3.036   2.158  0.4633 -0.6870 -0.7610
    1MOL   H196  196   6.537   3.052   1.990 -0.0716  3.4735 -0.2860
    1MOL   C197  197   6.026   3.045   1.942  0.8051  0.2846 -1.2795
    1MOL   C198  198   6.026   2.945   2.068  0.0835  1.0562  1.0467
    1MOL   C199  199   6.117   2.824   2.038 -0.6593  0.5603  1.1831
    1MOL   C200  200   6.064   3.013   2.202 -0.0990  0.1896  1.0111
    1MOL   O201  201   6.135   2.957   2.282 -0.5724 -0.2106 -0.1573
    1MOL   O202  202   6.000   3.130   2.228 -0.4952  0.0875 -0.4673
    1MOL   C203  203   6.042   3.214   2.340  0.1986  0.5370  0.3472
    1MOL   H204  204   6.014   2.970   1.864  0.3251 -0.6333 -0.3422
    1MOL   H205  205   5.933   3.097   1.922  0.1036 -0.2573  0.4898
    1MOL   H206  206   6.100   2.783   1.939  1.4379  1.0659  0.5966
    1MOL   H207  207   6.222   2.844   2.061 -0.9898  0.4720  2.8873
    1MOL   H208  208   6.096   2.745   2.110 -1.6500  0.3607  0.6758
    1MOL   H209  209   5.963   3.290   2.340 -0.6896 -0.3798  0.0154
    1MOL   H210  210   6.137   3.263   2.323 -0.9167  2.6414  0.0051
    1MOL   H211  211   6.051   3.155   2.431  0.4851 -0.6864 -0.4654
    1MOL   C212  212   5.873   2.896   2.078 -0.0914 -0.2325  0.1669
    1MOL   C213  213   5.812   2.767   2.158 -0.8430 -0.3899  0.1663
    1MOL   C214  214   5.858   2.635   2.092  0.4360 -0.0794  0.9449
    1MOL   C215  215   5.863   2.780   2.302 -0.1376 -0.4437 -0.5023
    1MOL   O216  216   5.934   2.694   2.353 -0.7139  0.0507 -0.1857
    1MOL   O217  217   5.811   2.893   2.361  0.0215  0.2909  0.1864
    1MOL   C218  218   5.844   2.915   2.498 -0.0803  0.3606  0.2112
    1MOL   H219  219   5.840   2.877   1.976  3.0412  0.0631 -0.9555
    1MOL   H220  220   5.819   2.985   2.111 -0.9922 -0.3995 -0.8255
    1MOL   H221  221   5.772   2.567   2.090  1.1122 -0.9225 -0.4538
    1MOL   H222  222   5.888   2.642   1.988 -1.4179 -1.0384  0.3121
    1MOL   H223  223   5.942   2.584   2.140 -0.5259 -1.3194  1.3553
    1MOL   H224  224   5.836   2.832   2.569  2.2097  0.8584  1.0922
    1MOL   H225  225   5.782   3.001   2.521 -0.8440 -0.1007 -0.1151
    1MOL   H226  226   5.945   2.950   2.521 -0.1223 -0.3375  1.5348
    1MOL   C227  227   5.658   2.797   2.148 -0.0982  0.3569 -0.1255
    1MOL   C228  228   5.537   2.700   2.196 -0.5870  0.0676 -0.1714
    1MOL   C229  229   5.502   2.616   2.071  0.2642 -0.1336 -0.1858
    1MOL   C230  230   5.579   2.613   2.317 -0.0321  0.4022 -0.4179
    1MOL   O231  231   5.606   2.495   2.305 -0.2706 -0.2955  0.1956
    1MOL   O232  232   5.589   2.683   2.435  0.1789  0.6904  0.2266
    1MOL   C233  233   5.634   2.607   2.542 -1.5490  0.4509  0.0725
    1MOL   H234  234   5.625   2.822   2.047 -0.7617 -2.1864 -0.5581
    1MOL   H235  235   5.637   2.890   2.201  0.0593 -0.5362  1.5430
    1MOL   H236  236   5.584   2.573   2.012  1.2319 -1.2486  1.9390
    1MOL   H237  237   5.436   2.530   2.080  0.5119 -0.4349 -1.1708
    1MOL   H238  238   5.442   2.675   2.001 -2.1435 -2.1481  0.0851
    1MOL   H239  239   5.615   2.660   2.635 -2.5644  2.7389 -1.4250
    1MOL   H240  240   5.741   2.587   2.528 -1.7018 -1.1808  1.1479
    1MOL   H241  241   5.590   2.507   2.542  0.0934 -0.3048 -0.0838
    1MOL   C242  242   5.408   2.787   2.237  0.6294  0.1129  0.0955
    1MOL   C243  243   5.257   2.732   2.262  0.3057  0.2738 -0.5744
    1MOL   C244  244   5.192   2.706   2.120  0.7411 -0.6525 -0.0990
    1MOL   C245  245   5.269   2.598   2.337 -0.3486  0.1615 -0.4767
    1MOL   O246  246   5.258   2.586   2.461 -0.0985  0.2787 -0.1574
    1MOL   O247  247   5.282   2.488   2.259  0.4220 -0.8624  0.3718
    1MOL   C248  248   5.298   2.359   2.313  0.1989  0.3578 -0.0064
    1MOL   H249  249   5.385   2.868   2.168  1.1937  0.2479  0.0629
    1MOL   H250  250   5.432   2.837   2.331 -0.2164  0.4937  0.1105
    1MOL   H251  251   5.194   2.795   2.057  2.1534 -0.4439  0.2233
    1MOL   H252  252   5.235   2.625   2.061 -0.7877  0.3776 -2.7568
    1MOL   H253  253   5.088   2.674   2.130  1.0317 -0.7358  3.2198
    1MOL   H254  254   5.303   2.292   2.228  2.4455  1.7602 -1.0228
    1MOL   H255  255   5.202   2.335   2.359 -0.2109 -0.1158 -1.1017
    1MOL   H256  256   5.392   2.351   2.366  0.5818  0.5175 -0.6516
    1MOL   C257  257   5.185   2.842   2.351  0.1173 -0.1931  0.0615
    1MOL   C258  258   5.030   2.858   2.370  0.4164 -0.3546  0.0635
    1MOL   C259  259   4.966   2.727   2.417 -0.5014 -0.1083 -0.0387
    1MOL   C260  260   5.027   2.961   2.487 -0.1303 -0.3292 -0.3035
    1MOL   O261  261   4.981   2.934   2.600 -0.1108  0.0333  0.6703
    1MOL   O262  262   5.074   3.081   2.457  0.7135 -0.6030  0.2248
    1MOL   C263  263   5.072   3.180   2.566  0.0848 -0.2037 -0.6667
    1MOL   H264  264   5.213   2.939   2.309 -0.9401  0.5734  1.0708
    1MOL   H265  265   5.238   2.840   2.446  2.9004  0.7579 -1.4188
    1MOL   H266  266   4.884   2.734   2.488 -0.7656  0.8752 -0.4243
    1MOL   H267  267   4.951   2.663   2.330  0.9897  2.8899 -2.6028
    1MOL   H268  268   5.037   2.682   2.485  1.2126  0.0296 -1.7011
    1MOL   H269  269   4.968   3.203   2.588  1.0519  2.3606  1.4209
    1MOL   H270  270   5.130   3.266   2.536  0.5304 -0.3116 -0.1125
    1MOL   H271  271   5.096   3.136   2.663 -0.3959  0.4388 -0.2501
    1MOL   C272  272   4.959   2.915   2.244  0.0805 -0.1629 -0.5339
    1MOL   C273  273   4.809   2.955   2.231 -0.9166  0.3133  0.2072
    1MOL   C274  274   4.797   3.062   2.119  0.1316 -0.3630  0.7207
    1MOL   C275  275   4.731   2.830   2.188  0.0489 -0.6227 -0.2693
    1MOL   O276  276   4.710   2.808   2.067 -0.1455  0.1048  0.7457
    1MOL   O277  277   4.697   2.744   2.284  0.4254 -0.0235 -0.1914
    1MOL   C278  278   4.626   2.627   2.251  0.0041 -0.3946 -0.3472
    1MOL   H279  279   4.973   2.844   2.163  1.0294 -0.5634 -0.0215
    1MOL   H280  280   5.009   3.008   2.215  0.3659  0.0299  0.5526
    1MOL   H281  281   4.840   3.159   2.144  0.9441 -0.2590 -1.0343
    1MOL   H282  282   4.870   3.043   2.041  0.5392  2.1347  0.4409
    1MOL   H283  283   4.699   3.079   2.074  0.8111  0.8782 -0.3183
    1MOL   H284  284   4.698   2.561   2.203  0.3462 -1.7643  1.9848
    1MOL   H285  285   4.545   2.648   2.182 -0.4747  1.4856  0.7692
    1MOL   H286  286   4.582   2.592   2.343 -0.2535  1.0598  0.0951
    1MOL   C287  287   4.756   3.014   2.366  0.1761  0.5184  0.2526
    1MOL   C288  288   4.630   3.091   2.366 -0.1162 -0.9170 -0.2202
    1MOL   C289  289   4.500   3.004   2.364 -0.1371 -0.1182  0.2359
    1MOL   C290  290   4.625   3.200   2.471  0.3838  0.4152  0.1227
    1MOL   O291  291   4.582   3.306   2.433 -0.7806  0.0795  0.5289
    1MOL   O292  292   4.672   3.166   2.595 -0.1499  0.5933  0.2394
    1MOL   C293  293   4.704   3.281   2.675 -0.1106 -0.2641  0.3565
    1MOL   H294  294   4.822   3.092   2.402 -0.7480  1.2138  0.4757
    1MOL   H295  295   4.744   2.933   2.437 -2.0542 -0.8429 -1.5709
    1MOL   H296  296   4.488   2.937   2.449  0.4660  0.2969  0.6574
    1MOL   H297  297   4.413   3.069   2.371 -0.8714 -1.2418  1.8588
    1MOL   H298  298   4.498   2.956   2.266  1.5261  0.2023  0.0171
    1MOL   H299  299   4.723   3.257   2.780  0.1803 -0.0329  0.3569
    1MOL   H300  300   4.619   3.350   2.679 -0.1286 -0.3448  1.5426
    1MOL   H301  301   4.795   3.319   2.630 -0.1744 -1.4655 -0.7942
    1MOL   H302  302   4.625   3.148   2.274 -1.0292 -1.6934 -0.6591
    2MOL     C1  303   4.978   6.729   3.829  0.1057  0.0008 -0.2065
    2MOL     C2  304   4.961   6.720   3.981 -0.4157 -0.1674 -0.4337
    2MOL     C3  305   4.819   6.653   4.003  0.1367  0.6381 -0.4644
    2MOL     C4  306   5.070   6.616   4.025 -0.2677 -0.5466 -0.2512
    2MOL     O5  307   5.051   6.522   4.098 -0.3874 -0.1488  0.4863
    2MOL     O6  308   5.191   6.650   3.984 -0.1185  0.0884  0.4375
    2MOL     C7  309   5.306   6.572   4.017  0.4160 -1.0425  0.2418
    2MOL     H8  310   4.903   6.781   3.770  2.1102  2.0743 -0.9970
    2MOL     H9  311   5.069   6.787   3.809 -0.6096  0.9758 -0.6459
    2MOL    H10  312   4.754   6.702   3.930 -1.6405 -0.0304  0.6299
    2MOL    H11  313   4.818   6.547   3.978  0.5925  0.5937 -0.2991
    2MOL    H12  314   4.775   6.664   4.102 -0.1958 -2.4690 -0.2097
    2MOL    H13  315   5.282   6.466   4.009 -1.5527 -0.5529 -0.8106
    2MOL    H14  316   5.333   6.613   4.114  0.9728  2.6407 -1.3839
    2MOL    H15  317   5.384   6.602   3.947  0.2149  1.0601  0.8642
    2MOL    H16  318   5.010   6.632   3.790  1.9723 -0.4647  2.3541
    2MOL    C17  319   4.984   6.862   4.044  0.1605 -0.2070 -0.4113
    2MOL    C18  320   4.994   6.883   4.196 -0.3908 -0.2785  0.2486
    2MOL    C19  321   4.897   6.795   4.272 -0.4729  0.2979  0.1733
    2MOL    C20  322   5.141   6.856   4.247  0.2834 -0.2170  0.1482
    2MOL    O21  323   5.170   6.765   4.326  0.0040  0.6816  0.0313
    2MOL    O22  324   5.225   6.952   4.208 -1.0747 -0.1937 -0.5478
    2MOL    C23  325   5.341   6.976   4.286 -0.4399 -0.1815 -0.2704
    2MOL    H24  326   4.898   6.917   4.004 -0.0957 -0.2932  0.0169
    2MOL    H25  327   5.071   6.907   3.997  1.1912 -0.4111  1.2817
    2MOL    H26  328   4.792   6.818   4.258 -0.4158  1.1508  1.0798
    2MOL    H27  329   4.909   6.688   4.251  1.3441  0.4893  0.1994
    2MOL    H28  330   4.916   6.805   4.379 -0.0400  1.4520 -0.0145
    2MOL    H29  331   5.420   6.914   4.244  1.1879 -0.0394  2.5016
    2MOL    H30  332   5.323   6.953   4.391 -2.5412 -1.6134 -0.9117
    2MOL    H31  333   5.374   7.079   4.270 -1.5461  0.1443 -0.5615
    2MOL    C32  334   4.941   7.030   4.216  0.1284 -0.7348  0.1295
    2MOL    C33  335   4.922   7.114   4.350  0.0096 -0.2206  0.1514
    2MOL    C34  336   4.784   7.086   4.403  0.2244  0.0724 -0.0868
    2MOL    C35  337   5.027   7.077   4.461 -1.1764 -0.4867 -0.4938
    2MOL    O36  338   5.132   7.150   4.481  0.4532  0.5876  0.0852
    2MOL    O37  339   5.012   6.962   4.525  0.1937  0.3991  0.4147
    2MOL    C38  340   5.087   6.917   4.634  0.1238 -0.1914  0.0045
    2MOL    H39  341   4.854   7.048   4.153  0.6993  1.6912 -0.0089
    2MOL    H40  342   5.018   7.093   4.171 -0.4325 -1.6929 -2.2262
    2MOL    H41  343   4.698   7.109   4.339  0.9737 -1.2860 -1.5935
    2MOL    H42  344   4.765   6.979   4.415  0.8949 -0.0456 -0.1111
    2MOL    H43  345   4.755   7.128   4.499 -3.5713  0.0229 -1.1081
    2MOL    H44  346   5.189   6.887   4.609 -0.2436 -1.4243 -0.0230
    2MOL    H45  347   5.048   6.827   4.682  1.7137 -0.8645  0.0727
    2MOL    H46  348   5.096   6.996   4.709  0.2960 -1.7048  1.6201
    2MOL    C47  349   4.934   7.265   4.327  0.0280 -0.6008  0.1488
    2MOL    C48  350   4.825   7.354   4.255 -0.3256  0.3908 -0.5226
    2MOL    C49  351   4.781   7.290   4.118  0.1690 -0.2572 -0.9749
    2MOL    C50  352   4.699   7.380   4.343  1.2546 -0.0443 -0.2952
    2MOL    O51  353   4.698   7.364   4.465  0.6619  0.0079  0.9358
    2MOL    O52  354   4.595   7.411   4.268  0.0237 -0.1734  0.4950
    2MOL    C53  355   4.467   7.439   4.320 -0.1305 -0.0737 -0.1385
    2MOL    H54  356   5.026   7.273   4.269  0.4918 -3.1183  0.5172
    2MOL    H55  357   4.976   7.313   4.415  1.7887 -0.2381 -0.8683
    2MOL    H56  358   4.750   7.361   4.041  1.3709  3.7027  2.0320
    2MOL    H57  359   4.874   7.252   4.075  1.3863  1.6105 -0.1041
    2MOL    H58  360   4.699   7.220   4.128 -1.2452  1.1501 -2.4226
    2MOL    H59  361   4.404   7.501   4.256 -2.1617 -0.1115  1.7332
    2MOL    H60  362   4.464   7.492   4.416 -0.3379  1.3089 -0.8999
    2MOL    H61  363   4.414   7.345   4.332 -0.0882  0.1523  2.1336
    2MOL    C62  364   4.888   7.491   4.216  0.3397 -0.1478 -0.0329
    2MOL    C63  365   4.979   7.587   4.305 -1.1298 -0.5190  0.5461
    2MOL    C64  366   4.899   7.605   4.435 -0.5319 -0.0835 -0.0245
    2MOL    C65  367   5.121   7.529   4.333 -0.3927  0.4657 -0.2935
    2MOL    O66  368   5.178   7.538   4.446 -0.2661 -0.6660 -0.4039
    2MOL    O67  369   5.178   7.464   4.227  0.6330  0.2811 -0.0372
    2MOL    C68  370   5.299   7.392   4.243 -0.0236 -0.1929  0.2300
    2MOL    H69  371   4.810   7.553   4.173  1.2340  2.0785  1.4457
    2MOL    H70  372   4.949   7.459   4.132  0.1671  2.0101 -1.0121
    2MOL    H71  373   4.890   7.511   4.490  1.3222  0.9367  2.1405
    2MOL    H72  374   4.949   7.676   4.501 -1.4572 -1.2080  1.9293
    2MOL    H73  375   4.805   7.653   4.409  0.1125 -0.3497 -3.0605
    2MOL    H74  376   5.346   7.365   4.148  0.4972  1.0017  0.1456
    2MOL    H75  377   5.268   7.305   4.301  0.4575 -0.2167  0.4507
    2MOL    H76  378   5.366   7.450   4.306 -1.0514  0.4270  0.7595
    2MOL    C77  379   4.990   7.723   4.218  0.0919  0.7915  0.3990
    2MOL    C78  380   5.071   7.851   4.252  0.4386  0.1931 -0.2236
    2MOL    C79  381   5.064   0.005   4.399 -0.0141  0.1324  0.9729
    2MOL    C80  382   5.225   7.829   4.224 -1.0021  0.3167 -0.1463
    2MOL    O81  383   5.312   0.023   4.279 -0.4621 -0.0197 -0.5744
    2MOL    O82  384   5.246   7.740   4.126 -0.2858  0.5339  0.6508
    2MOL    C83  385   5.370   7.740   4.058  0.1390 -0.1975  0.6181
    2MOL    H84  386   4.885   7.751   4.213  0.8583  3.6304 -0.6605
    2MOL    H85  387   4.998   7.693   4.114 -1.3772  0.4407  0.3682
    2MOL    H86  388   5.113   7.809   4.462 -0.1322  0.8858  1.9662
    2MOL    H87  389   5.108   0.104   4.415 -0.9507  0.4592  1.5598
    2MOL    H88  390   4.968   0.012   4.449 -1.5274 -1.2750 -1.6566
    2MOL    H89  391   5.390   7.825   3.993  1.1994 -1.3313 -0.5683
    2MOL    H90  392   5.366   7.653   3.992 -1.9223 -0.2957  0.8390
    2MOL    H91  393   5.452   7.728   4.129 -0.1955  0.1057  1.0506
    2MOL    C92  394   5.021   0.102   4.181 -0.1511 -0.6031  0.7318
    2MOL    C93  395   4.976   0.105   4.027  0.0121 -0.2630  0.5200
    2MOL    C94  396   5.100   0.061   3.946 -0.3375 -0.1405  0.4275
    2MOL    C95  397   4.856   0.017   3.999  0.0824 -0.3236  0.2357
    2MOL    O96  398   4.852   7.813   3.904 -0.2245 -0.0509  0.6598
    2MOL    O97  399   4.763   0.034   4.086 -0.3266 -0.5451 -0.1339
    2MOL    C98  400   4.645   7.823   4.079 -0.2910 -0.3734  0.0995
    2MOL    H99  401   5.098   0.176   4.202  2.2773 -2.4185 -1.4266
    2MOL   H100  402   4.942   0.143   4.243 -2.3300 -1.8382 -1.1660
    2MOL   H101  403   5.196   0.078   3.994  0.4814  0.7231 -1.4271
    2MOL   H102  404   5.091   7.835   3.915  2.5289 -1.1691  2.8419
    2MOL   H103  405   5.109   0.104   3.846  1.0424  1.4610  1.2157
    2MOL   H104  406   4.599   7.836   3.981  1.5625  0.0188 -0.7315
    2MOL   H105  407   4.574   7.850   4.157 -0.1757 -1.1769  0.4833
    2MOL   H106  408   4.681   7.721   4.090  0.3201 -0.1158  0.4974
    2MOL   C107  409   4.942   0.257   4.007  0.1848  0.3416  0.4080
    2MOL   C108  410   4.862   0.315   3.886  0.2143  0.0227 -0.0625
    2MOL   C109  411   4.950   0.275   3.756 -0.3418 -0.1751 -0.1240
    2MOL   C110  412   4.717   0.261   3.870 -0.6405  0.1175  0.0132
    2MOL   O111  413   4.676   0.209   3.771 -0.0810 -0.2796  0.0677
    2MOL   O112  414   4.644   0.278   3.978 -0.6369 -0.4678 -0.5209
    2MOL   C113  415   4.506   0.246   3.983 -0.0278 -0.5241 -0.5608
    2MOL   H114  416   5.040   0.305   4.004  0.4248 -0.1583  0.0950
    2MOL   H115  417   4.894   0.298   4.096  0.8388 -1.7340  1.7554
    2MOL   H116  418   5.058   0.295   3.756 -0.4599  0.4714  0.2630
    2MOL   H117  419   4.944   0.169   3.730  3.0948 -0.4103 -0.3101
    2MOL   H118  420   4.929   0.333   3.666 -2.9777 -0.1002  0.5205
    2MOL   H119  421   4.462   0.236   3.884 -0.6009 -1.1233 -0.2526
    2MOL   H120  422   4.463   0.338   4.024 -0.8438 -0.7587 -0.8842
    2MOL   H121  423   4.491   0.158   4.045 -0.5304  0.0675  0.1612
    2MOL   C122  424   4.857   0.475   3.900  0.1159  0.3652 -0.7242
    2MOL   C123  425   4.777   0.582   3.810  0.1271  0.7098 -0.1730
    2MOL   C124  426   4.843   0.716   3.857 -0.3613  0.4425  0.5436
    2MOL   C125  427   4.808   0.565   3.658 -0.4104 -0.2480  0.4935
    2MOL   O126  428   4.876   0.648   3.599 -0.0700  0.0609 -0.2709
    2MOL   O127  429   4.749   0.461   3.599  0.3624  0.0684  0.2528
    2MOL   C128  430   4.774   0.438   3.457  0.3584  0.1193  0.2562
    2MOL   H129  431   4.964   0.499   3.904  0.0686  0.2547  2.8751
    2MOL   H130  432   4.832   0.484   4.005 -3.5380  1.6885 -1.6431
    2MOL   H131  433   4.817   0.804   3.797 -0.7725  0.9287  1.4228
    2MOL   H132  434   4.814   0.744   3.958 -0.7458 -0.3751  0.6616
    2MOL   H133  435   4.951   0.712   3.853 -0.4699 -1.7897 -1.6959
    2MOL   H134  436   4.876   0.404   3.443  0.3744  0.5793 -0.7553
    2MOL   H135  437   4.747   0.517   3.387 -2.4165 -0.4463  0.6468
    2MOL   H136  438   4.722   0.347   3.427 -0.7855  1.1808 -1.0419
    2MOL   C137  439   4.627   0.572   3.844  0.1039  0.2786  0.0055
    2MOL   C138  440   4.522   0.684   3.817 -0.2629 -1.0396  0.6816
    2MOL   C139  441   4.527   0.784   3.939 -0.1721 -0.4712 -0.1010
    2MOL   C140  442   4.550   0.760   3.691  0.2046  1.2345 -0.5993
    2MOL   O141  443   4.581   0.881   3.698 -0.0427  0.4188 -0.9701
    2MOL   O142  444   4.543   0.684   3.576  0.0317 -0.5870  0.7352
    2MOL   C143  445   4.591   0.743   3.456  0.4731  0.0223 -1.0340
    2MOL   H144  446   4.623   0.542   3.949  0.6703 -3.2195 -0.8895
    2MOL   H145  447   4.589   0.485   3.789 -0.1133  1.0607 -1.1027
    2MOL   H146  448   4.534   0.727   4.032  0.1596 -0.1712  0.0613
    2MOL   H147  449   4.617   0.845   3.948 -0.9344  0.2689  3.4544
    2MOL   H148  450   4.436   0.844   3.941  1.7665  2.5481 -0.4367
    2MOL   H149  451   4.585   0.678   3.369  1.2132 -1.3327 -0.0879
    2MOL   H150  452   4.695   0.776   3.460  0.5977 -0.5165  0.6372
    2MOL   H151  453   4.527   0.825   3.424  2.4064  0.2068 -4.6514
    2MOL   C152  454   4.379   0.611   3.817  0.4854  0.4927 -0.5918
    2MOL   C153  455   4.243   0.681   3.806  0.2626 -0.4915 -0.6329
    2MOL   C154  456   4.190   0.698   3.948 -0.0399 -0.4875  0.0083
    2MOL   C155  457   4.245   0.822   3.730 -0.2620 -0.2707  1.2080
    2MOL   O156  458   4.249   0.925   3.795 -0.1038 -0.6902  0.0627
    2MOL   O157  459   4.262   0.815   3.601 -0.1780  0.5244  0.8056
    2MOL   C158  460   4.278   0.922   3.514  0.3899  0.1750  0.2106
    2MOL   H159  461   4.375   0.558   3.912 -0.9936 -0.1568 -0.9967
    2MOL   H160  462   4.383   0.533   3.741  0.9905  0.6328 -0.7072
    2MOL   H161  463   4.102   0.763   3.940 -0.4058 -0.9986 -0.2011
    2MOL   H162  464   4.157   0.607   3.999 -1.3884 -1.1192 -1.9212
    2MOL   H163  465   4.261   0.747   4.015 -0.8754  1.0410 -0.1854
    2MOL   H164  466   4.183   0.974   3.510 -1.3191 -2.7794  1.1012
    2MOL   H165  467   4.308   0.900   3.411  0.7908 -1.6118  0.6838
    2MOL   H166  468   4.354   0.987   3.558 -0.6002  1.5805 -0.1499
    2MOL   C167  469   4.143   0.589   3.720  0.4892 -0.5981 -0.2904
    2MOL   C168  470   4.078   0.454   3.768  0.5864  0.9491  0.6179
    2MOL   C169  471   4.192   0.348   3.806 -0.1468  0.5429  0.0624
    2MOL   C170  472   3.969   0.473   3.886 -0.3844  0.1696 -0.0258
    2MOL   O171  473   3.951   0.389   3.974 -0.2110  0.0330  0.2428
    2MOL   O172  474   3.899   0.585   3.884 -0.1183 -0.2338 -0.4217
    2MOL   C173  475   3.819   0.620   3.998  1.0566 -0.3245 -0.1322
    2MOL   H174  476   4.188   0.570   3.623  1.0655  1.2874 -0.4191
    2MOL   H175  477   4.062   0.660   3.702  1.1624  0.3552  0.4098
    2MOL   H176  478   4.153   0.249   3.831 -1.1295  0.8475 -0.2407
    2MOL   H177  479   4.273   0.329   3.736  0.4589 -1.3555  1.2502
    2MOL   H178  480   4.243   0.379   3.897 -0.5483 -1.8643  1.1517
    2MOL   H179  481   3.815   0.728   4.003 -3.3195 -0.4627  3.3180
    2MOL   H180  482   3.848   0.585   4.097  0.3548  0.1460  0.2437
    2MOL   H181  483   3.715   0.589   3.980  1.1610  0.4267 -2.1493
    2MOL   C182  484   3.999   0.407   3.638 -0.3168  0.3664 -0.3895
    2MOL   C183  485   3.901   0.281   3.632 -0.3557 -0.0503 -0.6416
    2MOL   C184  486   3.967   0.156   3.691  0.0952 -0.2047 -0.5109
    2MOL   C185  487   3.759   0.305   3.706 -0.3128 -0.7481 -0.0965
    2MOL   O186  488   3.712   0.221   3.782  0.0478 -0.2534 -0.3060
    2MOL   O187  489   3.703   0.419   3.668 -0.0523  0.7811 -0.0142
    2MOL   C188  490   3.572   0.452   3.710  0.1553  0.2352  0.6269
    2MOL   H189  491   4.068   0.403   3.553 -1.2856 -1.2140 -1.1325
    2MOL   H190  492   3.928   0.487   3.615 -1.5068 -0.9553 -1.3788
    2MOL   H191  493   3.921   0.059   3.673  0.2923 -0.4342  0.2451
    2MOL   H192  494   4.072   0.148   3.662  0.2452 -0.1661  0.0315
    2MOL   H193  495   3.966   0.158   3.800  3.1331 -3.8002 -0.3274
    2MOL   H194  496   3.499   0.372   3.697 -1.0605  0.8489  3.2076
    2MOL   H195  497   3.537   0.550   3.678  0.3285  0.9290  2.4514
    2MOL   H196  498   3.584   0.469   3.817  0.2616  1.9961  0.3458
    2MOL   C197  499   3.864   0.251   3.477 -0.1804  0.2014 -0.5561
    2MOL   C198  500   3.965   0.194   3.356  0.0854  0.1511 -0.8004
    2MOL   C199  501   4.070   0.288   3.312 -0.3301  0.1763  0.0212
    2MOL   C200  502   4.034   0.058   3.396 -0.2378 -1.0604 -0.4638
    2MOL   O201  503   4.157   0.043   3.399  0.3904 -0.2444 -0.1718
    2MOL   O202  504   3.944   7.844   3.428 -0.1212  0.4181 -0.0593
    2MOL   C203  505   3.987   7.716   3.468 -0.0455  0.5832  0.1602
    2MOL   H204  506   3.822   0.341   3.433 -0.4893 -1.3813 -3.6859
    2MOL   H205  507   3.772   0.193   3.476 -0.7045  1.0258 -0.4833
    2MOL   H206  508   4.151   0.298   3.385  0.6495  0.4894 -1.0780
    2MOL   H207  509   4.119   0.252   3.221  2.1825  2.7598  0.2944
    2MOL   H208  510   4.016   0.381   3.297 -0.1471  0.2455 -0.2176
    2MOL   H209  511   4.076   7.684   3.412 -0.3108  0.7549 -0.3666
    2MOL   H210  512   3.918   7.633   3.450  1.9455 -1.3509  1.1115
    2MOL   H211  513   4.020   7.729   3.571  0.9460 -2.8881  0.3537
    2MOL   C212  514   3.875   0.155   3.241 -0.9512  0.6023 -0.1908
    2MOL   C213  515   3.808   0.255   3.128  0.6007  0.6967 -0.3863
    2MOL   C214  516   3.735   0.376   3.176  0.2038  0.0475  0.0357
    2MOL   C215  517   3.923   0.306   3.036 -0.0294  0.2377 -0.2956
    2MOL   O216  518   3.952   0.428   3.031  0.6125  0.3917 -0.0534
    2MOL   O217  519   3.994   0.204   2.978 -0.2244 -0.0633 -0.1161
    2MOL   C218  520   4.116   0.238   2.913 -0.7516  0.1751 -0.7981
    2MOL   H219  521   3.798   0.090   3.283 -2.5892  2.0400 -0.9129
    2MOL   H220  522   3.933   0.081   3.185  1.8643  1.4699  1.4881
    2MOL   H221  523   3.674   0.350   3.262  1.2136 -0.3970  0.6167
    2MOL   H222  524   3.803   0.452   3.215  1.0354 -0.5675 -0.2200
    2MOL   H223  525   3.674   0.413   3.093  0.1241 -2.0863 -0.8800
    2MOL   H224  526   4.165   0.317   2.971 -2.1850 -0.0545  0.7656
    2MOL   H225  527   4.107   0.287   2.816 -0.9863  1.8909  0.0610
    2MOL   H226  528   4.165   0.141   2.912 -0.7788  0.1327  0.5754
    2MOL   C227  529   3.715   0.160   3.041  0.0860  0.0294 -0.1478
    2MOL   C228  530   3.560   0.128   3.067 -0.0718 -0.7392 -0.3184
    2MOL   C229  531   3.479   0.260   3.060  0.3102  0.4486  0.7012
    2MOL   C230  532   3.508   0.052   2.934  0.9385  0.6647 -0.3360
    2MOL   O231  533   3.409   0.080   2.872 -0.0912  0.0632  0.3392
    2MOL   O232  534   3.592   7.823   2.905  0.0808 -0.2768 -0.6176
    2MOL   C233  535   3.548   7.736   2.797 -1.1534 -1.0576 -0.8612
    2MOL   H234  536   3.766   0.065   3.028 -2.6900 -1.7859  1.7693
    2MOL   H235  537   3.724   0.203   2.941 -0.6115  1.5605  0.4230
    2MOL   H236  538   3.520   0.309   2.972  0.8395  0.1263  0.7680
    2MOL   H237  539   3.372   0.249   3.046  0.5392  0.8020 -1.4196
    2MOL   H238  540   3.494   0.335   3.138  0.7761  1.1070 -0.0075
    2MOL   H239  541   3.581   7.775   2.701 -0.3497 -1.4438 -0.7507
    2MOL   H240  542   3.441   7.714   2.799 -0.8664 -2.8887 -3.1154
    2MOL   H241  543   3.602   7.643   2.818  2.5363  0.6683 -2.2993
    2MOL   C242  544   3.544   0.042   3.195  0.3075  0.0142  0.1185
    2MOL   C243  545   3.402   0.010   3.260 -0.9254  0.9795  0.0158
    2MOL   C244  546   3.342   0.134   3.338  0.4961 -0.2587 -0.4795
    2MOL   C245  547   3.294   7.837   3.162 -0.1854  0.9403 -0.8263
    2MOL   O246  548   3.294   7.725   3.112  0.2001  0.0934 -0.2748
    2MOL   O247  549   3.213   0.053   3.132 -0.2255 -0.2990  0.1941
    2MOL   C248  550   3.110   0.026   3.040  0.4567  0.1452 -0.4282
    2MOL   H249  551   3.586   0.106   3.272  0.1146  2.0033 -1.4002
    2MOL   H250  552   3.608   7.832   3.183 -1.9109 -1.3863 -1.8961
    2MOL   H251  553   3.403   0.159   3.425  0.1036 -0.3821 -0.1688
    2MOL   H252  554   3.344   0.226   3.280  0.5107  0.2175  0.2699
    2MOL   H253  555   3.241   0.111   3.370  0.6192  0.8020  0.7096
    2MOL   H254  556   3.071   0.109   2.981  1.7090 -0.1044 -1.6368
    2MOL   H255  557   3.014   0.008   3.089  0.1100 -2.5358 -1.9975
    2MOL   H256  558   3.119   7.828   2.963 -4.2120 -3.6687  2.4431
    2MOL   C257  559   3.427   7.768   3.359  1.2252 -0.7125  0.8211
    2MOL   C258  560   3.482   7.773   3.498 -0.3058 -0.1186  0.1729
    2MOL   C259  561   3.608   7.863   3.517  0.2957 -0.0622 -0.0906
    2MOL   C260  562   3.370   7.804   3.600 -0.0913 -0.2398  0.0497
    2MOL   O261  563   3.252   7.819   3.561 -0.0564 -0.4977 -0.1872
    2MOL   O262  564   3.424   7.825   3.725 -0.1895  0.3407 -0.1632
    2MOL   C263  565   3.333   0.015   3.821 -0.7185 -0.8920 -0.2428
    2MOL   H264  566   3.479   7.692   3.300  1.2520  1.0223 -1.4547
    2MOL   H265  567   3.335   7.711   3.362  0.3449  0.6745  0.4475
    2MOL   H266  568   3.684   7.855   3.439 -0.0752 -1.7204 -0.2978
    2MOL   H267  569   3.572   0.087   3.532 -0.0411 -0.2716  0.5526
    2MOL   H268  570   3.652   7.823   3.608  0.2874 -0.7612 -0.3965
    2MOL   H269  571   3.309   0.118   3.795  2.1136  0.2060  1.2913
    2MOL   H270  572   3.389   7.875   3.913  1.4837 -2.7220 -1.8765
    2MOL   H271  573   3.244   7.830   3.824 -0.1591 -1.6571  0.7475
    2MOL   C272  574   3.545   7.627   3.526  0.5950 -0.1891  0.4202
    2MOL   C273  575   3.468   7.489   3.500  0.0617 -0.0132  0.1352
    2MOL   C274  576   3.324   7.499   3.575 -0.7347  0.1942 -0.3529
    2MOL   C275  577   3.450   7.451   3.351 -0.4577  0.2997 -0.2941
    2MOL   O276  578   3.342   7.431   3.299  0.9102  0.7374  1.1448
    2MOL   O277  579   3.563   7.451   3.288 -0.2912  0.1164  0.1316
    2MOL   C278  580   3.567   7.419   3.148 -0.4272 -0.6967 -0.0098
    2MOL   H279  581   3.556   7.626   3.634 -0.7518 -3.5914  0.5912
    2MOL   H280  582   3.650   7.628   3.495  0.7517 -0.0961  0.9629
    2MOL   H281  583   3.329   7.537   3.677 -1.0485 -0.7468  0.0230
    2MOL   H282  584   3.258   7.569   3.524  0.6224  2.0638  0.3743
    2MOL   H283  585   3.271   7.404   3.582 -0.2148 -0.0407  0.4438
    2MOL   H284  586   3.671   7.403   3.118  0.2239  0.0227  1.8020
    2MOL   H285  587   3.532   7.499   3.082  1.5805 -0.3136 -0.6592
    2MOL   H286  588   3.514   7.328   3.122 -0.8402 -0.8528  1.3922
    2MOL   C287  589   3.551   7.385   3.572  0.7064  0.3395  0.3115
    2MOL   C288  590   3.501   7.238   3.565 -1.0595  0.0951  0.1958
    2MOL   C289  591   3.599   7.147   3.489 -0.4702 -0.8652  0.3480
    2MOL   C290  592   3.460   7.183   3.702 -0.2234  0.2058 -0.9408
    2MOL   O291  593   3.517   7.089   3.759 -0.5351  0.0446 -0.0682
    2MOL   O292  594   3.354   7.256   3.754 -0.1145 -0.3389 -0.2008
    2MOL   C293  595   3.296   7.219   3.874 -0.3133 -0.4201 -0.5554
    2MOL   H294  596   3.564   7.411   3.677 -1.4431  2.0924  0.1724
    2MOL   H295  597   3.656   7.389   3.541  0.8613 -1.2355  0.5733
    2MOL   H296  598   3.602   7.180   3.385 -1.5291 -0.8992  0.3044
    2MOL   H297  599   3.697   7.156   3.535 -0.8146 -1.6992  1.2545
    2MOL   H298  600   3.563   7.045   3.483 -0.0456 -1.1438  2.3890
    2MOL   H299  601   3.343   7.269   3.958 -1.6275 -1.0534  0.5671
    2MOL   H300  602   3.300   7.111   3.888  2.7227 -0.0471  2.1493
    2MOL   H301  603   3.192   7.250   3.870 -1.5684 -3.7822  2.8938
    2MOL   H302  604   3.405   7.241   3.514 -1.6709 -1.2781  1.2410
    3MOL     C1  605   5.235   7.589   7.377  0.3547 -0.3690  0.4484
    3MOL     C2  606   5.080   7.601   7.377 -0.2273  0.4370 -0.6428
    3MOL     C3  607   5.046   7.723   7.461 -0.1022 -0.1227 -0.1586
    3MOL     C4  608   5.038   7.635   7.229  0.6393  0.4613  0.2593
    3MOL     O5  609   5.121   7.658   7.142 -0.3149 -0.1725  0.3557
    3MOL     O6  610   4.904   7.639   7.210 -0.2328 -0.3028 -0.0896
    3MOL     C7  611   4.857   7.639   7.080  0.3185 -0.2081 -0.7511
    3MOL     H8  612   5.262   7.546   7.474 -2.4145  0.8785  1.8109
    3MOL     H9  613   5.275   7.528   7.296  3.4396  1.3576  0.5729
    3MOL    H10  614   4.940   7.739   7.481  0.1917  0.3332  1.0127
    3MOL    H11  615   5.100   7.716   7.555  1.7555 -1.8893 -1.3000
    3MOL    H12  616   5.085   7.816   7.420 -1.1140  0.0430 -0.7580
    3MOL    H13  617   4.869   7.540   7.036  1.7676  0.5463 -2.0653
    3MOL    H14  618   4.902   7.708   7.010  0.1117  2.6858  1.8509
    3MOL    H15  619   4.751   7.664   7.086  0.1858 -0.5881 -1.4817
    3MOL    H16  620   5.274   7.691   7.383  0.2017 -0.2866 -0.0088
    3MOL    C17  621   5.001   7.479   7.445  0.0745  0.5712  0.1867
    3MOL    C18  622   5.015   7.335   7.378  0.4600 -0.6127  0.7905
    3MOL    C19  623   4.981   7.329   7.225 -0.0851 -0.2617 -0.1854
    3MOL    C20  624   5.163   7.285   7.405  0.0523  0.2448 -0.5954
    3MOL    O21  625   5.240   7.255   7.318 -0.3780  0.1836  0.9493
    3MOL    O22  626   5.182   7.266   7.538 -0.0127  0.1452 -0.6025
    3MOL    C23  627   5.296   7.198   7.592 -0.1301 -0.9941  0.2089
    3MOL    H24  628   4.895   7.504   7.437 -0.3372 -0.1683  2.7667
    3MOL    H25  629   5.009   7.474   7.554  0.3835 -2.1252  0.0603
    3MOL    H26  630   5.051   7.393   7.172  1.2102 -0.8757  0.7411
    3MOL    H27  631   4.996   7.225   7.196  2.8804  0.4190 -1.2432
    3MOL    H28  632   4.877   7.347   7.196 -0.2676  2.8779  2.0888
    3MOL    H29  633   5.274   7.175   7.697  0.7386 -0.9519  0.4008
    3MOL    H30  634   5.382   7.265   7.592 -0.9787  0.1760  2.4478
    3MOL    H31  635   5.308   7.106   7.536 -0.0124 -0.7507 -0.1673
    3MOL    C32  636   4.908   7.247   7.455  0.1063  0.1333 -0.3185
    3MOL    C33  637   4.878   7.095   7.426 -0.8915 -0.5155 -0.3523
    3MOL    C34  638   5.009   7.019   7.398  0.7915  0.1750  0.0464
    3MOL    C35  639   4.824   7.045   7.565 -0.4759  0.2435 -0.0296
    3MOL    O36  640   4.893   6.973   7.633 -0.5653 -0.6267  0.2104
    3MOL    O37  641   4.701   7.086   7.596 -0.8449  0.2288 -0.1493
    3MOL    C38  642   4.627   7.033   7.707  0.1027 -0.0701  0.6488
    3MOL    H39  643   4.815   7.300   7.437 -0.5558 -0.7533  0.4184
    3MOL    H40  644   4.936   7.252   7.560 -0.6184 -1.2737 -0.0461
    3MOL    H41  645   5.086   7.029   7.474  0.2480 -0.1597  0.6568
    3MOL    H42  646   4.989   6.912   7.401  0.2739  0.1882 -2.1335
    3MOL    H43  647   5.049   7.052   7.303 -1.1139 -0.5978 -1.0638
    3MOL    H44  648   4.595   7.119   7.766 -0.3881 -0.0323  0.3361
    3MOL    H45  649   4.692   6.970   7.768  1.0412 -0.1246 -0.3825
    3MOL    H46  650   4.536   6.986   7.669 -0.2976  0.3025  1.1429
    3MOL    C47  651   4.772   7.086   7.309 -0.1443  0.2970  0.3943
    3MOL    C48  652   4.688   6.965   7.257 -0.2941  0.6494 -0.0626
    3MOL    C49  653   4.785   6.884   7.168 -0.0128 -0.2319 -0.6437
    3MOL    C50  654   4.630   6.871   7.364 -0.2075  0.3008  0.0875
    3MOL    O51  655   4.513   6.865   7.399  0.2121  0.3434 -0.5657
    3MOL    O52  656   4.718   6.779   7.412  0.7746  0.4417 -0.4421
    3MOL    C53  657   4.695   6.720   7.539  0.2662 -0.1843 -0.6143
    3MOL    H54  658   4.820   7.144   7.231  0.7026 -1.4107 -0.3589
    3MOL    H55  659   4.689   7.154   7.333  0.0318  1.5379 -2.3723
    3MOL    H56  660   4.727   6.801   7.128  1.7262 -2.4878  1.4117
    3MOL    H57  661   4.829   6.931   7.080  1.9233 -1.2745 -0.2499
    3MOL    H58  662   4.873   6.847   7.220 -0.3089 -0.1623 -0.0944
    3MOL    H59  663   4.657   6.800   7.604  2.5837  0.1146  0.4299
    3MOL    H60  664   4.790   6.684   7.580  1.0848  0.5859 -1.8047
    3MOL    H61  665   4.621   6.640   7.537 -0.5618  0.6004 -2.1722
    3MOL    C62  666   4.570   6.997   7.154 -0.5725  0.1807  0.5850
    3MOL    C63  667   4.471   7.123   7.156  0.3833 -0.7117 -0.1694
    3MOL    C64  668   4.412   7.141   7.301  0.2765  0.3958  0.3011
    3MOL    C65  669   4.535   7.253   7.107 -0.7626  0.8964  0.6143
    3MOL    O66  670   4.642   7.248   7.044 -0.2606  0.6640  0.3327
    3MOL    O67  671   4.464   7.361   7.144  0.1056 -0.6064 -0.5175
    3MOL    C68  672   4.508   7.494   7.106  0.0599  0.3954  0.2999
    3MOL    H69  673   4.512   6.906   7.145  1.7685 -1.3365  0.5096
    3MOL    H70  674   4.614   7.004   7.055  0.1783  0.8848  0.9610
    3MOL    H71  675   4.490   7.168   7.373 -0.2506  1.0259  0.6413
    3MOL    H72  676   4.337   7.220   7.310 -2.6052 -2.3461  0.9567
    3MOL    H73  677   4.355   7.056   7.337 -0.2262 -0.3217 -2.1062
    3MOL    H74  678   4.446   7.565   7.162  0.1141 -0.7461  1.8547
    3MOL    H75  679   4.502   7.513   6.999 -3.2467  0.5611  0.4371
    3MOL    H76  680   4.613   7.505   7.133 -0.8592  0.5921  4.1576
    3MOL    C77  681   4.336   7.095   7.076  0.0785 -0.0411  0.3163
    3MOL    C78  682   4.319   7.090   6.915  0.0459  0.0765  0.7282
    3MOL    C79  683   4.287   7.229   6.852 -0.3405 -0.2170  0.1776
    3MOL    C80  684   4.446   7.032   6.849 -0.0690 -0.8728  0.0244
    3MOL    O81  685   4.523   7.106   6.788 -0.2033 -0.5505  0.7367
    3MOL    O82  686   4.477   6.899   6.883  0.0398  0.1873 -0.2965
    3MOL    C83  687   4.600   6.843   6.853 -0.3776  0.1888  0.6804
    3MOL    H84  688   4.253   7.160   7.102 -0.5774 -0.8835  0.3279
    3MOL    H85  689   4.296   7.000   7.114 -0.7413 -0.5222 -1.7204
    3MOL    H86  690   4.360   7.297   6.896  0.1591 -1.6643  1.6297
    3MOL    H87  691   4.314   7.221   6.746 -0.1159 -0.7106  0.2742
    3MOL    H88  692   4.188   7.274   6.865  0.6416  1.3648  2.5730
    3MOL    H89  693   4.611   6.842   6.745 -1.8386 -0.0107  0.5218
    3MOL    H90  694   4.598   6.750   6.910 -2.1581  1.6163  3.0668
    3MOL    H91  695   4.680   6.903   6.897  0.4349  1.7460 -2.7205
    3MOL    C92  696   4.189   6.989   6.896  0.4209 -0.3913  0.4094
    3MOL    C93  697   4.112   6.951   6.770  0.4321 -0.3799  0.6024
    3MOL    C94  698   4.036   7.080   6.723  0.0379  0.2434  0.2511
    3MOL    C95  699   4.212   6.923   6.657  0.2092  0.3695 -0.1368
    3MOL    O96  700   4.222   6.994   6.559  0.1681  0.1352 -0.1681
    3MOL    O97  701   4.289   6.822   6.690  0.8585 -0.2056  0.2339
    3MOL    C98  702   4.387   6.788   6.592  0.3220  0.0512  0.0128
    3MOL    H99  703   4.118   7.025   6.971  0.5910  0.3587  0.2208
    3MOL   H100  704   4.224   6.894   6.935 -1.0154 -0.9698  0.2922
    3MOL   H101  705   3.996   7.139   6.805 -1.2088 -1.3560  0.8004
    3MOL   H102  706   4.085   7.148   6.652 -0.5071 -1.3910 -1.7303
    3MOL   H103  707   3.949   7.040   6.671  0.9168 -1.2581 -0.1103
    3MOL   H104  708   4.334   6.762   6.501  0.4969 -0.4370  0.0453
    3MOL   H105  709   4.435   6.696   6.626 -1.0831 -0.1966  1.3639
    3MOL   H106  710   4.470   6.858   6.582 -0.6417  1.0193 -1.4182
    3MOL   C107  711   4.019   6.828   6.787  0.3853 -0.1060  0.9959
    3MOL   C108  712   3.918   6.805   6.908 -0.1792  0.4699  0.0737
    3MOL   C109  713   3.818   6.701   6.857  0.4357  0.2150  0.3991
    3MOL   C110  714   3.984   6.742   7.034  0.5882 -0.3744 -0.3637
    3MOL   O111  715   3.951   6.625   7.069 -0.5163 -0.1102  0.0125
    3MOL   O112  716   4.067   6.825   7.100 -0.5264 -0.5706  0.0637
    3MOL   C113  717   4.130   6.782   7.227  1.0285  0.3675 -0.8032
    3MOL   H114  718   4.082   6.739   6.790  0.0564 -0.3964 -0.2866
    3MOL   H115  719   3.971   6.806   6.692  3.5056 -0.3821 -0.5524
    3MOL   H116  720   3.749   6.739   6.782 -0.4900 -1.9920  0.0808
    3MOL   H117  721   3.872   6.623   6.804  0.9256  0.4883  0.4955
    3MOL   H118  722   3.762   6.654   6.938  0.1164 -1.9208 -1.0229
    3MOL   H119  723   4.191   6.694   7.209  0.2945 -0.2530 -0.2687
    3MOL   H120  724   4.050   6.750   7.293  1.4817  1.0236  0.0809
    3MOL   H121  725   4.189   6.863   7.272 -0.4651  1.4622 -0.7764
    3MOL   C122  726   3.831   6.933   6.938 -0.7265  1.1020 -0.0211
    3MOL   C123  727   3.731   6.959   7.061 -0.5734 -0.2639  0.2039
    3MOL   C124  728   3.644   6.837   7.092  0.1362 -0.4952 -0.3544
    3MOL   C125  729   3.819   6.993   7.186  0.1646 -0.2684  0.1055
    3MOL   O126  730   3.829   6.922   7.286 -0.6563 -0.3646  0.3286
    3MOL   O127  731   3.889   7.107   7.175 -0.1377 -0.4219  1.0880
    3MOL   C128  732   3.975   7.137   7.279  0.3549 -0.4126 -0.0590
    3MOL   H129  733   3.784   6.959   6.844  1.8463 -0.3874 -1.7658
    3MOL   H130  734   3.898   7.018   6.948 -2.1863  2.2440  0.2654
    3MOL   H131  735   3.695   6.743   7.112 -1.7052 -1.4130  0.1813
    3MOL   H132  736   3.586   6.838   7.184  1.1738 -1.3900  0.3161
    3MOL   H133  737   3.576   6.824   7.007 -2.5579 -2.5866  2.0163
    3MOL   H134  738   4.037   7.220   7.245  1.9636 -0.9044  1.6082
    3MOL   H135  739   4.040   7.060   7.321  1.1117 -1.1580 -2.5151
    3MOL   H136  740   3.916   7.170   7.365  1.0736  0.3796  0.1308
    3MOL   C137  741   3.637   7.084   7.024 -0.0293 -0.3051  0.5029
    3MOL   C138  742   3.503   7.119   7.100 -0.0296  0.0856 -0.1513
    3MOL   C139  743   3.398   7.018   7.039  0.1569 -0.0206  0.3263
    3MOL   C140  744   3.507   7.100   7.250  0.3965 -0.3728 -0.5904
    3MOL   O141  745   3.449   7.008   7.302 -0.3233  0.5412 -0.4391
    3MOL   O142  746   3.605   7.168   7.306  0.0018 -0.0482 -0.1610
    3MOL   C143  747   3.649   7.150   7.438 -0.1045 -0.7514  0.5432
    3MOL   H144  748   3.610   7.076   6.919 -0.4583  1.9356  0.4155
    3MOL   H145  749   3.707   7.167   7.019 -0.6918  0.1507 -1.2660
    3MOL   H146  750   3.290   7.035   7.047 -0.2607 -2.9774  1.7583
    3MOL   H147  751   3.407   6.998   6.932 -0.6999 -1.1335  0.4469
    3MOL   H148  752   3.404   6.918   7.082  3.7055  0.6233  1.4686
    3MOL   H149  753   3.720   7.231   7.457  0.1190 -0.1654 -2.4604
    3MOL   H150  754   3.688   7.049   7.451 -2.4996 -1.7113  0.4712
    3MOL   H151  755   3.566   7.156   7.508 -0.9520 -1.0548 -0.4187
    3MOL   C152  756   3.474   7.269   7.060  0.1934 -0.3659 -0.0189
    3MOL   C153  757   3.358   7.344   7.134 -0.9685  0.2233 -0.5723
    3MOL   C154  758   3.228   7.262   7.149 -0.5085 -1.2545  0.2412
    3MOL   C155  759   3.389   7.404   7.278  0.5301  0.1510  0.6474
    3MOL   O156  760   3.308   7.426   7.367  0.7312 -0.4930 -0.0948
    3MOL   O157  761   3.512   7.451   7.276  0.0504 -0.0561  0.3742
    3MOL   C158  762   3.549   7.544   7.378  0.1505 -0.5255 -0.4604
    3MOL   H159  763   3.446   7.251   6.957 -0.7048 -0.9980  0.3272
    3MOL   H160  764   3.568   7.322   7.075 -0.6128  0.5336  2.1214
    3MOL   H161  765   3.174   7.240   7.057 -3.4346 -0.5418  1.7229
    3MOL   H162  766   3.243   7.173   7.210  3.2470 -0.5606  0.4172
    3MOL   H163  767   3.148   7.319   7.197  1.2647  2.0741 -0.5833
    3MOL   H164  768   3.599   7.511   7.469  1.2158  0.8562 -0.5279
    3MOL   H165  769   3.465   7.605   7.411  2.5033  3.4078 -1.4056
    3MOL   H166  770   3.610   7.621   7.331  1.9822 -1.0625  0.9945
    3MOL   C167  771   3.308   7.455   7.038  0.3886 -0.0920  0.3319
    3MOL   C168  772   3.383   7.587   6.986 -0.7755 -0.2394  0.5217
    3MOL   C169  773   3.527   7.561   6.948 -0.4905  0.1162  0.4737
    3MOL   C170  774   3.315   7.623   6.851 -0.0267 -0.4539  0.0195
    3MOL   O171  775   3.384   7.638   6.750 -0.2426  0.1204 -0.2367
    3MOL   O172  776   3.184   7.632   6.863  0.0785 -0.0417  0.5764
    3MOL   C173  777   3.112   7.670   6.744  0.8052  0.7260  0.5558
    3MOL   H174  778   3.211   7.490   7.072  0.0749 -0.7981  0.1636
    3MOL   H175  779   3.266   7.408   6.949  1.6288 -0.2272 -0.1911
    3MOL   H176  780   3.546   7.472   6.888  0.1358  1.2085 -0.9874
    3MOL   H177  781   3.569   7.642   6.889  1.9875  0.3396  2.4906
    3MOL   H178  782   3.592   7.561   7.035 -0.3412  1.6947  0.3713
    3MOL   H179  783   3.154   7.622   6.656 -1.0129  0.6804 -0.3104
    3MOL   H180  784   3.126   7.774   6.715 -1.1468  0.5448 -1.1815
    3MOL   H181  785   3.007   7.645   6.760  1.2592 -1.0559  0.8742
    3MOL   C182  786   3.372   7.700   7.097 -0.3605 -0.0837  0.2481
    3MOL   C183  787   3.426   7.847   7.097  0.3783  0.2255  0.2044
    3MOL   C184  788   3.582   7.847   7.078 -0.7713 -0.6897  0.1206
    3MOL   C185  789   3.345   0.041   6.986 -0.6703 -0.2601 -0.7742
    3MOL   O186  790   3.403   0.083   6.885 -0.1174  0.4093  0.4934
    3MOL   O187  791   3.214   0.044   7.014  0.4054 -0.3659  0.0957
    3MOL   C188  792   3.125   0.120   6.925 -0.0814 -0.3072  0.1655
    3MOL   H189  793   3.428   7.653   7.177  1.6391 -2.8518 -2.6512
    3MOL   H190  794   3.267   7.687   7.124 -0.8254 -2.0779 -2.2804
    3MOL   H191  795   3.606   0.075   7.088  3.0371 -1.6413  2.0179
    3MOL   H192  796   3.635   7.783   7.149 -0.4620  2.1217  2.5338
    3MOL   H193  797   3.608   7.819   6.976  2.5437  1.2650  0.3541
    3MOL   H194  798   3.124   0.088   6.820 -0.8402 -0.5429  0.2408
    3MOL   H195  799   3.146   0.227   6.923 -1.5174 -0.0183  0.6222
    3MOL   H196  800   3.022   0.102   6.955 -0.4297 -0.5168 -1.1096
    3MOL   C197  801   3.393   0.030   7.240 -0.2058 -0.5706 -0.6841
    3MOL   C198  802   3.431   0.177   7.291  0.2715 -1.1777  0.3313
    3MOL   C199  803   3.567   0.173   7.375 -0.1765 -0.2634  0.5360
    3MOL   C200  804   3.446   0.281   7.180  0.3371  0.2419  0.1879
    3MOL   O201  805   3.550   0.317   7.132  0.4786  0.1861  0.0026
    3MOL   O202  806   3.330   0.332   7.144 -0.4702 -0.1747 -0.7612
    3MOL   C203  807   3.311   0.413   7.031  0.0352  0.0557 -0.7097
    3MOL   H204  808   3.427   7.834   7.313  0.6863 -0.2865 -0.8107
    3MOL   H205  809   3.284   0.027   7.249 -0.2467 -0.6880 -1.2105
    3MOL   H206  810   3.594   0.272   7.413  0.5492 -0.9497  1.8608
    3MOL   H207  811   3.561   0.105   7.460  0.3769 -0.4353  0.4417
    3MOL   H208  812   3.650   0.147   7.310  1.3220  1.5231  1.6974
    3MOL   H209  813   3.213   0.461   7.037 -0.3688 -0.8853  0.5989
    3MOL   H210  814   3.311   0.348   6.944  0.1028  1.0044 -1.4154
    3MOL   H211  815   3.392   0.482   7.013  1.7469 -1.8417 -0.5196
    3MOL   C212  816   3.317   0.230   7.383  0.0768  0.3357 -0.4896
    3MOL   C213  817   3.278   0.170   7.525 -0.6625  0.7196  0.2024
    3MOL   C214  818   3.259   0.014   7.524 -0.3654  0.0321  0.2391
    3MOL   C215  819   3.379   0.211   7.635 -0.4443 -1.0555 -0.1814
    3MOL   O216  820   3.430   0.136   7.716 -0.0373 -0.5535  0.0603
    3MOL   O217  821   3.406   0.344   7.642  0.4502 -0.1528  0.2549
    3MOL   C218  822   3.474   0.397   7.759  0.0960  0.5183  0.1013
    3MOL   H219  823   3.226   0.244   7.325 -0.7151 -0.2094  0.5882
    3MOL   H220  824   3.342   0.334   7.406 -0.4551 -0.0859  2.2737
    3MOL   H221  825   3.221   7.854   7.619  1.3637  2.1606  1.8361
    3MOL   H222  826   3.193   7.860   7.444  0.8001  0.7014 -0.9906
    3MOL   H223  827   3.355   7.841   7.510 -0.0428  0.2324  1.5895
    3MOL   H224  828   3.480   0.506   7.756  1.7666  0.4197 -0.3114
    3MOL   H225  829   3.573   0.351   7.759 -0.5744 -0.9494 -2.0911
    3MOL   H226  830   3.419   0.382   7.852  0.7455 -0.9045  0.2744
    3MOL   C227  831   3.138   0.234   7.577 -0.1261  0.0599 -0.3212
    3MOL   C228  832   3.001   0.189   7.528  0.2372  0.5124 -0.0612
    3MOL   C229  833   2.991   0.171   7.373  0.6092  0.2794 -0.1006
    3MOL   C230  834   2.949   0.051   7.597 -0.3930  0.6566 -0.3320
    3MOL   O231  835   2.989   0.023   7.714  0.1708  0.0122  0.0305
    3MOL   O232  836   2.862   7.856   7.528  0.3044  0.4542 -0.4654
    3MOL   C233  837   2.785   7.753   7.592  0.6601 -0.2454 -0.2564
    3MOL   H234  838   3.151   0.339   7.550 -0.9222  1.1797  3.3496
    3MOL   H235  839   3.142   0.237   7.686  1.1107 -0.5153 -0.3392
    3MOL   H236  840   3.008   0.257   7.309 -0.9388  0.6253 -0.0569
    3MOL   H237  841   3.058   0.094   7.334  0.8833  1.8230 -2.7241
    3MOL   H238  842   2.895   0.134   7.339 -0.2009  2.0239  0.2392
    3MOL   H239  843   2.730   7.788   7.679  0.0793 -3.8838  0.8850
    3MOL   H240  844   2.847   7.667   7.616  0.3265 -0.7975 -1.3331
    3MOL   H241  845   2.707   7.715   7.525  0.1141 -0.5411  0.5422
    3MOL   C242  846   2.896   0.298   7.566 -0.4546 -0.2043 -1.0703
    3MOL   C243  847   2.824   0.333   7.709  0.9600  0.6692  0.1508
    3MOL   C244  848   2.922   0.326   7.829 -0.4346  0.3874  0.7467
    3MOL   C245  849   2.784   0.482   7.709 -0.3158 -0.6025 -0.0043
    3MOL   O246  850   2.776   0.553   7.605  0.1912 -0.1184  0.3282
    3MOL   O247  851   2.752   0.525   7.835 -0.2992  0.2762 -0.0766
    3MOL   C248  852   2.702   0.664   7.854  0.5653  0.2431  0.0705
    3MOL   H249  853   2.817   0.294   7.491 -1.7027 -3.0401  0.3205
    3MOL   H250  854   2.954   0.390   7.561 -0.8501  0.0252 -1.5089
    3MOL   H251  855   3.012   0.385   7.815 -0.1618 -0.3583 -0.7200
    3MOL   H252  856   2.888   0.347   0.053  1.2209  0.3034  1.3250
    3MOL   H253  857   2.950   0.222   7.817 -3.1060 -0.2836 -0.0592
    3MOL   H254  858   2.767   0.745   7.823  0.0528  1.2091  1.4664
    3MOL   H255  859   2.682   0.673   0.083  3.3987  1.6274  0.5450
    3MOL   H256  860   2.611   0.679   7.797  0.2327 -1.3372  0.1405
    3MOL   C257  861   2.707   0.237   7.759 -0.2113  0.5415  0.0590
    3MOL   C258  862   2.562   0.236   7.694  0.4702 -0.0255 -0.3932
    3MOL   C259  863   2.497   0.108   7.750 -0.1957  0.4494 -0.2875
    3MOL   C260  864   2.484   0.361   7.740 -0.6665  1.0287 -0.2230
    3MOL   O261  865   2.480   0.461   7.677 -0.2922  0.4198  0.1237
    3MOL   O262  866   2.448   0.355   7.877  0.4781  0.7619  0.0226
    3MOL   C263  867   2.400   0.472   0.062 -0.7183  0.6469  0.0657
    3MOL   H264  868   2.695   0.258   7.865  1.6783  0.2533  0.3627
    3MOL   H265  869   2.737   0.132   7.754  0.2677  0.6501  0.6435
    3MOL   H266  870   2.523   0.013   7.702 -1.7126  0.0597 -0.3657
    3MOL   H267  871   2.527   0.092   7.854 -0.1855 -1.1285 -0.5108
    3MOL   H268  872   2.389   0.110   7.755 -0.1175  2.6442  1.0115
    3MOL   H269  873   2.353   0.543   7.871 -1.0407  0.2765 -0.0979
    3MOL   H270  874   2.490   0.516   0.106 -0.0032  0.3930 -1.1369
    3MOL   H271  875   2.344   0.446   0.152  2.6047 -3.1211  1.1761
    3MOL   C272  876   2.575   0.224   7.534 -0.3284 -0.2366 -0.1130
    3MOL   C273  877   2.461   0.193   7.434  0.3346 -0.0830 -0.4861
    3MOL   C274  878   2.511   0.232   7.287  0.3639  0.5688  0.2445
    3MOL   C275  879   2.430   0.040   7.443 -0.2012 -1.4428 -0.0529
    3MOL   O276  880   2.333   0.002   7.510 -0.6409  0.2807 -0.1485
    3MOL   O277  881   2.518   7.844   7.375  0.6240  0.2833  0.2688
    3MOL   C278  882   2.492   7.711   7.338 -0.2597  1.1315 -0.1543
    3MOL   H279  883   2.650   0.148   7.514 -1.0941 -0.9357 -0.3330
    3MOL   H280  884   2.616   0.322   7.508  1.5412 -0.6683  1.0522
    3MOL   H281  885   2.619   0.235   7.292  0.4774  2.2422 -2.3028
    3MOL   H282  886   2.472   0.160   7.215  0.4164 -0.8624  1.6211
    3MOL   H283  887   2.481   0.329   7.246  0.1189  0.2352 -0.3797
    3MOL   H284  888   2.390   7.702   7.302 -1.4194  1.2698  2.9748
    3MOL   H285  889   2.494   7.646   7.425 -1.8469 -0.7069 -1.4579
    3MOL   H286  890   2.562   7.666   7.268  0.0944 -1.3346  1.7385
    3MOL   C287  891   2.327   0.272   7.457  0.2223  0.4925 -0.5237
    3MOL   C288  892   2.196   0.233   7.384  0.2551  0.6217 -1.0126
    3MOL   C289  893   2.081   0.322   7.447  0.2586 -0.6435 -0.4966
    3MOL   C290  894   2.211   0.250   7.231 -0.1971  0.4709  0.2366
    3MOL   O291  895   2.211   0.145   7.160 -0.4998 -0.3399  0.1863
    3MOL   O292  896   2.225   0.380   7.181  0.2462  0.1993 -0.0722
    3MOL   C293  897   2.249   0.393   7.038  0.6527 -0.0019  0.5158
    3MOL   H294  898   2.340   0.380   7.445 -1.9070  0.8858  0.4860
    3MOL   H295  899   2.297   0.263   7.562 -0.8527 -0.0036 -0.8719
    3MOL   H296  900   2.008   0.340   7.368  0.2127 -0.1296 -0.3364
    3MOL   H297  901   2.027   0.269   7.525 -1.0525  0.1427 -0.8543
    3MOL   H298  902   2.117   0.415   7.490 -1.7128  0.6960 -1.6400
    3MOL   H299  903   2.310   0.313   6.996 -1.9026 -0.1872 -3.1371
    3MOL   H300  904   2.297   0.489   7.023 -0.6887  0.6377  0.1696
    3MOL   H301  905   2.157   0.407   6.981 -0.9326 -1.9899  2.4842
    3MOL   H302  906   2.168   0.129   7.396  0.2846  0.4132 -2.6479
    4MOL     C1  907   3.823   1.688   3.887 -0.4803 -0.1578 -0.2827
    4MOL     C2  908   3.755   1.748   4.011 -0.5726  0.1052 -0.4178
    4MOL     C3  909   3.612   1.684   4.017 -0.3190 -0.3941 -0.4167
    4MOL     C4  910   3.830   1.697   4.140 -0.1631 -0.2152 -0.8314
    4MOL     O5  911   3.932   1.624   4.144 -0.5203  0.2074  0.2630
    4MOL     O6  912   3.764   1.745   4.249  0.0919  0.2160  0.0225
    4MOL     C7  913   3.794   1.704   4.378  0.5200 -0.4887 -0.9099
    4MOL     H8  914   3.769   1.707   3.794 -0.6229 -1.7544 -0.5579
    4MOL     H9  915   3.926   1.722   3.875  0.0300 -2.4009 -3.0100
    4MOL    H10  916   3.566   1.681   3.918 -0.5381 -1.0272 -0.3030
    4MOL    H11  917   3.611   1.580   4.050  0.8184 -0.3003 -0.0712
    4MOL    H12  918   3.547   1.737   4.087 -1.6799 -1.2162 -1.0386
    4MOL    H13  919   3.699   1.680   4.427 -0.2108  0.3442 -1.8894
    4MOL    H14  920   3.847   1.786   4.427 -1.2750 -1.1998  2.3470
    4MOL    H15  921   3.867   1.624   4.372  1.0490  0.0235 -1.3435
    4MOL    H16  922   3.840   1.580   3.896  1.2068  0.2580  1.7318
    4MOL    C17  923   3.723   1.903   3.998 -0.3736 -0.0134 -0.6230
    4MOL    C18  924   3.838   2.006   4.001 -0.4238  0.1804 -0.0712
    4MOL    C19  925   3.919   2.008   4.135  0.0168 -0.5760  0.6231
    4MOL    C20  926   3.927   1.995   3.873 -0.4951  0.3563 -0.4833
    4MOL    O21  927   4.052   1.996   3.880  0.5118  0.3219  0.0893
    4MOL    O22  928   3.852   1.986   3.766  0.1358  0.2406  0.0132
    4MOL    C23  929   3.910   1.981   3.636 -0.6385 -0.8918  0.1935
    4MOL    H24  930   3.657   1.927   4.081  1.0819  0.2910  0.4606
    4MOL    H25  931   3.656   1.920   3.914 -0.5724 -3.1509 -1.1670
    4MOL    H26  932   3.861   2.041   4.221 -0.7082 -0.1942 -0.0045
    4MOL    H27  933   3.974   1.914   4.140  0.8994 -0.0311  1.4335
    4MOL    H28  934   4.004   2.076   4.128 -1.0839  0.7254 -0.3865
    4MOL    H29  935   3.847   1.992   3.547  0.7434  2.3488 -0.4314
    4MOL    H30  936   3.956   1.882   3.635 -1.6433 -1.4080  2.2690
    4MOL    H31  937   3.981   2.063   3.630  0.5419 -1.9508 -0.6798
    4MOL    C32  938   3.753   2.142   3.992 -0.7311  0.7400 -0.1355
    4MOL    C33  939   3.789   2.286   3.932  0.8911  0.5937  0.1097
    4MOL    C34  940   3.927   2.333   3.983  0.0630 -0.2065 -0.8988
    4MOL    C35  941   3.802   2.281   3.778  0.7568 -0.1133  0.7253
    4MOL    O36  942   3.904   2.307   3.716  0.1646 -0.1674 -1.1496
    4MOL    O37  943   3.689   2.241   3.708  0.7384 -0.1394  0.1316
    4MOL    C38  944   3.691   2.241   3.568 -0.4180 -0.1440  0.8063
    4MOL    H39  945   3.736   2.166   4.097 -0.6917 -0.0124  0.0454
    4MOL    H40  946   3.655   2.127   3.946 -0.9428  0.7069  0.3185
    4MOL    H41  947   4.004   2.259   3.965  0.7426  0.0939  0.6785
    4MOL    H42  948   3.964   2.417   3.924 -0.6192  0.5590 -0.2626
    4MOL    H43  949   3.917   2.360   4.088  1.2812 -1.3819 -0.4717
    4MOL    H44  950   3.616   2.306   3.522 -0.1917 -0.3257  0.1828
    4MOL    H45  951   3.673   2.139   3.534  1.8864  0.0833 -1.1916
    4MOL    H46  952   3.790   2.258   3.526 -1.0140  0.7932 -0.2366
    4MOL    C47  953   3.671   2.379   3.989 -0.7204  0.1760  0.5655
    4MOL    C48  954   3.634   2.519   3.935 -0.5631 -0.6114 -0.0003
    4MOL    C49  955   3.762   2.596   3.907 -0.8580  0.1127  0.1067
    4MOL    C50  956   3.550   2.499   3.806  0.3237 -0.2408 -0.6815
    4MOL    O51  957   3.451   2.431   3.800 -0.3498 -0.3351 -0.2368
    4MOL    O52  958   3.604   2.558   3.697 -0.4299  0.1286 -0.0589
    4MOL    C53  959   3.547   2.556   3.573  0.0485  0.7482  0.2140
    4MOL    H54  960   3.682   2.374   4.098  1.4542 -1.5067  0.3084
    4MOL    H55  961   3.583   2.317   3.976 -0.0504 -0.5515 -0.6151
    4MOL    H56  962   3.818   2.627   3.995 -2.9096 -1.6937  2.0995
    4MOL    H57  963   3.827   2.542   3.837 -1.5924 -2.3672  1.2710
    4MOL    H58  964   3.731   2.680   3.845 -1.6835 -0.9761 -0.9940
    4MOL    H59  965   3.475   2.475   3.565  0.0024  0.7893  0.2208
    4MOL    H60  966   3.619   2.536   3.494 -0.0139  1.4429 -0.0237
    4MOL    H61  967   3.483   2.644   3.566 -1.3725 -0.3962 -1.5584
    4MOL    C62  968   3.551   2.589   4.055  0.3675 -0.0263  0.2985
    4MOL    C63  969   3.463   2.714   4.039  0.2487  0.5795  0.6135
    4MOL    C64  970   3.546   2.813   3.960 -0.7527 -0.5589  0.7796
    4MOL    C65  971   3.334   2.678   3.962 -0.3192 -0.0189  0.5839
    4MOL    O66  972   3.301   2.736   3.859  0.1680 -0.0046  0.6710
    4MOL    O67  973   3.264   2.580   4.015 -0.3237 -0.0259  0.0214
    4MOL    C68  974   3.154   2.532   3.946  0.1532 -0.0322  0.2269
    4MOL    H69  975   3.629   2.624   4.123  0.5841  0.3977 -0.1654
    4MOL    H70  976   3.493   2.514   4.109  1.8034 -1.1002  0.3908
    4MOL    H71  977   3.547   2.792   3.853  3.0974  1.3863  0.3232
    4MOL    H72  978   3.509   2.916   3.959  0.3717 -0.1440  1.0549
    4MOL    H73  979   3.652   2.819   3.985 -0.5851 -1.0076  0.1789
    4MOL    H74  980   3.075   2.607   3.954  0.7969  0.5902  0.9427
    4MOL    H75  981   3.130   2.444   4.005 -0.5403  1.0673  1.6160
    4MOL    H76  982   3.187   2.514   3.844  0.0908 -0.0497  0.2102
    4MOL    C77  983   3.442   2.773   4.184  0.1113  0.2033 -0.2928
    4MOL    C78  984   3.335   2.882   4.222  0.5203 -1.1822  0.3487
    4MOL    C79  985   3.337   3.001   4.120 -1.0517  1.3617 -0.1308
    4MOL    C80  986   3.193   2.830   4.234  0.6095 -0.3628 -0.5209
    4MOL    O81  987   3.097   2.888   4.179 -0.1610  0.0028  0.4167
    4MOL    O82  988   3.179   2.724   4.310 -0.5373  0.3630  0.3695
    4MOL    C83  989   3.050   2.673   4.338  0.1368 -0.3357 -0.8005
    4MOL    H84  990   3.535   2.815   4.223 -0.2111  0.3950  0.2865
    4MOL    H85  991   3.412   2.692   4.250 -0.1121  0.5480  0.0347
    4MOL    H86  992   3.436   3.047   4.124  0.0186 -0.9609  0.6584
    4MOL    H87  993   3.305   2.971   4.021  0.8902  1.0676 -0.6853
    4MOL    H88  994   3.264   3.081   4.134 -1.2278  0.8593  1.9600
    4MOL    H89  995   2.994   2.744   4.399  1.0803 -0.2250 -0.0544
    4MOL    H90  996   3.055   2.575   4.385 -0.1353  0.0408  0.0251
    4MOL    H91  997   2.999   2.659   4.242 -0.6587  0.8417 -0.5617
    4MOL    C92  998   3.377   2.927   4.371  0.5218  0.4367 -0.1510
    4MOL    C93  999   3.313   3.046   4.459 -0.1174 -0.0898 -0.4133
    4MOL    C94 1000   3.398   3.033   4.586  0.2680  0.3937  0.0389
    4MOL    C95 1001   3.337   3.188   4.399  0.2691  0.1432 -0.2593
    4MOL    O96 1002   3.248   3.243   4.334 -0.9483 -0.6847  0.0472
    4MOL    O97 1003   3.462   3.237   4.408  0.6543 -0.1146 -0.0136
    4MOL    C98 1004   3.496   3.374   4.396  0.5355  0.4865  0.1478
    4MOL    H99 1005   3.482   2.958   4.363  0.2103  1.8745  1.1240
    4MOL   H100 1006   3.385   2.839   4.435  0.9442 -1.3464 -2.5562
    4MOL   H101 1007   3.501   3.068   4.575  1.1560 -1.6768  1.4231
    4MOL   H102 1008   3.372   3.109   4.660  2.5071  1.0790  0.1688
    4MOL   H103 1009   3.397   2.936   4.635 -0.3524  0.7338  0.6985
    4MOL   H104 1010   3.458   3.438   4.316 -0.2022 -0.8312 -0.5752
    4MOL   H105 1011   3.604   3.389   4.398  1.0505 -2.8066 -0.0576
    4MOL   H106 1012   3.456   3.427   4.482  0.5207  2.2505 -0.9033
    4MOL   C107 1013   3.164   3.020   4.491 -0.3097  0.1433  0.4219
    4MOL   C108 1014   3.088   3.080   4.610 -0.0480 -0.4631 -0.9764
    4MOL   C109 1015   2.942   3.074   4.560  0.0078 -0.4711 -0.6662
    4MOL   C110 1016   3.124   2.987   4.729  0.0610  0.1953  0.0514
    4MOL   O111 1017   3.211   3.011   4.809  0.1730 -0.4354  0.5553
    4MOL   O112 1018   3.070   2.862   4.722  0.5531 -0.4592 -0.2223
    4MOL   C113 1019   3.113   2.763   4.815  0.1763  0.3601  0.2229
    4MOL   H114 1020   3.147   2.912   4.495 -2.8456  0.5396  1.2744
    4MOL   H115 1021   3.104   3.048   4.405 -1.5425  1.4864  1.6766
    4MOL   H116 1022   2.913   3.162   4.503 -2.0620  1.2371  2.8597
    4MOL   H117 1023   2.923   2.982   4.505 -0.5160 -0.3164 -0.7510
    4MOL   H118 1024   2.878   3.062   4.648  0.1608 -0.2416 -0.5220
    4MOL   H119 1025   3.105   2.792   4.920  2.0625 -3.0893  1.4237
    4MOL   H120 1026   3.217   2.736   4.796  0.2951  0.6007  0.5414
    4MOL   H121 1027   3.056   2.670   4.802  0.6521  0.0605  0.2783
    4MOL   C122 1028   3.123   3.228   4.636  0.1961  0.2885 -0.3182
    4MOL   C123 1029   3.046   3.325   4.736 -0.3485 -0.0058 -0.0465
    4MOL   C124 1030   3.148   3.443   4.762 -0.4374  0.5280  0.1178
    4MOL   C125 1031   2.914   3.390   4.679  0.2289  0.2330  0.5053
    4MOL   O126 1032   2.798   3.357   4.709 -0.8260  0.5705  0.2839
    4MOL   O127 1033   2.935   3.488   4.591 -0.4712 -0.2055  0.3838
    4MOL   C128 1034   2.832   3.559   4.530 -0.0476  0.1037 -0.3805
    4MOL   H129 1035   3.124   3.286   4.544 -1.9769  0.7970 -0.0404
    4MOL   H130 1036   3.229   3.242   4.654  0.7387 -1.1419 -2.1636
    4MOL   H131 1037   3.094   3.535   4.783 -1.3464  0.2400 -0.9132
    4MOL   H132 1038   3.209   3.411   4.847 -3.3312 -0.5697  1.8674
    4MOL   H133 1039   3.222   3.470   4.686 -1.2917  0.4736 -0.7406
    4MOL   H134 1040   2.772   3.480   4.485 -1.3774  0.7018  0.3182
    4MOL   H135 1041   2.867   3.625   4.450  0.8536 -0.8440 -0.7801
    4MOL   H136 1042   2.769   3.612   4.601 -2.2208 -1.4511 -1.0764
    4MOL   C137 1043   3.009   3.256   4.873 -0.3482  0.5237  0.1322
    4MOL   C138 1044   2.935   3.316   5.002  0.2290  0.1799 -0.4947
    4MOL   C139 1045   2.921   3.474   4.998 -0.1250 -0.5868  0.7540
    4MOL   C140 1046   2.789   3.254   5.015 -0.9142  0.4551  0.5282
    4MOL   O141 1047   2.770   3.148   4.961  0.3401  0.6740  0.0228
    4MOL   O142 1048   2.706   3.314   5.102 -0.2338 -0.2491  0.1169
    4MOL   C143 1049   2.573   3.269   5.116 -0.3945 -0.0692  0.1559
    4MOL   H144 1050   3.108   3.222   4.904 -1.6977 -1.6744  2.2313
    4MOL   H145 1051   2.974   3.159   4.840  0.4883  0.3441 -0.2386
    4MOL   H146 1052   2.884   3.532   5.083  0.4356 -0.5548  0.9791
    4MOL   H147 1053   3.015   3.525   4.976  0.1101 -2.7725 -4.1291
    4MOL   H148 1054   2.852   3.502   4.919  0.3530  1.2502  0.9796
    4MOL   H149 1055   2.538   3.231   5.020  1.3147  0.1646 -0.5743
    4MOL   H150 1056   2.506   3.352   5.139 -0.4517 -0.7630  2.6928
    4MOL   H151 1057   2.559   3.183   5.181 -3.7472 -1.1190 -1.8237
    4MOL   C152 1058   3.024   3.282   5.125  0.1053  0.6085  0.3534
    4MOL   C153 1059   3.042   3.142   5.197 -0.1522 -0.2914 -0.0337
    4MOL   C154 1060   3.052   3.028   5.095 -0.3157 -0.1464  0.3334
    4MOL   C155 1061   3.170   3.150   5.282 -0.7029 -1.1006  0.0980
    4MOL   O156 1062   3.265   3.080   5.245  0.4688  0.0268  0.7194
    4MOL   O157 1063   3.184   3.259   5.361  0.0079  0.6557 -0.3001
    4MOL   C158 1064   3.298   3.281   5.436 -0.5265 -0.1814  0.0227
    4MOL   H159 1065   2.989   3.351   5.202 -1.3054 -0.0443  0.3293
    4MOL   H160 1066   3.118   3.333   5.105 -0.0063  0.8848  0.5368
    4MOL   H161 1067   3.066   2.930   5.139  0.1777  0.2292  1.0355
    4MOL   H162 1068   2.968   3.015   5.026 -0.6333 -0.4426  0.7797
    4MOL   H163 1069   3.141   3.032   5.031 -1.9016  0.5371 -1.9119
    4MOL   H164 1070   3.380   3.326   5.381 -1.9495  1.5466 -0.7331
    4MOL   H165 1071   3.325   3.197   5.500 -1.7073 -1.3437 -0.9604
    4MOL   H166 1072   3.274   3.353   5.515  1.8694  0.8134 -0.1196
    4MOL   C167 1073   2.924   3.116   5.302 -0.4261  0.1208  0.4097
    4MOL   C168 1074   2.853   2.979   5.352  0.0614 -0.4107 -0.6590
    4MOL   C169 1075   2.774   2.914   5.230  0.7614 -0.6059 -0.7634
    4MOL   C170 1076   2.957   2.870   5.390 -0.2937 -0.5146  0.1873
    4MOL   O171 1077   3.076   2.894   5.402  0.2875 -0.4950 -0.1767
    4MOL   O172 1078   2.904   2.751   5.433 -0.1061  0.0281 -0.1121
    4MOL   C173 1079   2.993   2.654   5.488  0.0689 -0.5247  0.8424
    4MOL   H174 1080   2.836   3.165   5.260 -0.4637 -0.8771 -0.7030
    4MOL   H175 1081   2.948   3.171   5.393  0.4373 -0.3684  0.4879
    4MOL   H176 1082   2.837   2.891   5.145  1.9937 -0.4205  0.0879
    4MOL   H177 1083   2.728   2.820   5.260 -0.0440  0.5640  1.8270
    4MOL   H178 1084   2.692   2.975   5.191  1.8492  1.4111  0.0465
    4MOL   H179 1085   2.944   2.626   5.581 -0.7553  2.5936  1.4054
    4MOL   H180 1086   3.078   2.711   5.526 -1.7426  3.0306 -0.1333
    4MOL   H181 1087   3.005   2.574   5.415  1.7145  1.0560 -0.6797
    4MOL   C182 1088   2.741   2.992   5.462  0.7356  0.6058  0.5004
    4MOL   C183 1089   2.762   3.067   5.598 -0.2433 -0.3864 -0.0720
    4MOL   C184 1090   2.906   3.028   5.647 -0.0468  0.2400 -1.1408
    4MOL   C185 1091   2.763   3.220   5.583 -0.3257 -0.5615  0.3606
    4MOL   O186 1092   2.698   3.271   5.492 -0.0174 -0.5648  0.3168
    4MOL   O187 1093   2.839   3.282   5.670 -0.6247 -0.3435  0.1089
    4MOL   C188 1094   2.853   3.422   5.660  0.0875 -0.0875  0.3847
    4MOL   H189 1095   2.718   2.894   5.505 -2.7399  1.8677  1.6512
    4MOL   H190 1096   2.650   3.025   5.412  1.7142  1.8215 -0.4813
    4MOL   H191 1097   2.981   3.065   5.578  0.2982 -2.5682 -2.3105
    4MOL   H192 1098   2.931   3.060   5.748  1.0733  2.9118 -2.2240
    4MOL   H193 1099   2.905   2.920   5.659  2.5643  0.0637 -2.1857
    4MOL   H194 1100   2.930   3.454   5.731  1.2030  1.4532 -1.4794
    4MOL   H195 1101   2.757   3.466   5.688  0.6180  1.0974  0.3875
    4MOL   H196 1102   2.877   3.457   5.560  4.3216 -0.1693  1.2683
    4MOL   C197 1103   2.660   3.017   5.714 -0.3216 -0.0400 -0.2079
    4MOL   C198 1104   2.575   3.109   5.810 -0.2633  0.2593  0.0009
    4MOL   C199 1105   2.515   3.006   5.910 -0.5827 -0.2655 -0.0016
    4MOL   C200 1106   2.663   3.201   5.901 -0.4525  0.1548  0.3757
    4MOL   O201 1107   2.628   3.313   5.917 -0.0774 -0.1618  0.1325
    4MOL   O202 1108   2.777   3.155   5.943 -0.1401 -0.5840  0.4591
    4MOL   C203 1109   2.869   3.248   5.999  0.0997  0.1155 -0.4282
    4MOL   H204 1110   2.719   2.951   5.778 -1.4063 -1.0437 -0.2203
    4MOL   H205 1111   2.600   2.949   5.654  2.8334 -1.4534 -1.9269
    4MOL   H206 1112   2.458   3.057   5.987 -0.7097  0.2949 -0.4628
    4MOL   H207 1113   2.452   2.938   5.853 -0.5220 -0.3983  0.0898
    4MOL   H208 1114   2.586   2.955   5.975 -0.8675  1.5173  1.7333
    4MOL   H209 1115   2.894   3.330   5.932 -0.3114 -0.9201 -1.8931
    4MOL   H210 1116   2.953   3.191   6.039  0.0957 -0.2387 -0.9148
    4MOL   H211 1117   2.817   3.287   6.086  0.3515  1.9020 -1.0660
    4MOL   C212 1118   2.461   3.186   5.746  1.1048  0.0203  0.3228
    4MOL   C213 1119   2.334   3.133   5.680  0.0317  0.7638  0.2038
    4MOL   C214 1120   2.364   3.025   5.575 -0.0447  0.4981  0.1845
    4MOL   C215 1121   2.242   3.077   5.793 -0.3112 -0.2600  0.0665
    4MOL   O216 1122   2.192   2.962   5.783  0.7420 -0.1455  0.3254
    4MOL   O217 1123   2.223   3.163   5.893  0.2994 -0.3048 -0.4168
    4MOL   C218 1124   2.108   3.152   5.982 -0.3900 -0.4151  0.9282
    4MOL   H219 1125   2.514   3.258   5.682  0.5744  1.0977  1.0872
    4MOL   H220 1126   2.428   3.255   5.823 -0.8120 -0.6360  0.1262
    4MOL   H221 1127   2.434   3.069   5.505  0.9112  0.0307  0.8377
    4MOL   H222 1128   2.401   2.931   5.615  0.1328 -0.8257 -3.0006
    4MOL   H223 1129   2.274   2.994   5.521  0.5183  0.3383 -0.6653
    4MOL   H224 1130   2.106   3.049   6.018  0.9537 -0.9972 -0.5808
    4MOL   H225 1131   2.010   3.169   5.937 -0.4940  2.0103  2.0137
    4MOL   H226 1132   2.121   3.221   6.065 -0.3158 -1.0069  1.4129
    4MOL   C227 1133   2.265   3.258   5.608  0.3998 -0.4003 -0.1974
    4MOL   C228 1134   2.147   3.250   5.500 -0.2578 -0.6889 -0.7435
    4MOL   C229 1135   2.041   3.139   5.540 -0.1054  0.1317 -0.2745
    4MOL   C230 1136   2.074   3.387   5.494 -0.7652 -0.2395  0.2255
    4MOL   O231 1137   1.957   3.412   5.507 -0.1923  0.3230 -0.6390
    4MOL   O232 1138   2.162   3.487   5.484 -0.1841  0.1987  0.5978
    4MOL   C233 1139   2.119   3.621   5.482  0.1252  0.5296 -0.3181
    4MOL   H234 1140   2.340   3.325   5.568 -0.3517  0.2657 -0.5069
    4MOL   H235 1141   2.219   3.319   5.686 -0.1714  2.4969 -2.6865
    4MOL   H236 1142   2.071   3.039   5.510 -0.2701 -0.3330  1.0856
    4MOL   H237 1143   2.007   3.148   5.643  0.6522 -1.7058  0.1669
    4MOL   H238 1144   1.946   3.154   5.489 -0.3578  0.8423  0.4010
    4MOL   H239 1145   2.203   3.689   5.467 -0.5570  1.7828  1.3659
    4MOL   H240 1146   2.081   3.647   5.581  1.5565 -0.1398  0.4262
    4MOL   H241 1147   2.042   3.637   5.407 -1.4015  2.1531  1.5313
    4MOL   C242 1148   2.210   3.232   5.362  0.3832 -0.3018  0.2944
    4MOL   C243 1149   2.131   3.234   5.227 -0.7013 -0.4664  0.2883
    4MOL   C244 1150   1.987   3.184   5.230  0.3080  0.6824 -0.7419
    4MOL   C245 1151   2.128   3.383   5.175  0.4440  0.2458 -0.4591
    4MOL   O246 1152   2.228   3.450   5.192  0.0323 -0.5566  0.5335
    4MOL   O247 1153   2.019   3.421   5.107 -0.0786  0.3366  0.2983
    4MOL   C248 1154   2.003   3.560   5.093  0.0546  0.0442 -1.0247
    4MOL   H249 1155   2.257   3.134   5.356 -1.5633 -1.3132  1.3480
    4MOL   H250 1156   2.295   3.297   5.344  0.4992 -0.5079  0.0962
    4MOL   H251 1157   1.977   3.091   5.286  1.3321  0.5468 -0.7704
    4MOL   H252 1158   1.920   3.253   5.282  1.4015 -2.4480  5.2840
    4MOL   H253 1159   1.946   3.178   5.129  0.7904 -0.7317 -0.8575
    4MOL   H254 1160   1.924   3.576   5.020 -1.1676  0.3247  0.3431
    4MOL   H255 1161   2.095   3.602   5.051 -1.2778  2.0619 -2.0182
    4MOL   H256 1162   1.982   3.607   5.188 -0.0592 -0.4471 -0.8049
    4MOL   C257 1163   2.222   3.153   5.120  0.0088 -0.2402 -0.3029
    4MOL   C258 1164   2.236   2.999   5.105 -0.5963  0.1259 -0.1532
    4MOL   C259 1165   2.245   2.927   5.253 -0.0452 -0.6830 -0.1643
    4MOL   C260 1166   2.105   2.953   5.040  0.7601  0.4594 -0.2725
    4MOL   O261 1167   2.019   2.881   5.099  0.5935  0.0436  0.0557
    4MOL   O262 1168   2.081   2.991   4.914  0.5582 -0.6611  0.1839
    4MOL   C263 1169   1.948   2.963   4.861 -0.0628  0.3398  0.4358
    4MOL   H264 1170   2.318   3.205   5.123 -0.2064  0.1560 -0.1411
    4MOL   H265 1171   2.187   3.191   5.024  1.7423  2.5080  0.0975
    4MOL   H266 1172   2.221   2.822   5.233 -0.9802 -0.6328  0.6798
    4MOL   H267 1173   2.340   2.948   5.301  0.1565 -0.9094 -0.4574
    4MOL   H268 1174   2.165   2.954   5.322  1.8074  3.2145  0.5392
    4MOL   H269 1175   1.876   3.010   4.929 -1.1507 -1.1686  0.3667
    4MOL   H270 1176   1.917   2.859   4.870 -3.3383  1.0494 -1.8329
    4MOL   H271 1177   1.928   2.992   4.758 -0.8957 -0.8695  0.2474
    4MOL   C272 1178   2.361   2.973   5.019 -0.0495 -0.3817 -0.3396
    4MOL   C273 1179   2.418   2.831   4.969 -0.1572 -0.0949  0.2386
    4MOL   C274 1180   2.441   2.738   5.092 -0.0421 -0.3413  0.2910
    4MOL   C275 1181   2.318   2.765   4.868  0.1030 -0.3664  0.5907
    4MOL   O276 1182   2.265   2.659   4.893  0.4465 -0.2933  0.2567
    4MOL   O277 1183   2.291   2.844   4.758  0.8076 -0.1965  0.4363
    4MOL   C278 1184   2.218   2.788   4.652  0.2438  0.1459  0.0845
    4MOL   H279 1185   2.450   3.013   5.067 -0.9232 -0.8627  1.7375
    4MOL   H280 1186   2.358   3.039   4.932 -0.1643  2.4939  1.7491
    4MOL   H281 1187   2.351   2.694   5.135  0.7365 -0.8401  1.4170
    4MOL   H282 1188   2.493   2.646   5.066 -0.0531 -0.3184  0.1870
    4MOL   H283 1189   2.503   2.785   5.168  0.1102 -1.0229  0.5891
    4MOL   H284 1190   2.273   2.706   4.604 -0.3592  0.2391 -0.7680
    4MOL   H285 1191   2.207   2.862   4.573 -1.9502 -1.4780 -1.1750
    4MOL   H286 1192   2.118   2.751   4.675  0.1297 -0.4154 -1.2690
    4MOL   C287 1193   2.555   2.869   4.891  0.4833  0.1581 -0.5386
    4MOL   C288 1194   2.615   2.756   4.798 -0.0256 -0.0640  0.0514
    4MOL   C289 1195   2.722   2.818   4.703 -0.2166 -0.1533 -0.1506
    4MOL   C290 1196   2.689   2.645   4.877  0.0150  0.4367  0.2604
    4MOL   O291 1197   2.652   2.528   4.873 -0.0805 -0.2585  0.1580
    4MOL   O292 1198   2.791   2.693   4.951  0.0129 -0.2535 -0.6447
    4MOL   C293 1199   2.862   2.603   5.039  0.5701 -0.1650 -0.5195
    4MOL   H294 1200   2.626   2.881   4.973  0.6663 -0.4022 -0.6121
    4MOL   H295 1201   2.544   2.963   4.838  0.9810  0.4644 -0.1085
    4MOL   H296 1202   2.805   2.874   4.746 -0.8804  1.2112 -0.6025
    4MOL   H297 1203   2.748   2.746   4.625  0.4912 -0.9678  0.8310
    4MOL   H298 1204   2.673   2.892   4.640  0.7857  1.1608  0.6034
    4MOL   H299 1205   2.784   2.548   5.093  1.3327 -1.2222 -0.4825
    4MOL   H300 1206   2.922   2.664   5.106  1.5795 -3.0127  1.2758
    4MOL   H301 1207   2.932   2.536   4.989 -0.1849  0.3453 -2.3061
    4MOL   H302 1208   2.544   2.712   4.728  0.9388 -2.3769  0.4881
    5MOL     C1 1209   4.701   2.654   1.218  0.2001 -0.5424  0.4309
    5MOL     C2 1210   4.842   2.588   1.200 -1.0536 -0.1668 -1.2129
    5MOL     C3 1211   4.879   2.620   1.056 -0.3494 -0.5044 -0.0284
    5MOL     C4 1212   4.948   2.642   1.304  0.4841 -0.1763  0.4206
    5MOL     O5 1213   4.912   2.694   1.415  0.1626 -0.5325 -0.1358
    5MOL     O6 1214   5.074   2.608   1.265  0.0012  0.1517 -0.6060
    5MOL     C7 1215   5.187   2.624   1.352  0.2495 -0.1463 -0.5453
    5MOL     H8 1216   4.687   2.743   1.157 -0.4285 -1.5777 -0.9637
    5MOL     H9 1217   4.629   2.583   1.179  0.5885 -2.0311  2.3496
    5MOL    H10 1218   4.814   2.575   0.981  0.8156 -1.2170 -0.6276
    5MOL    H11 1219   4.877   2.726   1.031  1.4443 -0.9790 -2.3987
    5MOL    H12 1220   4.979   2.584   1.031 -0.3759 -1.9533  1.8219
    5MOL    H13 1221   5.272   2.649   1.288 -0.0178  0.4682 -0.6627
    5MOL    H14 1222   5.196   2.531   1.408  2.3864  1.0020  1.1150
    5MOL    H15 1223   5.177   2.699   1.430  0.3884 -1.1487  0.4405
    5MOL    H16 1224   4.662   2.681   1.317 -1.3284  4.9833 -1.4992
    5MOL    C17 1225   4.827   2.434   1.198  0.5277 -0.0429  0.6987
    5MOL    C18 1226   4.810   2.341   1.328  0.1685  0.1294  0.4997
    5MOL    C19 1227   4.706   2.403   1.422 -0.1244  0.5814 -0.6385
    5MOL    C20 1228   4.741   2.213   1.274 -0.2846 -0.2467  0.7985
    5MOL    O21 1229   4.746   2.182   1.153  0.3944 -0.0062  0.1163
    5MOL    O22 1230   4.693   2.132   1.370 -0.0139 -0.3630 -0.0008
    5MOL    C23 1231   4.618   2.018   1.328  0.7785  0.5707 -0.1387
    5MOL    H24 1232   4.908   2.394   1.138  0.3253 -1.8104  1.5727
    5MOL    H25 1233   4.740   2.417   1.134  0.1811 -1.8151  1.5988
    5MOL    H26 1234   4.759   2.486   1.469 -0.4515 -0.0951  0.9575
    5MOL    H27 1235   4.617   2.449   1.379  0.7867  2.0701 -0.9667
    5MOL    H28 1236   4.669   2.332   1.496 -1.2013  3.2430  1.4861
    5MOL    H29 1237   4.528   2.046   1.273  1.3673  0.8314 -0.9809
    5MOL    H30 1238   4.600   1.957   1.417 -0.4707  1.3142  0.1304
    5MOL    H31 1239   4.684   1.957   1.266 -0.6867 -0.2192 -0.9322
    5MOL    C32 1240   4.938   2.317   1.425  0.5902 -0.1994  0.8066
    5MOL    C33 1241   5.058   2.220   1.394 -0.2336 -0.3690 -0.0501
    5MOL    C34 1242   5.100   2.251   1.246 -0.1297 -0.4947  0.0829
    5MOL    C35 1243   5.179   2.261   1.484 -0.2447 -0.0877  0.3315
    5MOL    O36 1244   5.282   2.317   1.441  0.3787  0.2877 -0.1424
    5MOL    O37 1245   5.159   2.239   1.612  0.4386  0.8228 -0.3498
    5MOL    C38 1246   5.250   2.291   1.708  0.1184 -0.0684  0.3354
    5MOL    H39 1247   4.889   2.276   1.514 -1.1706  1.1995  0.5035
    5MOL    H40 1248   4.974   2.411   1.466  1.3106  0.1326 -0.5728
    5MOL    H41 1249   5.037   2.198   1.174  0.3892  0.7004 -1.2640
    5MOL    H42 1250   5.117   2.356   1.221 -1.8712 -0.3467 -0.5601
    5MOL    H43 1251   5.203   2.219   1.231 -1.1020 -3.1541 -1.1888
    5MOL    H44 1252   5.244   2.399   1.721 -0.3193 -0.3386  2.5469
    5MOL    H45 1253   5.356   2.267   1.697  0.3688  1.4464 -0.6337
    5MOL    H46 1254   5.227   2.253   1.808 -0.0377  1.1165  0.7525
    5MOL    C47 1255   5.019   2.069   1.429 -1.5060  1.0077 -0.2597
    5MOL    C48 1256   5.112   1.942   1.404 -0.4337  0.6745  0.2414
    5MOL    C49 1257   5.143   1.933   1.256  0.2310 -0.4220  0.1756
    5MOL    C50 1258   5.231   1.937   1.498 -0.3146  0.4551 -0.0979
    5MOL    O51 1259   5.343   1.907   1.455 -0.3508 -0.1361  0.2600
    5MOL    O52 1260   5.204   1.966   1.630 -0.2194 -0.0913  0.4942
    5MOL    C53 1261   5.314   1.934   1.716  0.0349 -0.1543  0.4624
    5MOL    H54 1262   4.922   2.057   1.381 -0.8347  0.4059 -1.4644
    5MOL    H55 1263   5.003   2.054   1.536 -1.6041  0.6911 -0.3192
    5MOL    H56 1264   5.056   1.943   1.191  0.7815  1.3077 -0.3302
    5MOL    H57 1265   5.225   2.000   1.228 -1.1427  0.5313 -1.6356
    5MOL    H58 1266   5.191   1.843   1.217 -1.3561 -0.8889 -0.7188
    5MOL    H59 1267   5.359   2.030   1.739  0.9262 -0.5866  0.5434
    5MOL    H60 1268   5.397   1.871   1.684  0.4455 -0.8662  2.8265
    5MOL    H61 1269   5.271   1.892   1.807  0.5765 -0.0465  0.7721
    5MOL    C62 1270   5.023   1.810   1.438 -0.3410  0.0753  0.1805
    5MOL    C63 1271   5.066   1.655   1.424  0.1682  0.5129 -0.3455
    5MOL    C64 1272   5.126   1.624   1.287  0.5167  0.5651  0.3563
    5MOL    C65 1273   5.171   1.610   1.535 -0.2819 -0.0967  0.1617
    5MOL    O66 1274   5.198   1.671   1.638 -0.2901 -0.1475  0.0043
    5MOL    O67 1275   5.228   1.483   1.502 -0.1306 -0.2105  0.6513
    5MOL    C68 1276   5.333   1.419   1.583  0.6151  0.1152  0.3865
    5MOL    H69 1277   4.935   1.821   1.375  1.4678  2.3954 -2.0390
    5MOL    H70 1278   4.994   1.821   1.543  4.7998  0.5475  1.7118
    5MOL    H71 1279   5.079   1.676   1.203 -1.4085 -0.4879  0.7551
    5MOL    H72 1280   5.233   1.643   1.283  0.8212 -0.8185  1.4419
    5MOL    H73 1281   5.112   1.522   1.252  1.5656  0.4961  0.1256
    5MOL    H74 1282   5.392   1.367   1.508  3.0403  0.9023  1.7106
    5MOL    H75 1283   5.281   1.359   1.658 -0.1312  0.4224  0.1179
    5MOL    H76 1284   5.397   1.499   1.621 -0.3117  1.4177 -0.7472
    5MOL    C77 1285   4.941   1.556   1.453 -0.0610 -0.5552  0.0496
    5MOL    C78 1286   4.803   1.565   1.380  0.0711 -0.3518 -0.4860
    5MOL    C79 1287   4.717   1.665   1.469  0.3739 -0.2729  0.6659
    5MOL    C80 1288   4.809   1.620   1.236  0.2319 -0.2263  1.3447
    5MOL    O81 1289   4.766   1.722   1.190  0.1122 -0.4883 -0.3850
    5MOL    O82 1290   4.865   1.536   1.153 -0.3931  0.4762 -0.4858
    5MOL    C83 1291   4.872   1.566   1.012  0.4277 -0.3026  0.3091
    5MOL    H84 1292   4.927   1.568   1.560  1.6756 -0.7505  0.3077
    5MOL    H85 1293   4.994   1.463   1.431 -0.0686 -0.5242 -0.1035
    5MOL    H86 1294   4.769   1.755   1.499 -0.3449  0.8968 -1.4860
    5MOL    H87 1295   4.630   1.702   1.415  0.2830 -2.4824 -0.7598
    5MOL    H88 1296   4.694   1.611   1.561  1.9380 -1.7111  0.2412
    5MOL    H89 1297   4.779   1.548   0.958  0.6066 -0.5892  0.0929
    5MOL    H90 1298   4.942   1.495   0.967  0.8343  0.5615 -0.4175
    5MOL    H91 1299   4.916   1.664   0.998  0.5351 -0.6411 -1.7791
    5MOL    C92 1300   4.748   1.418   1.390  0.3781 -0.4778 -0.3346
    5MOL    C93 1301   4.617   1.365   1.328  0.0667 -0.2104 -0.6175
    5MOL    C94 1302   4.639   1.346   1.172  0.1972  0.1321 -0.2225
    5MOL    C95 1303   4.595   1.227   1.401 -0.5234  0.4695  0.3198
    5MOL    O96 1304   4.625   1.119   1.353  0.0567  0.2304  0.2500
    5MOL    O97 1305   4.575   1.246   1.538  0.1880 -0.0803  0.5688
    5MOL    C98 1306   4.549   1.130   1.619 -0.2514 -0.0368 -0.3965
    5MOL    H99 1307   4.745   1.404   1.498 -0.0040 -0.8690 -0.3957
    5MOL   H100 1308   4.827   1.351   1.357 -0.3900 -1.7744  0.4301
    5MOL   H101 1309   4.737   1.305   1.149  0.1026  0.4864 -1.3158
    5MOL   H102 1310   4.564   1.272   1.144 -0.5783  0.6276  0.5171
    5MOL   H103 1311   4.617   1.431   1.108 -1.1285  0.1229  0.2090
    5MOL   H104 1312   4.489   1.054   1.569  1.1753 -2.7645  1.9175
    5MOL   H105 1313   4.497   1.158   1.711 -1.6158 -0.2016 -1.1008
    5MOL   H106 1314   4.647   1.089   1.642  0.3546  1.4319 -0.2801
    5MOL   C107 1315   4.492   1.455   1.367  0.2085 -0.5209 -0.2121
    5MOL   C108 1316   4.345   1.424   1.328 -0.1854  0.6783  0.0903
    5MOL   C109 1317   4.268   1.529   1.410 -0.8300  0.0870  0.4384
    5MOL   C110 1318   4.335   1.460   1.171 -0.0271  0.2165  0.0251
    5MOL   O111 1319   4.317   1.369   1.087  0.2062  0.6376  0.4081
    5MOL   O112 1320   4.353   1.584   1.138 -0.2152 -0.1083 -0.0791
    5MOL   C113 1321   4.385   1.611   1.005 -0.1447 -0.0286 -0.6343
    5MOL   H114 1322   4.509   1.555   1.325  1.5858  0.2895  2.2216
    5MOL   H115 1323   4.487   1.488   1.470  3.3916  1.0027 -0.4814
    5MOL   H116 1324   4.179   1.557   1.354  0.1527  3.6440  0.5140
    5MOL   H117 1325   4.237   1.508   1.513  1.3454  0.1601  1.1270
    5MOL   H118 1326   4.315   1.628   1.411  0.2899 -0.4372 -0.2278
    5MOL   H119 1327   4.489   1.576   1.000 -0.1810 -0.1312 -0.6727
    5MOL   H120 1328   4.373   1.718   0.988 -0.0096 -0.1131 -1.2805
    5MOL   H121 1329   4.328   1.552   0.934 -1.1363  1.0223 -0.7156
    5MOL   C122 1330   4.296   1.273   1.361  0.4519  0.3786  0.2135
    5MOL   C123 1331   4.142   1.223   1.358  0.4580 -0.6820  0.6195
    5MOL   C124 1332   4.066   1.307   1.471 -0.1284 -0.7100  0.2598
    5MOL   C125 1333   4.067   1.244   1.222  0.0079  0.2459 -0.1656
    5MOL   O126 1334   3.967   1.320   1.219 -0.1556  0.0929  0.4079
    5MOL   O127 1335   4.121   1.176   1.121 -0.0869 -0.0094 -0.3165
    5MOL   C128 1336   4.050   1.175   1.003 -0.7965  0.6725  0.2488
    5MOL   H129 1337   4.338   1.261   1.461  1.7090  0.4509 -0.2899
    5MOL   H130 1338   4.348   1.207   1.292 -1.9808  0.1914 -1.4652
    5MOL   H131 1339   4.042   1.407   1.434  1.5810 -0.1918  0.5149
    5MOL   H132 1340   3.969   1.275   1.510  0.0673 -0.9748  0.5323
    5MOL   H133 1341   4.128   1.312   1.560  0.5581 -1.3133 -0.1809
    5MOL   H134 1342   4.089   1.099   0.935  0.4888  0.5885  1.0730
    5MOL   H135 1343   4.063   1.270   0.952  1.1485  0.3712  0.1549
    5MOL   H136 1344   3.944   1.152   1.016 -0.8092 -0.1744 -1.1847
    5MOL   C137 1345   4.149   1.078   1.406 -0.1856 -0.8320 -0.3911
    5MOL   C138 1346   4.043   0.963   1.400  0.3569 -0.6874  0.3504
    5MOL   C139 1347   3.909   1.021   1.423  0.2733  0.6594 -0.4181
    5MOL   C140 1348   4.029   0.893   1.261  0.0472  0.3630 -0.3346
    5MOL   O141 1349   3.917   0.863   1.216 -0.2495 -0.4708 -0.9085
    5MOL   O142 1350   4.142   0.884   1.191  0.2129 -0.4757  0.1965
    5MOL   C143 1351   4.132   0.827   1.062 -0.6742 -0.2484 -0.4877
    5MOL   H144 1352   4.163   1.091   1.513  0.7308  1.7738 -0.7660
    5MOL   H145 1353   4.244   1.036   1.373 -0.1659 -1.4270  0.4159
    5MOL   H146 1354   3.903   1.063   1.524  1.1855  1.1579 -0.5681
    5MOL   H147 1355   3.878   1.092   1.346  0.1761 -0.4528 -1.4066
    5MOL   H148 1356   3.835   0.943   1.438 -0.7059  1.4755 -0.9459
    5MOL   H149 1357   4.066   0.740   1.063  0.6055 -1.2458  2.1469
    5MOL   H150 1358   4.231   0.793   1.031  0.2876  0.6253  1.5503
    5MOL   H151 1359   4.093   0.897   0.989  2.4811  2.5040  0.3137
    5MOL   C152 1360   4.084   0.860   1.522  0.0700  0.3647  0.5605
    5MOL   C153 1361   4.041   0.708   1.541 -0.1990  1.1992 -0.2773
    5MOL   C154 1362   3.885   0.696   1.525  0.2373 -0.0304  0.1054
    5MOL   C155 1363   4.093   0.601   1.444 -0.1494 -0.5543 -0.1812
    5MOL   O156 1364   4.158   0.628   1.346 -0.3479  0.0217  0.3863
    5MOL   O157 1365   4.062   0.478   1.482 -0.6119 -0.5457 -0.0803
    5MOL   C158 1366   4.097   0.372   1.397 -0.3968  0.1498 -0.1289
    5MOL   H159 1367   4.050   0.912   1.611 -0.1775  0.2341  0.5440
    5MOL   H160 1368   4.193   0.862   1.527 -0.0248  1.4108  2.5209
    5MOL   H161 1369   3.831   0.768   1.586 -1.7086 -1.8714  0.6147
    5MOL   H162 1370   3.853   0.707   1.421  0.8135  2.5175  0.1627
    5MOL   H163 1371   3.850   0.597   1.554 -3.8410  1.3239  0.1852
    5MOL   H164 1372   4.200   0.339   1.413  0.5223  2.5698 -0.8176
    5MOL   H165 1373   4.098   0.405   1.293  1.9559  2.0894  0.4406
    5MOL   H166 1374   4.027   0.290   1.411  0.1201 -0.5110 -1.3476
    5MOL   C167 1375   4.063   0.674   1.693  0.5657 -0.3789  0.1364
    5MOL   C168 1376   4.197   0.659   1.766 -0.3110  0.7949 -0.0820
    5MOL   C169 1377   4.292   0.555   1.690 -0.2711  0.2036 -0.2755
    5MOL   C170 1378   4.271   0.793   1.775 -0.4288 -0.1821  0.0686
    5MOL   O171 1379   4.374   0.816   1.706 -0.1661 -0.0597 -0.3745
    5MOL   O172 1380   4.222   0.881   1.861  0.2706  0.5644 -0.3703
    5MOL   C173 1381   4.266   1.017   1.866  0.4267 -0.0375  0.4058
    5MOL   H174 1382   4.005   0.583   1.709 -1.1474  0.6605 -0.0442
    5MOL   H175 1383   4.011   0.750   1.750 -0.5888 -0.1133 -1.2540
    5MOL   H176 1384   4.314   0.592   1.590 -2.6630 -0.6220 -1.1422
    5MOL   H177 1385   4.390   0.553   1.737  0.7328 -2.3628 -2.3293
    5MOL   H178 1386   4.244   0.458   1.679  1.4831 -0.6947 -0.2179
    5MOL   H179 1387   4.364   1.044   1.905  1.1595 -2.6323  0.4087
    5MOL   H180 1388   4.198   1.080   1.923  2.5676  3.1687 -0.4130
    5MOL   H181 1389   4.254   1.057   1.765 -1.2736 -2.5073 -0.4086
    5MOL   C182 1390   4.178   0.593   1.914  0.2475  0.0961  0.4466
    5MOL   C183 1391   4.055   0.621   2.014 -0.9316  0.2530  0.0249
    5MOL   C184 1392   4.022   0.773   2.041  0.0205  0.1650  0.6248
    5MOL   C185 1393   3.927   0.549   1.960 -0.8538 -0.3684 -0.1653
    5MOL   O186 1394   3.814   0.599   1.958 -0.0318  0.4456 -0.9373
    5MOL   O187 1395   3.960   0.426   1.908 -0.0801  0.4781  0.4803
    5MOL   C188 1396   3.869   0.334   1.855 -0.1534  0.3665  0.3111
    5MOL   H189 1397   4.272   0.593   1.970  0.7511 -0.3838 -0.3898
    5MOL   H190 1398   4.169   0.488   1.885 -0.6458  0.1374  0.5655
    5MOL   H191 1399   3.978   0.830   1.959 -0.6548  1.1345  1.6429
    5MOL   H192 1400   3.936   0.782   2.107 -1.5434 -0.8868 -1.1788
    5MOL   H193 1401   4.103   0.831   2.084  0.8606 -0.9389  0.5745
    5MOL   H194 1402   3.861   0.357   1.748  2.0267  3.8124  0.8056
    5MOL   H195 1403   3.769   0.336   1.899 -0.1066 -0.0568  0.4338
    5MOL   H196 1404   3.895   0.228   1.859 -1.7734  0.0466  3.4075
    5MOL   C197 1405   4.100   0.555   2.147  0.3786 -0.1775 -0.0388
    5MOL   C198 1406   4.017   0.503   2.266  0.1500  0.6708 -0.5298
    5MOL   C199 1407   3.969   0.360   2.226 -0.1132  0.3800  0.7492
    5MOL   C200 1408   4.114   0.489   2.393  0.5564  0.2841 -0.0624
    5MOL   O201 1409   4.164   0.584   2.453 -0.2681 -0.6225 -0.1535
    5MOL   O202 1410   4.145   0.366   2.428 -0.0731 -0.1999 -0.0745
    5MOL   C203 1411   4.239   0.347   2.533  0.4029 -0.0026  0.2872
    5MOL   H204 1412   4.173   0.624   2.190  2.2082 -1.0062 -1.7096
    5MOL   H205 1413   4.173   0.479   2.119 -0.0617  0.2768 -2.5605
    5MOL   H206 1414   3.938   0.302   2.313 -1.6765 -1.2449 -0.8443
    5MOL   H207 1415   3.880   0.362   2.163  1.5819  1.5050 -1.6668
    5MOL   H208 1416   4.049   0.300   2.181  1.3791  0.3132  3.3784
    5MOL   H209 1417   4.331   0.395   2.500  0.3952 -0.1619  0.0321
    5MOL   H210 1418   4.255   0.244   2.564  0.9372 -0.1773 -0.5724
    5MOL   H211 1419   4.198   0.407   2.615 -1.9891  0.2490 -1.0535
    5MOL   C212 1420   3.896   0.597   2.310 -0.7730 -0.2955  0.7382
    5MOL   C213 1421   3.781   0.554   2.403 -0.2057 -0.0592  0.3298
    5MOL   C214 1422   3.698   0.451   2.320 -0.0680 -0.0911 -0.1093
    5MOL   C215 1423   3.820   0.487   2.536 -0.8134 -0.5319 -0.2251
    5MOL   O216 1424   3.909   0.527   2.609 -0.0849 -0.4002  0.8283
    5MOL   O217 1425   3.738   0.385   2.573  0.2439 -0.1002 -0.1106
    5MOL   C218 1426   3.767   0.319   2.692 -0.1747 -0.1323  0.6080
    5MOL   H219 1427   3.851   0.618   2.213 -1.5552 -2.1935  0.6614
    5MOL   H220 1428   3.934   0.697   2.327 -0.7143 -0.3163  0.7317
    5MOL   H221 1429   3.601   0.436   2.367  1.2434  0.7363  2.9692
    5MOL   H222 1430   3.665   0.470   2.218  0.5517  2.9272  0.1988
    5MOL   H223 1431   3.734   0.349   2.327 -2.6138 -0.8458  3.0763
    5MOL   H224 1432   3.706   0.232   2.717  0.5399 -0.7320  0.2720
    5MOL   H225 1433   3.743   0.388   2.773 -0.2315 -1.2473  1.5620
    5MOL   H226 1434   3.873   0.296   2.686 -0.4675 -1.0702 -1.3358
    5MOL   C227 1435   3.695   0.685   2.429 -0.0410 -0.3900 -0.2547
    5MOL   C228 1436   3.538   0.693   2.476 -0.1568  0.7633 -0.1589
    5MOL   C229 1437   3.436   0.677   2.361  0.0144  0.6048 -0.3462
    5MOL   C230 1438   3.510   0.592   2.586 -0.1488 -0.0758  0.1493
    5MOL   O231 1439   3.569   0.610   2.695  0.6300  0.1444  0.1433
    5MOL   O232 1440   3.428   0.493   2.550  0.0385  0.2292  0.5066
    5MOL   C233 1441   3.407   0.379   2.631 -0.1939 -0.2507  0.5015
    5MOL   H234 1442   3.689   0.737   2.333 -1.9951  0.2454  0.1930
    5MOL   H235 1443   3.754   0.747   2.496  0.1980  2.2056 -2.7826
    5MOL   H236 1444   3.333   0.683   2.396 -0.2345 -0.2829 -0.9166
    5MOL   H237 1445   3.444   0.756   2.287 -0.5805  1.4870  0.5237
    5MOL   H238 1446   3.448   0.579   2.314  0.4634  1.6233 -2.3909
    5MOL   H239 1447   3.471   0.296   2.603  0.6070 -0.2500  2.2889
    5MOL   H240 1448   3.303   0.346   2.631  0.3664 -2.3812 -3.8738
    5MOL   H241 1449   3.448   0.391   2.731  1.7301 -1.4369 -0.1208
    5MOL   C242 1450   3.525   0.835   2.541  0.7394 -0.2314  0.2742
    5MOL   C243 1451   3.381   0.905   2.581 -0.9948 -0.5769  0.2609
    5MOL   C244 1452   3.419   1.049   2.634 -0.4258  0.0978 -0.3177
    5MOL   C245 1453   3.291   0.928   2.458 -0.0525  0.0598 -0.2772
    5MOL   O246 1454   3.188   0.866   2.440  0.2896 -0.7099 -0.2025
    5MOL   O247 1455   3.337   1.016   2.371 -0.3257  0.2875 -0.3334
    5MOL   C248 1456   3.254   1.049   2.257  0.3656 -0.5852  0.0046
    5MOL   H249 1457   3.567   0.899   2.463 -2.8562 -1.1419 -2.5550
    5MOL   H250 1458   3.596   0.850   2.622 -0.2670  1.5124  0.8661
    5MOL   H251 1459   3.481   1.041   2.723  1.1446 -0.0038 -1.3988
    5MOL   H252 1460   3.496   1.087   2.567 -0.5339  1.5084  0.3388
    5MOL   H253 1461   3.336   1.120   2.643 -2.2232 -1.9787  0.0950
    5MOL   H254 1462   3.269   0.971   2.183  0.4977  0.0233 -0.6144
    5MOL   H255 1463   3.275   1.147   2.214  1.6680  0.2061  2.3488
    5MOL   H256 1464   3.149   1.063   2.284  0.8558 -0.9757  2.2252
    5MOL   C257 1465   3.312   0.826   2.697 -0.0169  0.3607 -0.4264
    5MOL   C258 1466   3.178   0.867   2.776 -0.7202  0.0479 -0.8595
    5MOL   C259 1467   3.204   0.855   2.923  1.0477 -0.3135 -0.7095
    5MOL   C260 1468   3.134   1.017   2.759 -0.5535  0.0019  0.1192
    5MOL   O261 1469   3.174   1.106   2.845 -0.2084  0.1306  0.0609
    5MOL   O262 1470   3.082   1.038   2.649 -0.1125 -0.3161  0.1168
    5MOL   C263 1471   3.059   1.171   2.595  0.0060 -0.5531 -0.5842
    5MOL   H264 1472   3.394   0.806   2.767  0.6664  0.5022 -1.1791
    5MOL   H265 1473   3.299   0.726   2.656 -0.2791  1.1419 -2.2898
    5MOL   H266 1474   3.294   0.913   2.945  0.9022 -0.3030 -0.1376
    5MOL   H267 1475   3.120   0.895   2.979  0.5550  0.2338 -1.8320
    5MOL   H268 1476   3.226   0.752   2.953 -0.7803 -0.8264 -1.0943
    5MOL   H269 1477   2.995   1.221   2.668  1.0003 -0.2404  0.0815
    5MOL   H270 1478   3.019   1.156   2.495  0.7457  1.8289 -1.2928
    5MOL   H271 1479   3.143   1.240   2.596 -0.9389  0.6143  1.4451
    5MOL   C272 1480   3.049   0.782   2.729 -0.0399  0.2999  0.4608
    5MOL   C273 1481   3.017   0.635   2.776 -0.5881  0.6663  0.0918
    5MOL   C274 1482   3.140   0.540   2.741  0.5231  1.1747 -0.1316
    5MOL   C275 1483   2.979   0.621   2.926 -0.1173 -0.0790 -0.5890
    5MOL   O276 1484   2.941   0.703   3.003  0.3996 -0.0024  0.4548
    5MOL   O277 1485   2.991   0.492   2.966  0.2839  0.5164  0.0955
    5MOL   C278 1486   2.955   0.456   3.099  0.6913  0.1448  0.3045
    5MOL   H279 1487   3.055   0.770   2.621  1.3393  0.3384  0.5185
    5MOL   H280 1488   2.957   0.835   2.753 -1.3454 -1.8342  0.2974
    5MOL   H281 1489   3.157   0.551   2.633 -1.1875 -0.4342 -0.6028
    5MOL   H282 1490   3.228   0.553   2.803  0.0144  0.9152  0.6567
    5MOL   H283 1491   3.115   0.435   2.757  1.4541  0.7047 -1.6094
    5MOL   H284 1492   2.855   0.490   3.126  0.6290 -0.7555  1.2319
    5MOL   H285 1493   3.019   0.509   3.169 -0.5884 -0.0396  1.6386
    5MOL   H286 1494   2.970   0.348   3.109 -0.0128  0.3470  4.5542
    5MOL   C287 1495   2.896   0.580   2.697  0.1419  0.6864  0.7335
    5MOL   C288 1496   2.761   0.657   2.694  0.4404 -0.2162 -0.1921
    5MOL   C289 1497   2.681   0.635   2.565  0.6299 -0.0062  0.6232
    5MOL   C290 1498   2.671   0.635   2.812  0.2512 -0.3703  0.0471
    5MOL   O291 1499   2.657   0.725   2.897  0.8214  0.2893  0.2391
    5MOL   O292 1500   2.630   0.518   2.818  0.6915 -0.5576  0.5031
    5MOL   C293 1501   2.566   0.468   2.935 -0.3701 -0.4537  0.2425
    5MOL   H294 1502   2.878   0.479   2.734 -1.6540  0.1022 -1.6044
    5MOL   H295 1503   2.928   0.564   2.594 -1.0851 -0.3015  0.4947
    5MOL   H296 1504   2.742   0.640   2.475 -0.8087 -0.8221 -0.4330
    5MOL   H297 1505   2.641   0.533   2.567  3.5620 -1.2098  0.6098
    5MOL   H298 1506   2.603   0.709   2.548  2.1751  1.4143 -0.4353
    5MOL   H299 1507   2.639   0.454   3.015 -1.2437 -0.9141  0.9655
    5MOL   H300 1508   2.515   0.374   2.917 -0.2209 -0.9150  2.1889
    5MOL   H301 1509   2.493   0.541   2.971 -1.8316 -2.4093  1.3231
    5MOL   H302 1510   2.773   0.766   2.692 -1.1991 -0.0092  0.5043
    6MOL     C1 1511   7.159   7.780   4.912 -0.1580  0.6711  0.0850
    6MOL     C2 1512   7.070   7.863   5.008  0.4382  0.0603 -0.0932
    6MOL     C3 1513   7.095   7.800   5.148  0.2516  0.1594 -0.6943
    6MOL     C4 1514   7.113   0.132   5.014 -0.2133  0.1991 -0.2697
    6MOL     O5 1515   7.198   0.184   4.940 -0.0471 -0.7645  0.1439
    6MOL     O6 1516   7.045   0.201   5.110  0.3738  0.8601 -0.5230
    6MOL     C7 1517   7.079   0.339   5.139 -0.3158  0.3905 -0.1895
    6MOL     H8 1518   7.162   7.821   4.811 -0.0001 -0.9178 -0.5787
    6MOL     H9 1519   7.261   7.777   4.949 -0.0237 -0.9233 -0.3677
    6MOL    H10 1520   7.081   7.692   5.140  1.0875  0.1396 -2.0290
    6MOL    H11 1521   7.192   7.822   5.191  0.5935  0.5597 -1.6538
    6MOL    H12 1522   7.021   7.850   5.210  0.8217  0.8957 -0.6109
    6MOL    H13 1523   7.187   0.354   5.133 -0.5286  2.0790  0.0434
    6MOL    H14 1524   7.059   0.349   5.246 -1.5980  1.0703 -0.4894
    6MOL    H15 1525   7.020   0.409   5.081 -1.3864 -1.3583 -1.2523
    6MOL    H16 1526   7.131   7.675   4.898  1.4486  0.2601 -0.1328
    6MOL    C17 1527   6.912   7.856   4.975 -0.2348  0.1041  0.9757
    6MOL    C18 1528   6.855   0.007   4.831  0.1016  0.5510 -0.4571
    6MOL    C19 1529   6.912   0.129   4.757  0.3254 -0.0333 -0.3703
    6MOL    C20 1530   6.885   7.765   4.749  0.3519 -0.2092 -0.3373
    6MOL    O21 1531   6.963   7.767   4.648 -0.0490 -0.0771 -0.0807
    6MOL    O22 1532   6.822   7.648   4.787 -0.1378 -0.1545 -0.1879
    6MOL    C23 1533   6.852   7.531   4.711  0.3620 -0.0688  0.6409
    6MOL    H24 1534   6.867   0.045   5.048 -0.9091 -3.2008  3.6655
    6MOL    H25 1535   6.885   7.755   5.003 -1.5221 -0.0150 -0.6063
    6MOL    H26 1536   6.865   0.151   4.661 -1.2390  0.5843  0.5350
    6MOL    H27 1537   6.911   0.222   4.815 -1.6409 -1.7620  2.4535
    6MOL    H28 1538   7.017   0.115   4.729  0.6482 -1.4159  1.4982
    6MOL    H29 1539   6.817   7.522   4.608  0.8281  2.7807  0.1925
    6MOL    H30 1540   6.828   7.438   4.764 -4.3127  1.6389  1.7980
    6MOL    H31 1541   6.960   7.524   4.695  0.1131 -1.5042 -0.5753
    6MOL    C32 1542   6.699   0.028   4.848 -0.7050  0.5122 -0.5658
    6MOL    C33 1543   6.594   0.060   4.735  0.9145  0.2495  0.7580
    6MOL    C34 1544   6.598   0.215   4.700 -0.6227  0.7145 -0.1300
    6MOL    C35 1545   6.618   7.855   4.606 -0.0098 -0.1443  0.3674
    6MOL    O36 1546   6.584   7.736   4.594  0.7064 -0.0512 -0.0308
    6MOL    O37 1547   6.691   0.039   4.510 -0.0129  0.2464 -0.4090
    6MOL    C38 1548   6.718   7.837   4.397 -0.4993 -0.6720 -0.0028
    6MOL    H39 1549   6.710   0.114   4.914  0.5477  0.1393 -0.2660
    6MOL    H40 1550   6.671   7.812   4.896  1.2085  1.2356  2.0737
    6MOL    H41 1551   6.519   0.245   4.632 -0.3279  0.0934 -0.7596
    6MOL    H42 1552   6.605   0.279   4.788 -0.6828 -1.1024  1.2280
    6MOL    H43 1553   6.683   0.243   4.639 -0.3273  0.4560  0.1576
    6MOL    H44 1554   6.801   0.009   4.348 -0.0240 -1.6622 -0.2145
    6MOL    H45 1555   6.636   7.813   4.329 -0.9648 -2.5807  1.1832
    6MOL    H46 1556   6.753   7.738   4.424 -0.3020 -1.2175 -2.1683
    6MOL    C47 1557   6.450   0.026   4.790 -0.3730 -0.6941 -0.4108
    6MOL    C48 1558   6.367   0.107   4.896  0.2890  0.0067  0.1472
    6MOL    C49 1559   6.451   0.139   5.026  0.0978  0.5332  0.4829
    6MOL    C50 1560   6.320   0.239   4.827  0.3611  0.0105  0.3668
    6MOL    O51 1561   6.302   0.252   4.709 -0.2899 -0.1921 -0.2947
    6MOL    O52 1562   6.306   0.341   4.906 -0.1940  0.0398 -0.2186
    6MOL    C53 1563   6.261   0.470   4.867 -0.1147  0.3461 -0.4423
    6MOL    H54 1564   6.457   7.799   4.818 -3.1341 -1.0232 -0.7711
    6MOL    H55 1565   6.379   0.016   4.708 -0.0427  2.1201 -1.0834
    6MOL    H56 1566   6.549   0.184   5.011 -0.3087  1.6867  1.2917
    6MOL    H57 1567   6.404   0.206   5.098  0.7331  1.1067  0.3675
    6MOL    H58 1568   6.467   0.048   5.084  1.3037 -0.0759 -0.7685
    6MOL    H59 1569   6.152   0.467   4.855 -0.1751 -0.6862  0.2701
    6MOL    H60 1570   6.303   0.505   4.773 -2.5508  0.7730 -1.4176
    6MOL    H61 1571   6.280   0.543   4.946 -0.9073  1.0146 -0.8607
    6MOL    C62 1572   6.249   0.037   4.974 -0.0622  0.1569 -0.8319
    6MOL    C63 1573   6.113   7.873   4.910  1.1600  0.2592  0.3950
    6MOL    C64 1574   6.032   0.122   4.867  0.2784  0.1832  0.0266
    6MOL    C65 1575   6.146   7.788   4.783  0.6794 -0.8038 -0.0250
    6MOL    O66 1576   6.135   7.834   4.667  0.1964  0.2515  0.3359
    6MOL    O67 1577   6.208   7.673   4.815  0.3397 -0.1464 -0.5054
    6MOL    C68 1578   6.224   7.565   4.720  0.0228  0.1119 -0.5063
    6MOL    H69 1579   6.225   0.095   5.063 -0.6441 -1.1342 -0.1324
    6MOL    H70 1580   6.294   7.828   5.022 -1.5727  0.1772  0.6376
    6MOL    H71 1581   5.927   0.096   4.854  0.6516 -0.4853 -1.7613
    6MOL    H72 1582   6.028   0.194   4.948 -2.4637  0.0535  0.0294
    6MOL    H73 1583   6.074   0.179   4.784  0.9713 -1.2079 -0.5935
    6MOL    H74 1584   6.315   7.579   4.662  1.7870 -0.0251  2.1126
    6MOL    H75 1585   6.139   7.558   4.652  0.5589 -0.3968 -1.1263
    6MOL    H76 1586   6.222   7.476   4.782  1.2964 -0.6811 -1.5810
    6MOL    C77 1587   6.029   7.786   5.018  0.6555  0.3346 -0.6113
    6MOL    C78 1588   5.913   7.686   4.991  0.1866  0.8119 -0.1211
    6MOL    C79 1589   5.834   7.707   4.855 -0.4206  0.2931  0.8527
    6MOL    C80 1590   5.977   7.544   4.984 -0.1181  0.0516  0.0994
    6MOL    O81 1591   5.959   7.468   4.887 -0.4059  0.1354 -0.4084
    6MOL    O82 1592   6.040   7.504   5.096 -0.1669  0.3646  0.1184
    6MOL    C83 1593   6.100   7.375   5.094 -0.1430 -0.5559 -0.3797
    6MOL    H84 1594   6.011   7.857   5.099  1.5761  0.7316 -0.7449
    6MOL    H85 1595   6.104   7.725   5.068  1.7318  1.5871 -0.6467
    6MOL    H86 1596   5.892   7.701   4.763 -1.5733  1.0620  0.0553
    6MOL    H87 1597   5.763   7.629   4.829 -0.3260 -0.5585  3.0190
    6MOL    H88 1598   5.787   7.805   4.843 -2.4083 -0.4422  2.3656
    6MOL    H89 1599   6.202   7.386   5.059 -0.1422  2.0382  0.3350
    6MOL    H90 1600   6.053   7.297   5.034 -1.5402 -1.2437  1.5429
    6MOL    H91 1601   6.110   7.338   5.196  1.5543 -0.7987 -0.6218
    6MOL    C92 1602   5.810   7.697   5.112 -0.5720 -0.4560 -0.4721
    6MOL    C93 1603   5.671   7.627   5.128 -0.5104 -0.2458 -0.3566
    6MOL    C94 1604   5.571   7.711   5.036  0.7206 -0.4303  0.7115
    6MOL    C95 1605   5.669   7.487   5.088  0.3608  0.4617 -0.1887
    6MOL    O96 1606   5.590   7.439   5.012  0.5509 -0.1910 -0.3662
    6MOL    O97 1607   5.772   7.420   5.153 -0.8277  0.2622 -0.4608
    6MOL    C98 1608   5.789   7.281   5.130  0.5706 -0.7321 -0.4670
    6MOL    H99 1609   5.790   7.804   5.115  1.1769 -0.0503 -1.9699
    6MOL   H100 1610   5.870   7.674   5.201 -1.0001  2.0693  0.4973
    6MOL   H101 1611   5.604   7.747   4.939 -1.3961 -1.9083 -0.6046
    6MOL   H102 1612   5.480   7.651   5.026  2.1526 -2.3231 -1.4524
    6MOL   H103 1613   5.537   7.804   5.081  0.2438  1.0522 -2.6129
    6MOL   H104 1614   5.796   7.260   5.023 -1.7559  2.0875 -1.2443
    6MOL   H105 1615   5.702   7.223   5.163  2.4136 -3.2330  0.1764
    6MOL   H106 1616   5.878   7.253   5.187  1.3374  0.0864 -1.2473
    6MOL   C107 1617   5.642   7.646   5.276  0.1377 -0.3585 -0.3969
    6MOL   C108 1618   5.513   7.600   5.352 -0.4638 -0.3404 -0.2810
    6MOL   C109 1619   5.385   7.610   5.266 -0.5184  0.4938 -0.0906
    6MOL   C110 1620   5.522   7.454   5.409  0.4870  0.2238  0.2780
    6MOL   O111 1621   5.604   7.376   5.373 -0.1966  0.2407  0.4774
    6MOL   O112 1622   5.434   7.430   5.505  0.2223 -1.0870  0.0316
    6MOL   C113 1623   5.458   7.311   5.581  0.0966  0.2892 -0.1012
    6MOL   H114 1624   5.641   7.755   5.284  3.4319 -0.3255 -0.1006
    6MOL   H115 1625   5.724   7.624   5.343  1.0166  3.9226  0.0587
    6MOL   H116 1626   5.386   7.549   5.176 -2.3163  1.0794 -0.5458
    6MOL   H117 1627   5.294   7.582   5.320 -0.1886 -1.2807 -0.4255
    6MOL   H118 1628   5.361   7.709   5.225  0.9677 -0.1682 -2.6038
    6MOL   H119 1629   5.381   7.300   5.657 -0.1962  0.3150 -0.3957
    6MOL   H120 1630   5.552   7.336   5.632  0.2997  2.2745 -1.3731
    6MOL   H121 1631   5.452   7.218   5.524  0.9948 -0.0561  0.3577
    6MOL   C122 1632   5.481   7.714   5.458 -0.0515  0.0900  0.1583
    6MOL   C123 1633   5.580   7.760   5.570  0.0215  0.5913  0.5595
    6MOL   C124 1634   5.629   7.634   5.649  0.2621 -0.4183 -0.3243
    6MOL   C125 1635   5.700   7.843   5.512  0.3345  0.3400 -0.3374
    6MOL   O126 1636   5.811   7.800   5.523  0.1329  0.2484  0.1461
    6MOL   O127 1637   5.676   0.063   5.434 -0.1513 -0.3575  0.5605
    6MOL   C128 1638   5.787   0.148   5.393 -0.4213  0.3904  0.6001
    6MOL   H129 1639   5.382   7.687   5.492  0.3286 -1.0891  0.3400
    6MOL   H130 1640   5.456   7.804   5.402 -0.7874 -0.0143  0.3171
    6MOL   H131 1641   5.677   7.565   5.580 -0.3147 -1.5558  0.4046
    6MOL   H132 1642   5.706   7.663   5.722  1.5122 -1.0514 -1.3691
    6MOL   H133 1643   5.559   7.570   5.702  0.6093  0.3384  1.0745
    6MOL   H134 1644   5.827   0.103   5.303 -1.3935 -0.7692  0.7386
    6MOL   H135 1645   5.861   0.151   5.473  1.2466  0.7647 -0.9149
    6MOL   H136 1646   5.745   0.246   5.368 -0.1047  0.0647 -1.2643
    6MOL   C137 1647   5.497   7.835   5.676  0.2527 -0.8964  0.0163
    6MOL   C138 1648   5.434   0.105   5.679 -0.8106 -0.4263 -0.0753
    6MOL   C139 1649   5.350   0.129   5.553  0.6891  0.0106  0.1788
    6MOL   C140 1650   5.336   0.101   5.804 -0.3738 -0.4327  0.2294
    6MOL   O141 1651   5.215   0.100   5.778 -0.0056  0.3950  0.3682
    6MOL   O142 1652   5.394   0.100   5.921  0.0701  0.3915 -0.1693
    6MOL   C143 1653   5.308   0.097   6.027 -0.3847  0.5834  0.8185
    6MOL   H144 1654   5.557   7.826   5.767  0.0844  1.2577  0.3739
    6MOL   H145 1655   5.410   7.773   5.699 -0.4546 -0.2969 -0.9889
    6MOL   H146 1656   5.287   0.041   5.543 -1.3714  1.2258  1.9006
    6MOL   H147 1657   5.283   0.216   5.548  1.7970  0.8498 -0.1967
    6MOL   H148 1658   5.412   0.141   5.464  1.9279  0.5440  1.1034
    6MOL   H149 1659   5.241   0.180   6.008  0.5858  0.9201 -1.2381
    6MOL   H150 1660   5.370   0.125   6.112  0.0055  0.1166  0.6879
    6MOL   H151 1661   5.261   0.002   6.053 -0.1128  0.7162  1.8227
    6MOL   C152 1662   5.543   0.221   5.693  0.2316  0.2584  0.4975
    6MOL   C153 1663   5.510   0.373   5.727 -0.4378 -0.1573 -0.6011
    6MOL   C154 1664   5.465   0.397   5.881 -0.0596  0.2748  0.2214
    6MOL   C155 1665   5.650   0.429   5.708 -0.6856  0.2378 -0.4415
    6MOL   O156 1666   5.702   0.488   5.804 -0.0917  0.6711 -0.0633
    6MOL   O157 1667   5.698   0.433   5.583  0.4084 -0.2679 -1.0997
    6MOL   C158 1668   5.823   0.506   5.571  0.6297  0.1887 -0.0497
    6MOL   H159 1669   5.601   0.216   5.601  0.8857 -0.2146  0.9320
    6MOL   H160 1670   5.620   0.179   5.758 -0.3986 -0.6573  0.6616
    6MOL   H161 1671   5.481   0.496   5.923  1.0988 -0.2909  1.1615
    6MOL   H162 1672   5.367   0.357   5.906 -0.1787 -0.4418 -1.3155
    6MOL   H163 1673   5.525   0.339   5.952  0.1653 -1.8488 -1.6461
    6MOL   H164 1674   5.854   0.501   5.467 -0.5901  0.4717 -0.4348
    6MOL   H165 1675   5.906   0.452   5.618  0.8837 -0.2179 -0.9621
    6MOL   H166 1676   5.827   0.612   5.593  0.4841  0.8251 -2.8909
    6MOL   C167 1677   5.396   0.434   5.641 -0.8154  0.6106 -0.0256
    6MOL   C168 1678   5.369   0.587   5.619 -0.3263 -1.0227  0.9181
    6MOL   C169 1679   5.444   0.634   5.495 -0.5147 -0.2763 -0.3036
    6MOL   C170 1680   5.223   0.591   5.582  0.1868 -0.0525 -0.9605
    6MOL   O171 1681   5.188   0.628   5.472 -0.0065 -0.7153  0.8331
    6MOL   O172 1682   5.138   0.560   5.689  0.0227  0.2063  0.1600
    6MOL   C173 1683   5.004   0.588   5.670  0.1131 -0.1580 -0.2505
    6MOL   H174 1684   5.312   0.379   5.682  0.8035 -0.0554  2.5202
    6MOL   H175 1685   5.426   0.404   5.540  1.0973 -2.0321  1.2841
    6MOL   H176 1686   5.551   0.647   5.515 -1.0738  1.7313  1.6689
    6MOL   H177 1687   5.443   0.565   5.412 -0.1072 -0.2375 -0.3462
    6MOL   H178 1688   5.402   0.727   5.458 -0.1996  0.4946  1.1961
    6MOL   H179 1689   4.959   0.497   5.630  0.7783 -0.8407  0.5548
    6MOL   H180 1690   4.982   0.668   5.599 -2.1065 -1.7993 -1.4804
    6MOL   H181 1691   4.961   0.616   5.766  0.8363 -0.1804  0.0876
    6MOL   C182 1692   5.401   0.679   5.752  0.2439  0.0289 -0.6034
    6MOL   C183 1693   5.386   0.837   5.770  0.0499  0.7800 -0.5446
    6MOL   C184 1694   5.374   0.868   5.923 -0.3464  0.6583 -0.5966
    6MOL   C185 1695   5.515   0.896   5.712 -0.1127 -0.0459 -0.5187
    6MOL   O186 1696   5.620   0.894   5.776 -0.4879 -0.5370 -0.4444
    6MOL   O187 1697   5.500   0.925   5.582 -0.2474  0.0703  0.3011
    6MOL   C188 1698   5.606   0.994   5.520 -0.1694 -0.0770  0.1051
    6MOL   H189 1699   5.504   0.656   5.777  0.1092 -0.0260 -0.0863
    6MOL   H190 1700   5.337   0.633   5.827  0.1748  1.5334  0.2838
    6MOL   H191 1701   5.471   0.884   5.969  0.1393 -1.2853 -0.8844
    6MOL   H192 1702   5.307   0.951   5.946  2.5437  3.3244 -1.4966
    6MOL   H193 1703   5.328   0.787   5.980 -0.4100  1.3367  0.3158
    6MOL   H194 1704   5.597   0.959   5.417 -0.8444  0.8861 -0.1675
    6MOL   H195 1705   5.708   0.972   5.550 -0.3011 -1.3052 -0.3284
    6MOL   H196 1706   5.603   1.103   5.517  0.3512 -0.0353  1.0433
    6MOL   C197 1707   5.244   0.885   5.701  0.4605  1.3827 -0.4284
    6MOL   C198 1708   5.188   1.031   5.694  0.0357 -0.1471 -0.9793
    6MOL   C199 1709   5.285   1.137   5.758 -0.1864 -0.0108 -0.4853
    6MOL   C200 1710   5.172   1.057   5.541 -0.6034 -0.0691 -0.3704
    6MOL   O201 1711   5.243   1.152   5.495 -0.1279  0.4718  0.8362
    6MOL   O202 1712   5.083   0.979   5.479  0.0259 -0.1678 -0.4868
    6MOL   C203 1713   5.073   0.979   5.334  0.5971  0.2361 -0.8097
    6MOL   H204 1714   5.171   0.816   5.743  0.8032  1.2363 -0.0754
    6MOL   H205 1715   5.266   0.844   5.603 -0.6915 -0.8852  0.2316
    6MOL   H206 1716   5.293   1.121   5.865  1.2410 -3.3946 -1.0266
    6MOL   H207 1717   5.383   1.123   5.713  0.1108  0.8494 -0.1105
    6MOL   H208 1718   5.260   1.239   5.727 -0.1041  0.3954  0.7515
    6MOL   H209 1719   5.165   0.954   5.280  1.4603  2.3142 -0.3752
    6MOL   H210 1720   5.066   1.080   5.295  1.8585 -0.1124 -1.9947
    6MOL   H211 1721   4.989   0.919   5.299  0.0919  0.2830  0.3141
    6MOL   C212 1722   5.041   1.021   5.757 -0.2920  0.4303  0.7121
    6MOL   C213 1723   4.942   1.143   5.774  0.6472 -0.5454  0.5517
    6MOL   C214 1724   4.812   1.078   5.824  0.0018 -0.6793  0.1485
    6MOL   C215 1725   4.999   1.242   5.876 -0.1089  0.2181 -0.2949
    6MOL   O216 1726   5.050   1.351   5.854 -0.3979  0.5970  0.2749
    6MOL   O217 1727   4.989   1.192   6.002  0.1490  0.1526 -0.1202
    6MOL   C218 1728   5.045   1.264   6.114  0.0889  0.3364 -0.1053
    6MOL   H219 1729   5.056   0.978   5.856 -1.2984  0.6839  0.9774
    6MOL   H220 1730   4.981   0.939   5.716  1.0457 -0.3635  0.3149
    6MOL   H221 1731   4.741   1.158   5.844  1.6463  1.5970 -2.8611
    6MOL   H222 1732   4.774   1.016   5.743  3.1070  0.4225 -2.2565
    6MOL   H223 1733   4.835   1.014   5.910 -1.1566 -0.7104  0.4492
    6MOL   H224 1734   5.013   1.198   6.195 -4.0497  0.3711 -1.5512
    6MOL   H225 1735   4.984   1.354   6.122 -1.9334 -0.8538 -1.5756
    6MOL   H226 1736   5.151   1.285   6.107 -0.0529  0.3722 -2.2381
    6MOL   C227 1737   4.913   1.218   5.634  0.2554  0.2689  0.5915
    6MOL   C228 1738   4.782   1.313   5.609 -0.1856 -0.7065 -0.6102
    6MOL   C229 1739   4.814   1.374   5.469 -0.2313  0.2699 -0.5486
    6MOL   C230 1740   4.660   1.219   5.591  0.4083  0.3497  0.4217
    6MOL   O231 1741   4.550   1.231   5.658  0.1070  0.1627 -0.4747
    6MOL   O232 1742   4.678   1.121   5.498 -0.0838 -0.0767  0.0005
    6MOL   C233 1743   4.573   1.022   5.479 -0.3415  0.3443  0.4240
    6MOL   H234 1744   4.912   1.149   5.549  2.0692 -0.0224  0.7988
    6MOL   H235 1745   4.997   1.282   5.608  0.4547 -0.6617 -1.0859
    6MOL   H236 1746   4.856   1.289   5.414  0.2636 -0.8813  1.5601
    6MOL   H237 1747   4.730   1.422   5.420 -0.2751  0.8200  0.0597
    6MOL   H238 1748   4.895   1.447   5.475  0.2722 -0.2172 -1.2327
    6MOL   H239 1749   4.608   0.936   5.538  2.3304  0.2734 -1.1743
    6MOL   H240 1750   4.569   1.001   5.373 -0.1040 -0.7347  0.6158
    6MOL   H241 1751   4.475   1.056   5.511  0.1636  1.3712  0.9060
    6MOL   C242 1752   4.766   1.426   5.716  0.1461 -0.0001  0.0640
    6MOL   C243 1753   4.635   1.518   5.745  0.7501 -0.1045 -0.0211
    6MOL   C244 1754   4.572   1.552   5.614 -0.2054 -0.1975 -0.0147
    6MOL   C245 1755   4.536   1.450   5.843  0.3884 -0.9153  0.4149
    6MOL   O246 1756   4.573   1.372   5.928 -0.5011 -0.3691 -0.0892
    6MOL   O247 1757   4.408   1.495   5.818  0.1516  0.2194 -0.0910
    6MOL   C248 1758   4.302   1.447   5.890 -0.2631 -0.2749  0.5115
    6MOL   H249 1759   4.849   1.493   5.693 -0.4784  0.7001 -0.1862
    6MOL   H250 1760   4.789   1.386   5.815  0.1094 -2.4720 -0.8968
    6MOL   H251 1761   4.636   1.589   5.534  0.2843 -0.2497  0.3509
    6MOL   H252 1762   4.515   1.467   5.576 -1.5587  0.5092  0.3673
    6MOL   H253 1763   4.489   1.621   5.631  1.6485  1.8780  0.8090
    6MOL   H254 1764   4.286   1.498   5.985 -1.6079  2.0810 -0.9106
    6MOL   H255 1765   4.324   1.342   5.905  0.6115 -0.2421 -0.4984
    6MOL   H256 1766   4.208   1.460   5.836 -0.4082  1.8144  1.2003
    6MOL   C257 1767   4.665   1.671   5.801 -0.1961 -0.3314 -0.6045
    6MOL   C258 1768   4.725   1.710   5.943 -0.1639  0.1183  0.2215
    6MOL   C259 1769   4.648   1.633   6.050  0.2330 -0.0507  0.3420
    6MOL   C260 1770   4.873   1.670   5.955 -0.0030  1.1052  0.1583
    6MOL   O261 1771   4.925   1.634   6.061 -0.0627 -0.8243 -0.0324
    6MOL   O262 1772   4.940   1.695   5.839 -0.3990  0.6683  0.5356
    6MOL   C263 1773   5.085   1.683   5.826  0.3851  0.0971 -0.7831
    6MOL   H264 1774   4.565   1.715   5.796  0.1967  0.6906  0.3534
    6MOL   H265 1775   4.715   1.737   5.731  0.9979 -0.5432  0.0287
    6MOL   H266 1776   4.643   1.683   6.147  3.7509  0.2487  0.4240
    6MOL   H267 1777   4.542   1.631   6.027 -0.0732  1.5759  1.5198
    6MOL   H268 1778   4.681   1.531   6.069  0.5294 -0.2854 -1.3510
    6MOL   H269 1779   5.125   1.735   5.739  0.0729  0.7507 -0.5390
    6MOL   H270 1780   5.122   1.581   5.836  0.7008  0.1081 -1.8469
    6MOL   H271 1781   5.128   1.729   5.915  1.6880 -0.4773 -1.1012
    6MOL   C272 1782   4.698   1.866   5.950  0.2519  0.6653  0.0150
    6MOL   C273 1783   4.745   1.967   6.060 -0.2657 -0.7283 -0.1833
    6MOL   C274 1784   4.894   2.011   6.033 -0.2316 -0.0085  0.3105
    6MOL   C275 1785   4.664   2.097   6.041 -0.1821 -0.9562 -0.4407
    6MOL   O276 1786   4.710   2.198   5.992 -0.3694 -0.1822 -0.3739
    6MOL   O277 1787   4.535   2.085   6.090 -0.3695 -0.2866 -0.3421
    6MOL   C278 1788   4.446   2.193   6.085 -0.4156  0.4336 -0.2339
    6MOL   H279 1789   4.590   1.873   5.945  0.3245  1.2585 -0.8188
    6MOL   H280 1790   4.733   1.908   5.856  0.3987  1.0606  0.2429
    6MOL   H281 1791   4.963   1.934   6.066  0.5492  0.3172 -0.5511
    6MOL   H282 1792   4.922   2.032   5.930  0.5522  1.9101  0.8962
    6MOL   H283 1793   4.928   2.093   6.097 -2.1582  1.6426 -0.6946
    6MOL   H284 1794   4.446   2.254   6.176 -0.6493  0.3592 -0.1838
    6MOL   H285 1795   4.347   2.149   6.091  0.2254 -0.9490  0.3913
    6MOL   H286 1796   4.445   2.253   5.994 -0.0407  1.5597  0.4887
    6MOL   C287 1797   4.732   1.918   6.209 -0.5011  0.4095  0.5970
    6MOL   C288 1798   4.753   2.009   6.333 -0.8350  0.1616  0.0755
    6MOL   C289 1799   4.709   1.956   6.462 -0.5171  0.0784 -1.0018
    6MOL   C290 1800   4.892   2.059   6.365  0.0376 -0.0622 -0.0173
    6MOL   O291 1801   4.987   1.980   6.379  0.0150  0.0989 -1.0847
    6MOL   O292 1802   4.887   2.187   6.389 -0.1554 -0.1157 -0.0584
    6MOL   C293 1803   4.987   2.269   6.439  0.5625 -0.0445  0.4506
    6MOL   H294 1804   4.811   1.844   6.212  0.3224  1.3359  2.0537
    6MOL   H295 1805   4.632   1.875   6.220 -0.6711  0.9315  1.1192
    6MOL   H296 1806   4.726   2.031   6.540 -1.1840  1.0817 -1.8178
    6MOL   H297 1807   4.604   1.930   6.451 -0.6159  0.1814 -0.3232
    6MOL   H298 1808   4.771   1.872   6.495 -0.7372  1.3387  2.9243
    6MOL   H299 1809   5.068   2.214   6.486 -0.1250  0.1636  1.8778
    6MOL   H300 1810   4.952   2.342   6.512  0.3671 -0.8156  1.1213
    6MOL   H301 1811   5.031   2.330   6.359 -0.2259  0.5320  0.4510
    6MOL   H302 1812   4.679   2.089   6.321 -1.8114 -0.6227  0.9032
    7MOL     C1 1813   7.558   1.292   6.793 -0.1550 -0.1168  0.3442
    7MOL     C2 1814   7.429   1.211   6.754 -0.7866 -0.4870  0.4807
    7MOL     C3 1815   7.395   1.246   6.603 -0.0887 -0.3262  0.6461
    7MOL     C4 1816   7.458   1.055   6.767  0.6641  0.4319 -0.1177
    7MOL     O5 1817   7.461   0.975   6.673 -0.4813  0.3499 -0.1931
    7MOL     O6 1818   7.479   1.030   6.893 -0.0333  0.1794  0.1438
    7MOL     C7 1819   7.541   0.913   6.928  1.0601 -0.0573 -0.0885
    7MOL     H8 1820   7.553   1.398   6.766 -0.2734 -0.0389  0.6747
    7MOL     H9 1821   7.576   1.289   6.900  0.2069 -0.9065  0.2641
    7MOL    H10 1822   7.349   1.345   6.599 -3.1348 -1.6487  1.1227
    7MOL    H11 1823   7.488   1.257   6.547 -0.9266 -2.9906 -1.3337
    7MOL    H12 1824   7.324   1.173   6.565 -1.4155  1.6669 -0.8274
    7MOL    H13 1825   7.574   0.927   7.031  0.0484  0.9569  0.1062
    7MOL    H14 1826   7.628   0.887   6.867 -0.1354 -0.8917 -1.4747
    7MOL    H15 1827   7.473   0.828   6.927  2.2594 -1.0456 -1.1318
    7MOL    H16 1828   7.652   1.250   6.757  0.4523  1.9148 -0.5355
    7MOL    C17 1829   7.314   1.268   6.843 -0.7164 -0.6131  0.1085
    7MOL    C18 1830   7.163   1.223   6.839  0.0035 -0.4949 -0.0556
    7MOL    C19 1831   7.099   1.310   6.729  0.0549 -0.4194  0.3068
    7MOL    C20 1832   7.144   1.072   6.807 -0.4215 -0.3420  0.0434
    7MOL    O21 1833   7.102   1.042   6.692 -0.1341  0.1082  0.3067
    7MOL    O22 1834   7.176   0.981   6.910  0.0286  0.5204  0.4212
    7MOL    C23 1835   7.159   0.843   6.890 -0.2299  0.3591 -0.5623
    7MOL    H24 1836   7.333   1.375   6.838 -2.7217 -0.3245 -2.0886
    7MOL    H25 1837   7.351   1.255   6.945  2.2867  0.6229 -0.7437
    7MOL    H26 1838   7.139   1.412   6.736  1.2089 -0.8077 -0.3859
    7MOL    H27 1839   7.116   1.284   6.625  0.1555  3.4840 -0.7306
    7MOL    H28 1840   6.990   1.311   6.728  0.0504  1.4878 -1.2852
    7MOL    H29 1841   7.141   0.806   6.789  0.6621 -1.2008 -0.1805
    7MOL    H30 1842   7.075   0.807   6.949  0.0075 -0.4365 -0.6904
    7MOL    H31 1843   7.249   0.789   6.919 -1.3662 -0.4829  1.4570
    7MOL    C32 1844   7.115   1.265   6.983 -0.4190 -0.1272 -0.6745
    7MOL    C33 1845   6.969   1.259   7.042 -0.7762  0.1704  0.5924
    7MOL    C34 1846   6.886   1.390   7.004  0.1319 -0.3623 -0.1032
    7MOL    C35 1847   6.897   1.140   6.987  0.3641 -0.0096  0.3768
    7MOL    O36 1848   6.903   1.028   7.032 -0.4370 -0.1267 -0.4453
    7MOL    O37 1849   6.835   1.168   6.877 -0.3563  0.2170 -0.2358
    7MOL    C38 1850   6.753   1.070   6.824 -0.3286  0.0527 -0.6797
    7MOL    H39 1851   7.153   1.361   7.021 -0.1309 -0.6426  0.3806
    7MOL    H40 1852   7.171   1.197   7.048 -1.1403  1.6012  1.8655
    7MOL    H41 1853   6.909   1.471   7.073 -0.6800  0.6278 -0.9901
    7MOL    H42 1854   6.917   1.429   6.907  4.6730  0.2447  1.4553
    7MOL    H43 1855   6.778   1.374   7.002  0.6858 -5.4829  2.4705
    7MOL    H44 1856   6.686   1.028   6.898  0.5363 -0.1385 -0.0022
    7MOL    H45 1857   6.809   0.985   6.785 -1.8893 -1.4629  0.3245
    7MOL    H46 1858   6.687   1.099   6.742  1.1919  1.7518 -1.3499
    7MOL    C47 1859   6.994   1.243   7.200 -0.2857  0.2044 -0.4185
    7MOL    C48 1860   6.885   1.232   7.307 -0.2741 -0.1506  0.3453
    7MOL    C49 1861   6.767   1.327   7.278  0.3031 -0.6915 -1.0434
    7MOL    C50 1862   6.821   1.094   7.315 -1.0410 -0.3769  0.4470
    7MOL    O51 1863   6.697   1.079   7.298 -0.2209 -0.0222 -0.6821
    7MOL    O52 1864   6.914   0.994   7.336  0.0960 -0.0917  0.6371
    7MOL    C53 1865   6.858   0.864   7.341 -1.1352 -0.1457 -0.3240
    7MOL    H54 1866   7.072   1.314   7.230  2.3709 -3.4555  1.7998
    7MOL    H55 1867   7.051   1.152   7.213  2.8517  1.9583 -1.3309
    7MOL    H56 1868   6.716   1.299   7.186 -2.8460  2.1026 -0.2301
    7MOL    H57 1869   6.700   1.344   7.363  2.0203 -0.6651  0.3355
    7MOL    H58 1870   6.811   1.426   7.269 -1.4023  0.4545  2.3982
    7MOL    H59 1871   6.924   0.778   7.332 -1.1135 -0.3284  1.4949
    7MOL    H60 1872   6.785   0.861   7.260  1.6693 -0.3010 -2.9894
    7MOL    H61 1873   6.793   0.845   7.426  0.6213 -1.3347  0.8033
    7MOL    C62 1874   6.947   1.278   7.445 -0.7243 -0.2784 -0.4354
    7MOL    C63 1875   6.907   1.235   7.582  0.6581  0.2157 -0.1293
    7MOL    C64 1876   6.750   1.233   7.598  0.5577 -0.5334 -0.0322
    7MOL    C65 1877   6.960   1.092   7.613  0.5995  0.7767 -0.0998
    7MOL    O66 1878   6.891   1.018   7.682  0.6018  0.0720 -0.1238
    7MOL    O67 1879   7.088   1.070   7.563  0.2016  0.5617 -0.0813
    7MOL    C68 1880   7.142   0.936   7.579 -0.6220  0.1439  0.0518
    7MOL    H69 1881   6.933   1.385   7.452  0.3938 -0.2230  1.4472
    7MOL    H70 1882   7.056   1.273   7.437 -0.4390  1.0899  2.0777
    7MOL    H71 1883   6.701   1.330   7.587  0.6696 -0.7584 -2.7103
    7MOL    H72 1884   6.705   1.168   7.524 -1.2820  1.3172 -0.5930
    7MOL    H73 1885   6.713   1.176   7.683 -0.8982 -0.2704 -0.4807
    7MOL    H74 1886   7.118   0.862   7.503 -1.7149 -0.4408  0.9643
    7MOL    H75 1887   7.120   0.898   7.678  2.1092 -1.8737 -0.0362
    7MOL    H76 1888   7.251   0.931   7.574 -0.7980 -3.6838 -2.4352
    7MOL    C77 1889   6.968   1.344   7.683  0.3093 -0.0404  0.0509
    7MOL    C78 1890   6.976   1.332   7.842  0.2851  0.7905  0.9083
    7MOL    C79 1891   6.849   1.260   0.022 -0.6412  0.1397  0.1596
    7MOL    C80 1892   7.099   1.240   7.870 -0.5076 -0.2009 -0.0689
    7MOL    O81 1893   7.181   1.200   7.788  0.5742 -0.0549 -0.2603
    7MOL    O82 1894   7.096   1.203   0.123  1.0487 -0.6683  0.3572
    7MOL    C83 1895   7.212   1.165   0.191  0.2261 -0.2700  0.0078
    7MOL    H84 1896   6.900   1.429   7.681 -1.6621 -1.5338  1.4717
    7MOL    H85 1897   7.064   1.370   7.638 -0.2663  1.6554 -0.2330
    7MOL    H86 1898   6.767   1.329   0.004 -2.3705 -1.6682  0.9169
    7MOL    H87 1899   6.829   1.164   7.854 -1.6375  0.2793  0.3022
    7MOL    H88 1900   6.868   1.246   0.129  1.1053  0.3419 -0.1102
    7MOL    H89 1901   7.302   1.208   0.147 -1.2905  1.2939 -1.6189
    7MOL    H90 1902   7.228   1.057   0.183  0.3826 -0.1291 -1.8550
    7MOL    H91 1903   7.205   1.190   0.297 -1.2891  1.2440 -0.4488
    7MOL    C92 1904   6.996   1.470   0.035 -0.2395 -0.3176 -0.1476
    7MOL    C93 1905   7.091   1.588   7.868 -0.1853  0.2782 -0.0589
    7MOL    C94 1906   7.238   1.531   0.004 -0.0927 -0.2305 -0.2406
    7MOL    C95 1907   7.060   1.627   7.722 -0.1985  0.1886  0.4663
    7MOL    O96 1908   7.143   1.601   7.633  0.7011  0.2442 -0.5077
    7MOL    O97 1909   6.938   1.683   7.699 -1.2405 -0.9614  0.4218
    7MOL    C98 1910   6.902   1.720   7.566  0.4572  0.3876  0.5030
    7MOL    H99 1911   7.026   1.449   0.138  2.0232 -0.2393 -0.7545
    7MOL   H100 1912   6.894   1.502   0.053 -0.9899 -2.3450 -0.7730
    7MOL   H101 1913   7.327   1.594   7.870 -0.1567  0.1593  1.1986
    7MOL   H102 1914   7.257   1.472   0.094  0.5783 -1.0829 -0.9263
    7MOL   H103 1915   7.261   1.454   7.808  0.2645 -0.6559  0.3117
    7MOL   H104 1916   6.975   1.794   7.533 -0.5967  0.4030 -1.8581
    7MOL   H105 1917   6.805   1.769   7.570  0.0631 -0.4041  0.6810
    7MOL   H106 1918   6.899   1.644   7.488  4.1208  0.0330  0.5810
    7MOL   C107 1919   7.066   1.712   0.086  0.0157 -0.9271 -0.1362
    7MOL   C108 1920   7.126   1.860   0.071 -0.3420 -0.5805  0.8221
    7MOL   C109 1921   7.269   1.839   0.021  0.2950 -0.1559  1.4121
    7MOL   C110 1922   7.057   1.941   7.836 -0.9621  0.3338  0.5425
    7MOL   O111 1923   7.116   1.981   7.731 -0.6947  0.3467 -0.2061
    7MOL   O112 1924   6.927   1.951   7.850 -0.0715 -0.2309 -0.0993
    7MOL   C113 1925   6.847   2.037   7.770 -0.6919 -0.2799  0.1160
    7MOL   H114 1926   7.103   1.678   0.183  0.4479 -0.4203 -0.1192
    7MOL   H115 1927   6.959   1.718   0.104 -0.4265  0.2270 -3.0528
    7MOL   H116 1928   7.278   1.786   7.804  1.0402  0.5329  1.0828
    7MOL   H117 1929   7.319   1.935   0.006 -2.1731  0.7140 -1.7634
    7MOL   H118 1930   7.327   1.785   0.095  0.1031  0.3178  1.9107
    7MOL   H119 1931   6.887   2.136   7.748  0.1451 -1.3098 -3.2488
    7MOL   H120 1932   6.742   2.038   7.800 -1.0102 -0.3204 -0.9663
    7MOL   H121 1933   6.842   1.994   7.670  1.4000 -1.1644  0.3589
    7MOL   C122 1934   7.104   1.934   0.208 -0.2911 -0.4105  0.4835
    7MOL   C123 1935   7.176   2.066   0.260  0.1079 -0.2165  0.2411
    7MOL   C124 1936   7.327   2.040   0.287  0.0179  0.6046  0.0414
    7MOL   C125 1937   7.169   2.181   0.156  0.1270  0.5524  0.1238
    7MOL   O126 1938   7.262   2.211   0.081  0.0522  0.8078 -0.0988
    7MOL   O127 1939   7.042   2.230   0.137 -0.1153 -0.0680  0.0036
    7MOL   C128 1940   7.025   2.334   0.037  0.3365  0.5798  0.0385
    7MOL   H129 1941   7.126   1.855   0.279 -3.0476 -3.1753 -1.6130
    7MOL   H130 1942   6.997   1.949   0.223 -0.3630 -0.4826  0.0408
    7MOL   H131 1943   7.336   1.964   0.365 -1.1135  0.3642 -0.0570
    7MOL   H132 1944   7.394   2.017   0.203 -0.2306  1.6099 -0.4389
    7MOL   H133 1945   7.372   2.130   0.328 -1.0809  1.8204 -1.3752
    7MOL   H134 1946   7.098   2.411   0.012  0.5888 -0.3670 -2.2070
    7MOL   H135 1947   6.928   2.376   0.067  1.0330  1.7527  0.6900
    7MOL   H136 1948   7.016   2.277   7.823 -2.9208  1.9001 -0.5609
    7MOL   C137 1949   7.090   2.102   0.393  0.4413  0.1110  0.0775
    7MOL   C138 1950   7.144   2.169   0.530  0.6988 -0.4469  0.0098
    7MOL   C139 1951   7.235   2.067   0.604  0.2509  0.9069  0.5658
    7MOL   C140 1952   7.229   2.291   0.496 -0.6885 -0.2540  0.3058
    7MOL   O141 1953   7.339   2.309   0.553 -0.0274 -0.4978  0.0117
    7MOL   O142 1954   7.166   2.380   0.426 -0.6536  0.3069  0.2344
    7MOL   C143 1955   7.229   2.488   0.368  0.5586 -0.6943  0.3003
    7MOL   H144 1956   7.065   2.005   0.437 -0.5105  0.3390  0.0381
    7MOL   H145 1957   6.993   2.144   0.369 -0.1099 -0.6765  0.8634
    7MOL   H146 1958   7.260   2.113   0.699 -1.9907  0.3266  1.4653
    7MOL   H147 1959   7.184   1.973   0.624 -1.0702  0.9980 -2.0750
    7MOL   H148 1960   7.326   2.044   0.550 -0.8458 -0.2577 -0.8288
    7MOL   H149 1961   7.325   2.465   0.321 -0.5149 -1.6205 -1.5104
    7MOL   H150 1962   7.257   2.565   0.439 -0.9400 -0.5953  0.8152
    7MOL   H151 1963   7.164   2.535   0.293  1.4040  1.1992  0.7329
    7MOL   C152 1964   7.007   2.184   0.613  0.0074  0.3254 -0.2118
    7MOL   C153 1965   6.984   2.300   0.723 -0.0743 -0.1479  0.1784
    7MOL   C154 1966   7.097   2.308   0.826  0.6400  0.7114  0.0640
    7MOL   C155 1967   6.976   2.442   0.652  0.1817 -0.2259  0.3748
    7MOL   O156 1968   7.037   2.535   0.692  1.1609 -0.3282  0.0486
    7MOL   O157 1969   6.895   2.441   0.542 -0.4166  0.4004  0.0079
    7MOL   C158 1970   6.876   2.560   0.469 -0.3728 -0.3491 -0.0452
    7MOL   H159 1971   6.986   2.086   0.658  1.6987  0.1015  0.1245
    7MOL   H160 1972   6.919   2.198   0.550  0.5488 -0.8431 -1.2436
    7MOL   H161 1973   7.136   2.208   0.844  2.6074  1.5408  0.5470
    7MOL   H162 1974   7.178   2.356   0.771  1.1227  0.9242  0.9562
    7MOL   H163 1975   7.077   2.366   0.916  1.9733  2.7487 -0.9309
    7MOL   H164 1976   6.845   2.535   0.368 -1.1935 -0.6080  0.2648
    7MOL   H165 1977   6.958   2.632   0.468 -0.6080 -0.0639 -2.4856
    7MOL   H166 1978   6.792   2.606   0.521  1.7281 -0.1226  3.2765
    7MOL   C167 1979   6.845   2.280   0.803 -0.0957 -0.1114 -0.7326
    7MOL   C168 1980   6.819   2.174   0.917 -0.1683  0.6031  0.0450
    7MOL   C169 1981   6.869   2.035   0.870 -0.9319 -0.1879 -0.2931
    7MOL   C170 1982   6.895   2.214   1.047  0.0351  0.0763  0.0856
    7MOL   O171 1983   6.955   2.139   1.121  0.2045 -0.9896  0.5252
    7MOL   O172 1984   6.883   2.344   1.079 -0.1289  0.3654 -0.6254
    7MOL   C173 1985   6.928   2.397   1.203  0.2780 -0.2244  0.3608
    7MOL   H174 1986   6.769   2.280   0.725  0.4109 -2.1344 -1.2771
    7MOL   H175 1987   6.826   2.378   0.846 -0.4431 -0.5587  0.1410
    7MOL   H176 1988   6.825   1.958   0.934 -1.1196 -1.1236 -1.5378
    7MOL   H177 1989   6.832   2.005   0.773 -1.6586 -1.8315  0.4785
    7MOL   H178 1990   6.977   2.027   0.884 -0.7290  2.7392  0.1440
    7MOL   H179 1991   7.020   2.343   1.223 -0.3276 -2.3622 -2.3004
    7MOL   H180 1992   6.862   2.374   1.287  2.1004 -1.5488  1.4529
    7MOL   H181 1993   6.942   2.505   1.204 -0.7270 -0.0293 -2.7543
    7MOL   C182 1994   6.665   2.166   0.943 -0.3449  0.3806  0.5500
    7MOL   C183 1995   6.557   2.275   0.993  0.2135 -1.6162 -0.4970
    7MOL   C184 1996   6.596   2.413   0.932 -1.0254 -0.5248 -0.7044
    7MOL   C185 1997   6.421   2.227   0.934 -0.2091 -0.6321  0.4699
    7MOL   O186 1998   6.374   2.288   0.839 -0.3565 -0.3212 -0.2003
    7MOL   O187 1999   6.383   2.110   0.984  0.5912 -0.0696  0.4071
    7MOL   C188 2000   6.270   2.036   0.937  0.4246  0.1935  0.4105
    7MOL   H189 2001   6.645   2.080   1.007 -0.7948  0.6960  0.8414
    7MOL   H190 2002   6.620   2.125   0.852 -1.5802  2.3628  0.2282
    7MOL   H191 2003   6.514   2.483   0.951  0.7667  0.7030  2.7964
    7MOL   H192 2004   6.680   2.468   0.973  1.4259 -2.4134 -3.0495
    7MOL   H193 2005   6.616   2.405   0.825 -0.4963  2.2805 -0.8395
    7MOL   H194 2006   6.287   1.929   0.948 -0.1988  0.0784  0.3082
    7MOL   H195 2007   6.248   2.067   0.835 -0.7049  1.0328  0.8936
    7MOL   H196 2008   6.187   2.048   1.007  1.8919  0.1733  2.2085
    7MOL   C197 2009   6.556   2.290   1.151  0.3188  0.6904  0.5591
    7MOL   C198 2010   6.499   2.407   1.234  0.3340  0.8401 -0.1164
    7MOL   C199 2011   6.572   2.539   1.206 -0.1800 -0.0116 -0.0193
    7MOL   C200 2012   6.346   2.427   1.207  0.2196  0.4236 -0.1519
    7MOL   O201 2013   6.301   2.520   1.135 -0.4303  0.5581 -0.0376
    7MOL   O202 2014   6.270   2.327   1.255 -0.0801 -0.1545 -0.2955
    7MOL   C203 2015   6.130   2.323   1.241  0.8830  0.2492 -0.5940
    7MOL   H204 2016   6.658   2.270   1.180  0.3415  1.3953  0.9666
    7MOL   H205 2017   6.503   2.206   1.196  2.3503  0.0441  1.7961
    7MOL   H206 2018   6.679   2.523   1.210  0.2524  2.0425 -2.1009
    7MOL   H207 2019   6.554   2.585   1.109 -0.8369 -2.4170 -1.0734
    7MOL   H208 2020   6.550   2.615   1.281  1.6743 -3.6871  4.4234
    7MOL   H209 2021   6.103   2.227   1.198 -0.9753  1.4630 -2.2149
    7MOL   H210 2022   6.078   2.403   1.188 -1.2909 -1.2330 -0.7949
    7MOL   H211 2023   6.079   2.306   1.336  0.5042  0.1578 -0.8124
    7MOL   C212 2024   6.515   2.363   1.389 -0.7265 -0.5893  0.1041
    7MOL   C213 2025   6.501   2.454   1.521  0.0169  0.4568  0.0868
    7MOL   C214 2026   6.458   2.354   1.636  0.1076  0.5612 -0.3712
    7MOL   C215 2027   6.635   2.509   1.568 -0.0092 -0.1982 -0.3566
    7MOL   O216 2028   6.680   2.502   1.679 -0.2097  0.3310 -0.2058
    7MOL   O217 2029   6.693   2.570   1.471 -0.4109 -0.4672  0.3295
    7MOL   C218 2030   6.806   2.653   1.497 -0.4678 -0.3620  0.3956
    7MOL   H219 2031   6.606   2.304   1.395 -0.0617  0.5263  1.2289
    7MOL   H220 2032   6.448   2.278   1.400  0.4270 -1.6437 -0.8561
    7MOL   H221 2033   6.354   2.325   1.646  0.4642 -0.5068  0.2709
    7MOL   H222 2034   6.508   2.260   1.615  1.6374  0.8026  2.0389
    7MOL   H223 2035   6.487   2.370   1.740  0.7468 -0.4886 -0.3858
    7MOL   H224 2036   6.774   2.722   1.575 -0.7773 -0.3131  0.2268
    7MOL   H225 2037   6.825   2.710   1.407  1.3483  0.6159  1.3734
    7MOL   H226 2038   6.891   2.586   1.513  0.3713  0.3275 -1.1133
    7MOL   C227 2039   6.383   2.564   1.511 -0.8392 -0.0054 -0.5786
    7MOL   C228 2040   6.361   2.690   1.608  0.1475 -0.4091 -0.2052
    7MOL   C229 2041   6.391   2.659   1.759  0.7548 -0.5606  0.4028
    7MOL   C230 2042   6.464   2.795   1.569 -0.2961  0.1982 -0.6668
    7MOL   O231 2043   6.559   2.830   1.645  0.0924  0.0223  0.2273
    7MOL   O232 2044   6.452   2.841   1.442 -0.2169  0.2743  0.1044
    7MOL   C233 2045   6.528   2.951   1.405 -0.4275 -0.0765 -0.2786
    7MOL   H234 2046   6.295   2.501   1.505 -0.7922 -0.4449  2.6911
    7MOL   H235 2047   6.400   2.608   1.412  0.6067  3.5793  1.1845
    7MOL   H236 2048   6.332   2.570   1.778  1.8461 -1.3358  0.1904
    7MOL   H237 2049   6.493   2.639   1.790  1.5313  2.8420  0.3049
    7MOL   H238 2050   6.348   2.731   1.829 -1.7014 -1.0070 -0.5888
    7MOL   H239 2051   6.499   3.038   1.463  0.2794 -0.2729  0.3754
    7MOL   H240 2052   6.516   2.983   1.301 -0.7057  1.2444  0.1596
    7MOL   H241 2053   6.632   2.930   1.431 -0.3860  2.1401  1.4436
    7MOL   C242 2054   6.212   2.757   1.599 -0.5248  0.2629 -0.4395
    7MOL   C243 2055   6.075   2.682   1.551  0.1634  0.1292  0.2087
    7MOL   C244 2056   6.087   2.659   1.402 -0.4320  0.4122  0.5870
    7MOL   C245 2057   6.070   2.550   1.633  0.4138  0.2101 -0.2470
    7MOL   O246 2058   6.082   2.442   1.580  0.1682  0.1582  0.4588
    7MOL   O247 2059   6.066   2.562   1.768  0.3451 -0.1417  0.1232
    7MOL   C248 2060   6.089   2.448   1.846  0.2315  0.5209  0.1948
    7MOL   H249 2061   6.215   2.847   1.537 -0.3431 -0.6953 -1.8324
    7MOL   H250 2062   6.200   2.810   1.694 -1.3092  0.4152 -0.6192
    7MOL   H251 2063   6.172   2.599   1.371 -1.7144 -0.3133 -1.6221
    7MOL   H252 2064   6.000   2.609   1.359 -1.7479  1.7539  1.6097
    7MOL   H253 2065   6.097   2.753   1.347  1.0568  0.6109  1.1855
    7MOL   H254 2066   6.180   2.394   1.822 -1.9455 -2.3633 -1.9248
    7MOL   H255 2067   6.013   2.370   1.842  0.5266  0.1700  1.3701
    7MOL   H256 2068   6.086   2.479   1.950  2.2242 -0.5077  0.5787
    7MOL   C257 2069   5.960   2.776   1.583 -0.2068 -0.0658 -0.1698
    7MOL   C258 2070   5.809   2.754   1.535 -0.5676 -0.2351 -1.1250
    7MOL   C259 2071   5.737   2.836   1.642 -1.3130  0.5020  0.0807
    7MOL   C260 2072   5.785   2.816   1.398 -0.0835 -0.4555  0.6847
    7MOL   O261 2073   5.745   2.933   1.390  0.1578  0.4085 -0.0473
    7MOL   O262 2074   5.830   2.746   1.288  0.0690 -0.2427  0.8747
    7MOL   C263 2075   5.858   2.810   1.167 -0.0042  0.0063  0.0407
    7MOL   H264 2076   5.994   2.875   1.552 -1.9902  1.0481  1.3498
    7MOL   H265 2077   5.955   2.783   1.692  0.0567 -1.3088 -0.0642
    7MOL   H266 2078   5.631   2.854   1.626 -1.2405  0.9008  0.0311
    7MOL   H267 2079   5.748   2.802   1.745 -0.3133  1.9408  0.4692
    7MOL   H268 2080   5.777   2.938   1.640 -1.2587  0.4723 -0.5603
    7MOL   H269 2081   5.881   2.742   1.085 -0.8591 -0.2228 -0.0061
    7MOL   H270 2082   5.924   2.897   1.169  0.5404 -0.4019 -0.0962
    7MOL   H271 2083   5.767   2.853   1.127  0.3175  0.6445 -0.0208
    7MOL   C272 2084   5.768   2.605   1.553  0.0715  0.5706  0.5726
    7MOL   C273 2085   5.626   2.550   1.509  0.4478 -1.2266 -0.0048
    7MOL   C274 2086   5.502   2.648   1.547 -0.3732  1.5318 -0.3628
    7MOL   C275 2087   5.610   2.524   1.358  0.0023 -0.3035 -0.2377
    7MOL   O276 2088   5.516   2.574   1.294  0.0380 -0.2965 -0.6801
    7MOL   O277 2089   5.710   2.460   1.292  0.3965 -0.1454 -0.0477
    7MOL   C278 2090   5.687   2.433   1.156 -0.9219 -0.5044 -0.3841
    7MOL   H279 2091   5.798   2.577   1.654 -1.3465 -2.3558  0.2501
    7MOL   H280 2092   5.833   2.537   1.496 -1.3745 -0.5337  0.2269
    7MOL   H281 2093   5.413   2.585   1.544 -0.9989  2.4754 -1.7164
    7MOL   H282 2094   5.500   2.669   1.654 -2.7676  1.0689 -0.3043
    7MOL   H283 2095   5.503   2.735   1.482 -0.1757  1.2528 -0.7382
    7MOL   H284 2096   5.692   2.532   1.110  0.9366  0.1160  1.1091
    7MOL   H285 2097   5.585   2.398   1.136 -0.5149 -1.0148 -1.6120
    7MOL   H286 2098   5.756   2.367   1.102  1.8630  1.4145  0.7312
    7MOL   C287 2099   5.590   2.418   1.589  0.6211 -0.1988 -0.0898
    7MOL   C288 2100   5.683   2.290   1.597  0.3213 -0.2978  0.2791
    7MOL   C289 2101   5.708   2.253   1.748 -0.2855 -0.7594 -0.0558
    7MOL   C290 2102   5.621   2.173   1.519  0.0600  0.8306 -0.5596
    7MOL   O291 2103   5.553   2.094   1.577 -0.5955 -0.0194  0.5541
    7MOL   O292 2104   5.633   2.194   1.384  0.7963  0.0815 -0.0526
    7MOL   C293 2105   5.562   2.105   1.290 -0.4853 -0.5482  0.4599
    7MOL   H294 2106   5.489   2.392   1.559  0.2170 -0.6311  1.5929
    7MOL   H295 2107   5.566   2.452   1.690  2.8222  2.3787 -0.3697
    7MOL   H296 2108   5.743   2.151   1.761 -0.8801 -0.9394  0.1870
    7MOL   H297 2109   5.771   2.319   1.807  0.0058  0.2139 -1.4322
    7MOL   H298 2110   5.610   2.265   1.795 -0.5115 -0.9347 -0.4699
    7MOL   H299 2111   5.582   2.130   1.186  1.0364 -0.0861  0.8571
    7MOL   H300 2112   5.456   2.115   1.312 -0.1209 -0.2417  2.1793
    7MOL   H301 2113   5.594   2.001   1.289  2.6915  0.3805  0.7427
    7MOL   H302 2114   5.772   2.314   1.539 -1.1227  1.0096 -1.4599
    8MOL     C1 2115   3.855   7.846   4.618  1.1326  0.1585  0.0501
    8MOL     C2 2116   3.976   7.851   4.522  0.4768  0.0615 -0.1652
    8MOL     C3 2117   4.110   7.863   4.609  0.5112  0.1495  0.2484
    8MOL     C4 2118   3.978   7.717   4.444  0.7020 -0.3105  0.5789
    8MOL     O5 2119   4.071   7.633   4.454  0.3154 -0.2595 -0.7857
    8MOL     O6 2120   3.866   7.684   4.368 -0.5686 -0.3470 -0.5523
    8MOL     C7 2121   3.860   7.565   4.298 -0.2476 -0.0936 -0.1173
    8MOL     H8 2122   3.850   0.052   4.686 -2.4174  0.2497 -0.2336
    8MOL     H9 2123   3.766   7.834   4.556  0.8733 -1.5265  0.6983
    8MOL    H10 2124   4.131   7.761   4.640 -0.6731  0.1050  0.9232
    8MOL    H11 2125   4.204   0.012   4.561  0.4578 -1.0764 -0.5475
    8MOL    H12 2126   4.089   0.051   4.694 -1.1919  1.4565 -1.1526
    8MOL    H13 2127   3.855   7.475   4.359 -1.2343 -0.7530 -1.1395
    8MOL    H14 2128   3.952   7.556   4.240 -0.4539  1.9021 -0.7834
    8MOL    H15 2129   3.783   7.547   4.223 -2.0768 -1.5855  2.0195
    8MOL    H16 2130   3.858   7.754   4.676 -1.8857  0.3393  0.5977
    8MOL    C17 2131   3.958   0.080   4.402  0.8034 -0.3412 -0.0118
    8MOL    C18 2132   3.999   0.236   4.434  0.2959 -0.0529  0.2912
    8MOL    C19 2133   3.928   0.313   4.319 -0.3594 -0.6436 -0.2457
    8MOL    C20 2134   3.918   0.280   4.560  0.4586  0.4278 -0.1866
    8MOL    O21 2135   3.796   0.284   4.551 -0.0172 -0.1053  0.4337
    8MOL    O22 2136   3.983   0.296   4.674  0.2714  0.2107 -0.4461
    8MOL    C23 2137   3.932   0.385   4.779 -0.0518  0.3834 -0.4007
    8MOL    H24 2138   3.860   0.082   4.354 -0.4942 -0.1663  2.5524
    8MOL    H25 2139   4.021   0.047   4.320  1.1984 -0.8192  0.4820
    8MOL    H26 2140   3.820   0.303   4.310 -0.5225  1.8597 -1.7727
    8MOL    H27 2141   3.950   0.419   4.332  1.4469 -1.1848  1.2529
    8MOL    H28 2142   3.964   0.291   4.218 -1.3013  1.2031 -1.0021
    8MOL    H29 2143   3.930   0.338   4.877  0.1503 -0.6784 -0.8948
    8MOL    H30 2144   3.827   0.407   4.759 -0.5291 -1.8018 -0.4144
    8MOL    H31 2145   3.994   0.474   4.786 -0.3425  0.5675 -0.1823
    8MOL    C32 2146   4.165   0.254   4.432  0.5521 -0.0706  0.8671
    8MOL    C33 2147   4.236   0.377   4.360 -0.5509 -0.1438 -0.0566
    8MOL    C34 2148   4.201   0.376   4.209 -0.0191  0.0992 -0.4938
    8MOL    C35 2149   4.192   0.518   4.416 -0.4799  0.3779  0.3986
    8MOL    O36 2150   4.143   0.530   4.525  0.0514  0.1727 -0.2084
    8MOL    O37 2151   4.233   0.617   4.336  0.5202 -0.2031  0.1531
    8MOL    C38 2152   4.189   0.750   4.356 -0.2489  0.1343 -0.6810
    8MOL    H39 2153   4.217   0.166   4.395 -0.2500  0.0255 -0.5346
    8MOL    H40 2154   4.194   0.254   4.537 -0.1274 -0.6573  1.0594
    8MOL    H41 2155   4.166   0.276   4.183  0.2993 -0.7245  2.0639
    8MOL    H42 2156   4.130   0.453   4.179 -0.6662 -0.6490 -0.8961
    8MOL    H43 2157   4.280   0.417   4.146  1.9970 -2.1384  0.4818
    8MOL    H44 2158   4.169   0.781   4.459 -2.5397  1.6447 -1.5343
    8MOL    H45 2159   4.096   0.744   4.299 -1.4046 -0.9661  1.2305
    8MOL    H46 2160   4.259   0.816   4.306 -0.1475 -0.5119 -1.3994
    8MOL    C47 2161   4.393   0.367   4.371 -0.0170  0.1319  0.7567
    8MOL    C48 2162   4.487   0.308   4.485  0.3012  0.3293  0.2535
    8MOL    C49 2163   4.425   0.350   4.624  0.0734 -0.2530  0.1506
    8MOL    C50 2164   4.491   0.151   4.479  0.1344 -0.2066 -0.0181
    8MOL    O51 2165   4.438   0.088   4.389  0.4883  0.6311  0.4966
    8MOL    O52 2166   4.548   0.099   4.583 -0.0333 -0.0924  0.3865
    8MOL    C53 2167   4.588   7.839   4.585  0.8085 -0.1952 -0.6297
    8MOL    H54 2168   4.420   0.472   4.379 -0.4914  0.2441  0.8946
    8MOL    H55 2169   4.443   0.335   4.280  1.2444  1.2272  1.0359
    8MOL    H56 2170   4.343   0.288   4.662 -1.7162  2.0592  0.1882
    8MOL    H57 2171   4.507   0.333   4.693 -0.0116 -0.5405  0.1830
    8MOL    H58 2172   4.381   0.449   4.620 -0.5553 -0.5541 -0.8279
    8MOL    H59 2173   4.577   7.794   4.684 -2.6418 -0.8029 -1.2088
    8MOL    H60 2174   4.692   7.826   4.557  0.9507  0.7875 -0.5737
    8MOL    H61 2175   4.522   7.776   4.526 -1.6919  2.3874 -0.6934
    8MOL    C62 2176   4.640   0.346   4.467  0.2487 -0.0773 -0.9519
    8MOL    C63 2177   4.693   0.488   4.438  0.2012 -0.5737  0.2895
    8MOL    C64 2178   4.697   0.511   4.283  0.2654 -0.0389  0.2006
    8MOL    C65 2179   4.614   0.601   4.518  0.5914 -0.0513  0.6882
    8MOL    O66 2180   4.549   0.692   4.468  0.0612  0.2433 -1.0267
    8MOL    O67 2181   4.629   0.589   4.648 -0.0350  0.5808  0.1153
    8MOL    C68 2182   4.566   0.682   4.738 -0.4185  1.0597  0.4248
    8MOL    H69 2183   4.666   0.280   4.384  0.7343 -1.3868  0.2085
    8MOL    H70 2184   4.678   0.308   4.562  0.4199 -1.6839 -1.6356
    8MOL    H71 2185   4.765   0.441   4.234 -0.8501  0.4627 -2.1641
    8MOL    H72 2186   4.600   0.503   4.234 -0.9974 -0.4459  2.6718
    8MOL    H73 2187   4.740   0.605   4.247  0.7875 -0.9004 -1.4899
    8MOL    H74 2188   4.636   0.764   4.748  1.2044 -0.0442 -1.6134
    8MOL    H75 2189   4.563   0.635   4.836  0.3613 -0.5912 -0.3326
    8MOL    H76 2190   4.463   0.710   4.716 -0.9178 -1.7128 -0.9691
    8MOL    C77 2191   4.844   0.480   4.485 -0.4513 -0.4168  0.3836
    8MOL    C78 2192   4.952   0.590   4.461  0.1636  0.0750  0.5921
    8MOL    C79 2193   4.896   0.732   4.462 -0.3070 -0.0594 -0.3210
    8MOL    C80 2194   5.047   0.573   4.581 -0.6403 -0.2448 -0.3729
    8MOL    O81 2195   5.061   0.661   4.670 -0.1556 -0.0310 -0.0864
    8MOL    O82 2196   5.096   0.446   4.596  0.0152  0.3030  0.0035
    8MOL    C83 2197   5.201   0.425   4.691 -0.0568 -0.1033  0.6754
    8MOL    H84 2198   4.882   0.386   4.447 -1.2624 -0.9694  0.9159
    8MOL    H85 2199   4.823   0.465   4.591  1.8479  2.7155  1.3594
    8MOL    H86 2200   4.820   0.740   4.385  1.8259  1.0753 -2.3649
    8MOL    H87 2201   4.857   0.753   4.562 -3.3321 -0.6158 -1.3545
    8MOL    H88 2202   4.972   0.810   4.448  0.9840 -1.0793  0.8358
    8MOL    H89 2203   5.273   0.504   4.674 -0.4958  0.5180  1.6198
    8MOL    H90 2204   5.256   0.332   4.675  0.5486  0.5307 -1.0246
    8MOL    H91 2205   5.157   0.443   4.790  0.7255  0.6693  0.8873
    8MOL    C92 2206   5.023   0.570   4.328 -0.2054 -0.5112  0.9929
    8MOL    C93 2207   5.174   0.614   4.294 -0.2676 -0.6469 -0.0658
    8MOL    C94 2208   5.194   0.759   4.331 -0.0578 -0.3944 -0.1643
    8MOL    C95 2209   5.281   0.526   4.369 -0.1988 -0.1359 -0.1637
    8MOL    O96 2210   5.367   0.584   4.433 -0.1400  0.1088  0.1713
    8MOL    O97 2211   5.263   0.398   4.355 -0.4832 -0.9718 -0.3897
    8MOL    C98 2212   5.364   0.307   4.396 -0.1688  0.3932  0.2758
    8MOL    H99 2213   4.956   0.605   4.250  0.5312 -0.6143  0.3109
    8MOL   H100 2214   5.021   0.461   4.323  0.6196 -0.4451 -1.1402
    8MOL   H101 2215   5.107   0.807   4.286 -0.0996 -0.2861  0.0311
    8MOL   H102 2216   5.175   0.786   4.435 -1.1180  0.8364 -0.6577
    8MOL   H103 2217   5.292   0.798   4.303  0.1553 -0.2949  0.6984
    8MOL   H104 2218   5.314   0.223   4.444  1.3942 -1.6853 -1.6361
    8MOL   H105 2219   5.432   0.361   4.463 -0.3080  0.4342  0.3841
    8MOL   H106 2220   5.412   0.271   4.305  0.0078  0.7199  0.2385
    8MOL   C107 2221   5.182   0.585   4.141 -0.5590  0.1361 -0.1208
    8MOL   C108 2222   5.290   0.629   4.027  0.7042 -0.5362  0.4390
    8MOL   C109 2223   5.263   0.781   3.999 -0.4966  0.3036  0.0811
    8MOL   C110 2224   5.425   0.599   4.083  0.5686 -0.2641 -0.4353
    8MOL   O111 2225   5.503   0.691   4.115 -0.2029 -0.5105  0.0960
    8MOL   O112 2226   5.452   0.471   4.107 -0.1881  0.4389 -0.1627
    8MOL   C113 2227   5.582   0.440   4.154  0.1329  1.0048 -0.0313
    8MOL   H114 2228   5.088   0.624   4.102 -0.9344  1.7565  2.2997
    8MOL   H115 2229   5.157   0.480   4.127  0.2120  0.0008 -0.5117
    8MOL   H116 2230   5.303   0.851   4.072  0.2800  0.0392 -0.0881
    8MOL   H117 2231   5.313   0.812   3.908 -0.2815  1.8395  0.6987
    8MOL   H118 2232   5.159   0.807   3.977 -0.8710 -0.4800  0.8734
    8MOL   H119 2233   5.654   0.421   4.075  0.3008  3.1726 -0.4312
    8MOL   H120 2234   5.563   0.358   4.222 -2.0413  0.2369 -1.5014
    8MOL   H121 2235   5.625   0.522   4.212  1.8166  0.3120 -0.2786
    8MOL   C122 2236   5.261   0.549   3.884 -0.0567  1.1354 -0.0650
    8MOL   C123 2237   5.366   0.522   3.782 -0.0367 -1.1684  0.1983
    8MOL   C124 2238   5.463   0.651   3.764  0.3413 -0.0751 -0.2671
    8MOL   C125 2239   5.462   0.405   3.817  0.4032 -0.5240  0.2173
    8MOL   O126 2240   5.586   0.419   3.819 -0.0110  0.0720  0.2840
    8MOL   O127 2241   5.396   0.294   3.840 -0.3772  0.1697 -0.7224
    8MOL   C128 2242   5.454   0.188   3.899 -0.2985  0.3255  0.2947
    8MOL   H129 2243   5.177   0.605   3.844 -1.0197 -0.4538 -0.3142
    8MOL   H130 2244   5.211   0.453   3.897 -0.1487  0.9287 -1.8667
    8MOL   H131 2245   5.521   0.687   3.849  0.7559  1.3582 -1.1400
    8MOL   H132 2246   5.542   0.646   3.688  0.8226  1.2074  0.1394
    8MOL   H133 2247   5.398   0.735   3.740 -0.9220 -0.4675  1.7006
    8MOL   H134 2248   5.557   0.173   3.867 -0.3956 -0.4060  0.3175
    8MOL   H135 2249   5.387   0.108   3.868  1.0726 -1.6499  2.3186
    8MOL   H136 2250   5.454   0.198   4.007  0.2832 -0.3221  0.3557
    8MOL   C137 2251   5.285   0.489   3.656  0.7156 -0.1547  0.2699
    8MOL   C138 2252   5.346   0.419   3.518 -0.0334  0.1971  0.7725
    8MOL   C139 2253   5.476   0.489   3.471  0.6474 -0.3621 -0.9254
    8MOL   C140 2254   5.377   0.267   3.552  0.0205 -0.3576  0.0613
    8MOL   O141 2255   5.282   0.181   3.562  0.4552  0.0872 -0.0134
    8MOL   O142 2256   5.508   0.239   3.565 -0.2799 -0.1066  0.5076
    8MOL   C143 2257   5.548   0.106   3.584  0.7194 -0.6752 -0.2177
    8MOL   H144 2258   5.244   0.586   3.629  3.4224  1.0510  0.2914
    8MOL   H145 2259   5.208   0.416   3.680  0.1196  0.4392  0.1424
    8MOL   H146 2260   5.454   0.595   3.456  1.2115  0.1034  1.3359
    8MOL   H147 2261   5.567   0.468   3.529 -1.1247 -0.9787  1.7228
    8MOL   H148 2262   5.508   0.448   3.375 -0.9846  0.9270 -2.0402
    8MOL   H149 2263   5.483   0.064   3.661  1.2735  1.1465  1.2585
    8MOL   H150 2264   5.650   0.085   3.618  1.5603  1.3471 -1.3977
    8MOL   H151 2265   5.530   0.050   3.492 -0.2195 -1.4608  0.4358
    8MOL   C152 2266   5.237   0.409   3.402  0.1259  1.1303 -0.1771
    8MOL   C153 2267   5.211   0.508   3.289  0.3853  0.1791  0.1717
    8MOL   C154 2268   5.198   0.655   3.352  0.6201 -0.1037 -0.2964
    8MOL   C155 2269   5.324   0.515   3.180 -0.7147 -0.3028  0.2996
    8MOL   O156 2270   5.412   0.430   3.164  0.0326  0.4064  0.9716
    8MOL   O157 2271   5.295   0.605   3.095  0.3915  0.1952 -0.1274
    8MOL   C158 2272   5.344   0.599   2.967 -0.1462  0.3982 -0.2109
    8MOL   H159 2273   5.139   0.391   3.447  0.0550  0.9063 -0.4244
    8MOL   H160 2274   5.248   0.312   3.354 -2.7023 -1.5430  4.1612
    8MOL   H161 2275   5.163   0.722   3.272  0.8992 -0.8520 -1.0507
    8MOL   H162 2276   5.129   0.663   3.435  0.6422  1.5537 -0.4159
    8MOL   H163 2277   5.293   0.699   3.382  0.9414 -0.9717 -0.0437
    8MOL   H164 2278   5.326   0.510   2.906 -2.9319  0.1102  1.0075
    8MOL   H165 2279   5.449   0.629   2.969  0.0844 -0.4097  0.2231
    8MOL   H166 2280   5.291   0.681   2.918  1.0758  0.5266 -1.3672
    8MOL   C167 2281   5.076   0.481   3.213  0.1900  0.3497 -0.1711
    8MOL   C168 2282   5.027   0.357   3.128  0.5010  0.2826 -0.6061
    8MOL   C169 2283   5.107   0.341   2.994 -0.1592 -0.2825  0.4120
    8MOL   C170 2284   5.028   0.218   3.202  0.4539 -0.1619 -0.7204
    8MOL   O171 2285   5.088   0.130   3.146  0.0131 -0.0319 -0.1626
    8MOL   O172 2286   4.964   0.212   3.317 -0.2282  0.5573  0.0222
    8MOL   C173 2287   4.956   0.087   3.382  0.5751 -0.8477 -0.3216
    8MOL   H174 2288   5.051   0.565   3.149  1.2443  0.6616 -0.1933
    8MOL   H175 2289   4.996   0.495   3.286 -1.3223  0.3322 -1.8028
    8MOL   H176 2290   5.211   0.343   3.024 -0.4922  1.9576  1.4939
    8MOL   H177 2291   5.095   0.244   2.944  1.9104 -1.0050  1.2675
    8MOL   H178 2292   5.101   0.425   2.926 -0.2692 -0.1038  0.6430
    8MOL   H179 2293   4.896   0.100   3.472  0.9894  2.1268 -0.4317
    8MOL   H180 2294   5.056   0.060   3.415  0.2507 -1.3939  0.2320
    8MOL   H181 2295   4.913   0.007   3.321 -0.2940 -0.7234  0.1122
    8MOL   C182 2296   4.875   0.387   3.083  0.4752 -0.3705 -0.3937
    8MOL   C183 2297   4.777   0.282   3.013 -0.2545 -0.0825  0.3541
    8MOL   C184 2298   4.855   0.186   2.910  0.5435 -0.0021 -0.6590
    8MOL   C185 2299   4.701   0.189   3.109 -0.5514  0.0412 -0.2319
    8MOL   O186 2300   4.701   0.211   3.230 -0.1079  0.0515  0.8441
    8MOL   O187 2301   4.636   0.095   3.049 -0.0625  0.5371  0.1560
    8MOL   C188 2302   4.567   7.870   3.120 -0.0050  0.4189  0.4647
    8MOL   H189 2303   4.884   0.470   3.012 -1.3649 -0.6696 -0.9877
    8MOL   H190 2304   4.826   0.427   3.171 -0.5329 -0.1173 -1.0610
    8MOL   H191 2305   4.784   0.125   2.854 -0.5131  0.4899  0.1230
    8MOL   H192 2306   4.903   0.247   2.834 -1.2505  0.2975 -1.5962
    8MOL   H193 2307   4.930   0.122   2.956 -1.3825 -1.0082  1.1677
    8MOL   H194 2308   4.628   7.807   3.183  1.3793  1.5622  0.3018
    8MOL   H195 2309   4.504   7.814   3.051 -2.2410  0.7242  2.2065
    8MOL   H196 2310   4.493   0.050   3.176  0.7189  0.5699  1.2661
    8MOL   C197 2311   4.673   0.356   2.922 -0.2141 -0.6644 -0.1516
    8MOL   C198 2312   4.570   0.463   2.964 -0.3227  0.1230  0.7422
    8MOL   C199 2313   4.477   0.471   2.836  0.3154 -0.1123  0.1529
    8MOL   C200 2314   4.477   0.408   3.070 -0.3332 -0.2651  0.1465
    8MOL   O201 2315   4.391   0.323   3.051  1.1005 -0.2710  0.7536
    8MOL   O202 2316   4.494   0.466   3.187 -0.1690 -0.2776  0.0515
    8MOL   C203 2317   4.420   0.422   3.300  0.2063 -0.3249  0.1607
    8MOL   H204 2318   4.605   0.278   2.889  0.4749 -1.2429 -0.2115
    8MOL   H205 2319   4.719   0.394   2.831 -0.5682  0.7224  0.2303
    8MOL   H206 2320   4.438   0.373   2.811 -1.1725  0.6780 -0.6807
    8MOL   H207 2321   4.390   0.535   2.850  1.8092  2.1963 -0.6596
    8MOL   H208 2322   4.535   0.496   2.747 -1.5608 -0.3158 -1.1555
    8MOL   H209 2323   4.481   0.440   3.389  2.5555  0.7877 -1.6413
    8MOL   H210 2324   4.402   0.314   3.303 -2.2155  0.0871  1.7344
    8MOL   H211 2325   4.318   0.462   3.302  0.2187 -0.2621 -0.4365
    8MOL   C212 2326   4.641   0.597   2.996  0.1226 -0.4976  0.3683
    8MOL   C213 2327   4.567   0.741   3.009 -0.2808  0.5069 -0.0911
    8MOL   C214 2328   4.550   0.815   2.870 -0.3192  0.2568 -0.6213
    8MOL   C215 2329   4.425   0.736   3.062  0.2023  0.0695  0.0732
    8MOL   O216 2330   4.397   0.732   3.185  0.0834 -0.1912 -0.2102
    8MOL   O217 2331   4.331   0.722   2.970 -0.0643 -0.0822 -0.4323
    8MOL   C218 2332   4.210   0.658   3.005 -0.3373 -0.3753 -0.4456
    8MOL   H219 2333   4.716   0.612   2.918 -1.4962  1.6722 -0.8090
    8MOL   H220 2334   4.698   0.575   3.087  0.6233  0.4517  0.2923
    8MOL   H221 2335   4.491   0.906   2.877  2.7732  2.2963 -0.4120
    8MOL   H222 2336   4.646   0.832   2.822  0.5734 -0.3094  0.9248
    8MOL   H223 2337   4.508   0.746   2.796 -0.1399 -1.9598  1.2830
    8MOL   H224 2338   4.142   0.719   3.065  0.9245  0.4430  0.1774
    8MOL   H225 2339   4.231   0.579   3.077  0.3050  0.5852  0.4425
    8MOL   H226 2340   4.173   0.614   2.912 -1.8744  0.7258 -0.3806
    8MOL   C227 2341   4.656   0.832   3.104  0.1915 -0.1858  0.0028
    8MOL   C228 2342   4.782   0.919   3.069 -0.5017 -0.9586 -0.3372
    8MOL   C229 2343   4.828   0.973   3.210  0.8913 -0.3743  0.2364
    8MOL   C230 2344   4.897   0.834   3.016 -0.3668  0.9036  0.1753
    8MOL   O231 2345   4.988   0.808   3.093  0.0829  0.0488  0.6110
    8MOL   O232 2346   4.885   0.776   2.892  0.1161  0.2684  0.3717
    8MOL   C233 2347   4.977   0.693   2.829  0.6312 -0.0189 -0.1648
    8MOL   H234 2348   4.694   0.772   3.186 -0.9131  1.2309  1.5817
    8MOL   H235 2349   4.587   0.903   3.149  0.7289  2.0563 -2.5601
    8MOL   H236 2350   4.929   1.013   3.216  1.3175 -1.3623 -0.2786
    8MOL   H237 2351   4.759   1.047   3.252  2.5696  1.2680  0.1803
    8MOL   H238 2352   4.822   0.891   3.282  0.5598  1.2623  2.1362
    8MOL   H239 2353   5.028   0.634   2.906  0.5475 -0.0533 -0.1350
    8MOL   H240 2354   5.052   0.750   2.774  1.0622 -0.5098 -0.0877
    8MOL   H241 2355   4.911   0.631   2.769  1.1143 -1.1231  0.4255
    8MOL   C242 2356   4.747   1.053   2.979 -0.2686 -0.0225  0.7998
    8MOL   C243 2357   4.857   1.138   2.905  0.2624 -0.2193 -0.2332
    8MOL   C244 2358   4.983   1.150   2.990 -0.4338 -0.1555 -0.8621
    8MOL   C245 2359   4.892   1.063   2.772 -0.1009  0.1502  0.0970
    8MOL   O246 2360   4.811   0.992   2.707  0.3167  0.2425 -0.6034
    8MOL   O247 2361   5.026   1.089   2.733 -0.0780 -0.1826 -0.1000
    8MOL   C248 2362   5.065   1.037   2.615 -0.7156 -0.4901 -0.2502
    8MOL   H249 2363   4.714   1.121   3.058  1.1942  0.5111  0.9702
    8MOL   H250 2364   4.659   1.029   2.921 -1.0376  1.0397  1.4955
    8MOL   H251 2365   5.025   1.050   3.008 -1.5401 -0.2052  1.6364
    8MOL   H252 2366   5.065   1.207   2.946  1.0825  0.9440  3.1686
    8MOL   H253 2367   4.960   1.204   3.082 -1.3677  1.9355 -2.2866
    8MOL   H254 2368   5.165   1.079   2.601 -0.9323 -0.0237 -0.3971
    8MOL   H255 2369   5.005   1.085   2.538  0.3856  0.7149 -0.3739
    8MOL   H256 2370   5.071   0.929   2.600 -0.9551 -1.2407  4.3296
    8MOL   C257 2371   4.808   1.288   2.886  0.6555 -0.1648 -0.0979
    8MOL   C258 2372   4.687   1.334   2.794 -0.2248 -0.0020 -0.0642
    8MOL   C259 2373   4.713   1.286   2.649 -0.3936  0.3766 -0.1353
    8MOL   C260 2374   4.557   1.266   2.847  0.3540 -0.2599 -0.1356
    8MOL   O261 2375   4.484   1.187   2.790 -0.0860  0.2242  0.0321
    8MOL   O262 2376   4.541   1.289   2.981  1.0053 -0.5982  0.4407
    8MOL   C263 2377   4.447   1.209   3.049  0.3683  0.1133 -0.6905
    8MOL   H264 2378   4.891   1.341   2.840  1.1412 -1.3456 -0.5949
    8MOL   H265 2379   4.801   1.334   2.985  0.1538  0.8671 -0.6103
    8MOL   H266 2380   4.709   1.177   2.645 -1.0678  0.4142 -0.7242
    8MOL   H267 2381   4.639   1.320   2.576  1.2511  1.0624 -1.5097
    8MOL   H268 2382   4.804   1.318   2.600  0.5175 -1.8233  0.0643
    8MOL   H269 2383   4.466   1.104   3.026 -0.3095 -0.0797 -0.3897
    8MOL   H270 2384   4.345   1.218   3.013  0.9052 -0.5446 -2.4176
    8MOL   H271 2385   4.437   1.228   3.156 -0.4112 -1.6663 -0.4361
    8MOL   C272 2386   4.686   1.493   2.810 -0.3051 -0.4051  0.0962
    8MOL   C273 2387   4.605   1.601   2.730 -0.3056  0.0917  0.3481
    8MOL   C274 2388   4.669   1.613   2.584 -0.4256  0.0177 -0.6530
    8MOL   C275 2389   4.463   1.542   2.719  0.5733 -0.1711  0.5853
    8MOL   O276 2390   4.416   1.497   2.615 -0.2397  0.0931  0.0454
    8MOL   O277 2391   4.395   1.548   2.835 -0.3054  0.4328  0.4046
    8MOL   C278 2392   4.270   1.494   2.862  1.0361 -0.1975  0.3346
    8MOL   H279 2393   4.791   1.521   2.802 -0.0685 -1.2525  0.1678
    8MOL   H280 2394   4.661   1.514   2.914 -2.5926  0.9187 -0.6712
    8MOL   H281 2395   4.729   1.524   2.563 -0.8171 -0.1863 -0.9214
    8MOL   H282 2396   4.596   1.631   2.505  0.8300  1.6418 -1.4816
    8MOL   H283 2397   4.743   1.694   2.586  0.2831 -0.5990 -1.3307
    8MOL   H284 2398   4.192   1.514   2.788  0.3634 -2.4317  0.4216
    8MOL   H285 2399   4.233   1.542   2.953  2.0940  0.2896  0.5105
    8MOL   H286 2400   4.281   1.388   2.883 -0.7161 -0.3917  0.3689
    8MOL   C287 2401   4.605   1.733   2.810 -0.0323  0.1151  0.0652
    8MOL   C288 2402   4.502   1.842   2.768  0.3401  0.6035  0.4745
    8MOL   C289 2403   4.488   1.964   2.866  0.6404  0.0732 -0.3357
    8MOL   C290 2404   4.526   1.897   2.626  0.8393  0.0620  0.7085
    8MOL   O291 2405   4.446   1.880   2.537 -0.0505 -0.1067 -0.4026
    8MOL   O292 2406   4.632   1.983   2.625 -0.1938  0.5085  0.4308
    8MOL   C293 2407   4.656   2.068   2.512 -0.6539 -0.0300 -0.0548
    8MOL   H294 2408   4.709   1.765   2.818  0.4662 -1.2784 -0.6069
    8MOL   H295 2409   4.577   1.701   2.910 -1.2041 -0.1780 -0.3512
    8MOL   H296 2410   4.563   2.042   2.856  0.2639  0.5594  0.6291
    8MOL   H297 2411   4.400   2.025   2.847 -0.4187 -0.9344  1.2472
    8MOL   H298 2412   4.484   1.933   2.970  1.0910 -2.6325 -1.0624
    8MOL   H299 2413   4.757   2.109   2.520 -0.1514 -1.2726  0.2509
    8MOL   H300 2414   4.588   2.152   2.504  1.4309  1.6643 -0.4835
    8MOL   H301 2415   4.654   2.021   2.414  1.7230  2.2260 -1.2450
    8MOL   H302 2416   4.404   1.796   2.770  0.2377  0.6738 -1.4542
    9MOL     C1 2417   7.054   0.015   0.751  0.3555  0.3629  0.5504
    9MOL     C2 2418   7.139   0.043   0.625 -0.4795  0.0420  0.1824
    9MOL     C3 2419   7.162   0.199   0.606 -0.2086  0.6191 -0.5623
    9MOL     C4 2420   7.280   7.846   0.643 -0.2835 -0.8028  0.3412
    9MOL     O5 2421   7.320   7.819   0.754 -0.3838 -0.5975  0.4933
    9MOL     O6 2422   7.355   7.838   0.533  0.6386  0.0043  0.1475
    9MOL     C7 2423   7.486   7.792   0.534  0.0871  0.9027 -1.0926
    9MOL     H8 2424   7.048   7.785   0.768 -2.8957 -0.0717 -2.9842
    9MOL     H9 2425   7.099   0.049   0.845  1.2719 -1.5140  0.8134
    9MOL    H10 2426   7.208   0.238   0.696 -0.0574 -0.9668  0.0727
    9MOL    H11 2427   7.206   0.231   0.511 -0.6008  0.3097 -0.8540
    9MOL    H12 2428   7.062   0.241   0.619 -0.6593 -0.1004 -1.5429
    9MOL    H13 2429   7.541   7.811   0.626  0.2717  2.2310 -1.4543
    9MOL    H14 2430   7.538   7.852   0.458 -0.3783  0.5564 -1.6915
    9MOL    H15 2431   7.480   7.688   0.504 -1.2148 -0.2591  2.9864
    9MOL    H16 2432   6.957   0.065   0.754 -0.0140 -0.3306  0.1212
    9MOL    C17 2433   7.072   7.871   0.490  0.1764  0.1310  0.4127
    9MOL    C18 2434   6.994   7.727   0.473 -0.6423 -0.0260  0.2208
    9MOL    C19 2435   7.073   7.608   0.530 -0.4952 -0.0895 -0.5485
    9MOL    C20 2436   6.857   7.732   0.542  0.2681  0.4354  1.1150
    9MOL    O21 2437   6.824   7.669   0.645 -0.9273  0.3008  0.4467
    9MOL    O22 2438   6.767   7.809   0.472  0.1242  0.1860 -0.8921
    9MOL    C23 2439   6.635   7.825   0.515  0.1512 -0.2090 -0.5005
    9MOL    H24 2440   7.147   7.869   0.411 -0.4848 -1.2601 -0.1830
    9MOL    H25 2441   7.005   0.079   0.477  2.3498  1.5926 -1.6998
    9MOL    H26 2442   7.024   7.511   0.532 -3.0944  1.1734  0.0419
    9MOL    H27 2443   7.156   7.592   0.461  0.3175 -0.2904  0.4584
    9MOL    H28 2444   7.116   7.620   0.629 -2.7866 -0.1290  0.4867
    9MOL    H29 2445   6.579   7.732   0.519 -0.6283  0.2918  0.4296
    9MOL    H30 2446   6.580   0.016   0.451  1.5347  1.0020 -0.4170
    9MOL    H31 2447   6.638   7.869   0.615 -0.2674  0.4738 -0.7836
    9MOL    C32 2448   6.971   7.702   0.318  0.4778 -0.0864  0.7010
    9MOL    C33 2449   6.907   7.577   0.241 -0.0409 -0.1111 -0.4383
    9MOL    C34 2450   7.019   7.480   0.202  0.5257 -0.2748 -0.2062
    9MOL    C35 2451   6.806   7.504   0.330 -0.2118  0.2555 -0.2730
    9MOL    O36 2452   6.692   7.545   0.337  0.0640  0.1385 -0.0792
    9MOL    O37 2453   6.850   7.404   0.402  0.4524  0.2695  0.2579
    9MOL    C38 2454   6.771   7.344   0.499  0.0799 -0.0497 -0.5014
    9MOL    H39 2455   7.072   7.705   0.279  0.7596 -1.0238  1.3602
    9MOL    H40 2456   6.938   7.796   0.274  0.8109  0.4547  1.6021
    9MOL    H41 2457   7.070   7.454   0.295  0.3571 -1.4823 -0.4413
    9MOL    H42 2458   6.979   7.385   0.166  0.7907 -1.1629  1.7454
    9MOL    H43 2459   7.089   7.515   0.126 -1.9389  0.8985 -2.0305
    9MOL    H44 2460   6.733   7.417   0.570  0.2140 -1.3265  0.9007
    9MOL    H45 2461   6.828   7.269   0.553 -0.0876 -0.2195 -0.5579
    9MOL    H46 2462   6.680   7.293   0.467 -0.8831  0.2809  1.6485
    9MOL    C47 2463   6.838   7.629   0.109 -0.5796 -0.2831 -0.5221
    9MOL    C48 2464   6.798   7.515   0.003  0.8248 -0.5387 -0.2106
    9MOL    C49 2465   6.717   7.599   7.777 -0.6481  0.9739 -0.1247
    9MOL    C50 2466   6.916   7.451   7.804  0.1119  1.0858  0.1373
    9MOL    O51 2467   6.934   7.333   7.800 -0.0778  0.3874 -0.0191
    9MOL    O52 2468   7.005   7.540   7.747 -0.1403  0.2378 -0.1855
    9MOL    C53 2469   7.112   7.485   7.668  0.4075  0.6078 -0.0795
    9MOL    H54 2470   6.901   7.702   0.060 -0.2377 -1.7510 -2.3214
    9MOL    H55 2471   6.747   7.684   0.134  0.6755  1.2195  0.7825
    9MOL    H56 2472   6.616   7.625   7.810 -1.3507 -0.7750 -0.8486
    9MOL    H57 2473   6.765   7.696   7.761 -1.6454  1.4407 -0.3510
    9MOL    H58 2474   6.712   7.555   7.678  0.1966  0.3201  0.1163
    9MOL    H59 2475   7.148   7.555   7.592  1.0879 -2.0959 -2.3361
    9MOL    H60 2476   7.084   7.389   7.625 -0.5571  0.8698 -0.0547
    9MOL    H61 2477   7.196   7.465   7.734 -0.5720 -1.7883  0.4957
    9MOL    C62 2478   6.700   7.406   0.057 -0.4533 -0.0170  0.1801
    9MOL    C63 2479   6.630   7.286   7.853 -0.9069 -0.6366 -0.3092
    9MOL    C64 2480   6.599   7.320   7.703 -0.0864  0.1638 -0.7603
    9MOL    C65 2481   6.697   7.147   7.862 -0.0240 -0.4372 -0.1386
    9MOL    O66 2482   6.785   7.112   0.065  0.2553 -0.4485 -0.0893
    9MOL    O67 2483   6.660   7.055   7.776  0.3339 -0.3669  0.6356
    9MOL    C68 2484   6.720   6.932   7.765 -0.0032 -0.3426  0.4749
    9MOL    H69 2485   6.615   7.457   0.103  0.1805  0.5980  0.6827
    9MOL    H70 2486   6.749   7.352   0.139 -0.2198  1.3141  0.9350
    9MOL    H71 2487   6.548   7.239   7.651 -1.5551  0.9039 -0.4951
    9MOL    H72 2488   6.544   7.413   7.694 -1.4275 -0.5601 -0.2765
    9MOL    H73 2489   6.685   7.344   7.641 -0.2523  1.1649 -0.6112
    9MOL    H74 2490   6.727   6.869   7.853  1.5517 -0.0166  0.6105
    9MOL    H75 2491   6.812   6.941   7.707  0.2233 -2.5069  0.4583
    9MOL    H76 2492   6.654   6.869   7.706  0.2848 -0.5927  0.4208
    9MOL    C77 2493   6.484   7.267   0.039  0.1951 -0.4972  0.0552
    9MOL    C78 2494   6.447   7.252   0.189 -0.7810  0.2877 -0.1912
    9MOL    C79 2495   6.560   7.174   0.262 -1.1558  0.1978 -0.1238
    9MOL    C80 2496   6.428   7.390   0.257 -0.3942  0.3464  0.4622
    9MOL    O81 2497   6.375   7.486   0.202 -0.0633 -0.4668 -0.5992
    9MOL    O82 2498   6.460   7.392   0.391 -0.2815  0.3429 -0.2747
    9MOL    C83 2499   6.433   7.510   0.466  0.1766  0.8455  0.3756
    9MOL    H84 2500   6.445   7.173   7.876  1.6761 -0.6327 -1.0941
    9MOL    H85 2501   6.411   7.324   7.859  0.2049 -0.4833  0.0570
    9MOL    H86 2502   6.528   7.160   0.365  0.2901  0.3127  0.3485
    9MOL    H87 2503   6.589   7.082   0.211  0.8337  1.5801 -1.5387
    9MOL    H88 2504   6.660   7.217   0.254  0.4623 -3.6843 -2.3656
    9MOL    H89 2505   6.422   7.600   0.406 -2.3077 -1.4985 -2.9247
    9MOL    H90 2506   6.526   7.522   0.522  1.0244  0.9864 -1.0342
    9MOL    H91 2507   6.340   7.482   0.515 -0.7643  1.0722 -1.2439
    9MOL    C92 2508   6.304   7.190   0.216  0.6478  0.1941 -0.1782
    9MOL    C93 2509   6.278   7.035   0.206  0.1372 -0.7770 -0.1958
    9MOL    C94 2510   6.335   6.962   0.081  0.4775  0.4171  1.2251
    9MOL    C95 2511   6.341   6.964   0.336 -0.1744 -0.1867  0.4529
    9MOL    O96 2512   6.429   6.880   0.331 -0.3151 -0.4068 -0.2067
    9MOL    O97 2513   6.285   7.010   0.447  0.3637 -0.8324  0.1079
    9MOL    C98 2514   6.346   6.981   0.578 -0.2111 -0.1451 -0.2663
    9MOL    H99 2515   6.231   7.249   0.160  0.3457 -0.2759 -0.2890
    9MOL   H100 2516   6.296   7.204   0.324 -1.0570 -1.2458 -0.0894
    9MOL   H101 2517   6.319   7.016   7.866  2.5970  0.0601  0.6094
    9MOL   H102 2518   6.442   6.948   0.097  0.7667  2.5846  1.4211
    9MOL   H103 2519   6.297   6.861   0.091  0.6792  0.1897 -0.2336
    9MOL   H104 2520   6.451   7.007   0.583 -0.4478  0.5850  1.1941
    9MOL   H105 2521   6.340   6.873   0.590 -3.7050  0.0183 -0.0648
    9MOL   H106 2522   6.307   7.038   0.663  1.1074  0.1659  0.1359
    9MOL   C107 2523   6.124   7.004   0.215 -0.6842 -0.3903 -0.4721
    9MOL   C108 2524   6.019   7.013   0.096  0.4485 -0.5190  0.3878
    9MOL   C109 2525   6.019   7.156   0.026  0.2657 -0.3729 -0.1152
    9MOL   C110 2526   6.044   6.902   7.871 -0.0633  0.5167  0.5687
    9MOL   O111 2527   6.061   6.924   7.748 -0.3570  0.3298  0.0374
    9MOL   O112 2528   6.046   6.779   0.049  0.0658  0.5402  0.0318
    9MOL   C113 2529   6.085   6.666   7.851  0.7583  0.2669  0.4322
    9MOL   H114 2530   6.083   7.064   0.296  2.0543  0.5995  0.2185
    9MOL   H115 2531   6.127   6.900   0.249  0.8902 -0.4263 -0.6820
    9MOL   H116 2532   5.968   7.146   7.808 -0.7404  0.1592  0.3652
    9MOL   H117 2533   5.988   7.231   0.098 -0.8860 -2.1291  1.2635
    9MOL   H118 2534   6.118   7.178   7.862 -0.0218 -3.0781 -2.4086
    9MOL   H119 2535   5.998   6.611   7.817  1.6824 -1.2011  0.4046
    9MOL   H120 2536   6.157   6.600   0.022  3.6054  2.9011 -0.0044
    9MOL   H121 2537   6.134   6.688   7.756  1.4553  3.1393  1.4150
    9MOL   C122 2538   5.879   6.993   0.164  1.0067  0.1979  0.0193
    9MOL   C123 2539   5.744   6.950   0.094 -0.2194 -0.3173 -0.0467
    9MOL   C124 2540   5.725   7.050   7.855  0.3184  0.1236  0.2512
    9MOL   C125 2541   5.744   6.801   0.056 -0.1930 -0.0955 -0.4232
    9MOL   O126 2542   5.787   6.716   0.134 -0.7727  0.0078 -0.0519
    9MOL   O127 2543   5.680   6.776   7.818  0.2993 -0.4669 -0.2357
    9MOL   C128 2544   5.655   6.647   7.771  0.3661  0.7736  0.1644
    9MOL   H129 2545   5.859   7.088   0.213 -4.1273  0.0681 -1.5767
    9MOL   H130 2546   5.896   6.919   0.243 -4.5913  1.8131  2.9884
    9MOL   H131 2547   5.790   7.023   7.772  1.1319  0.6931  0.6981
    9MOL   H132 2548   5.626   7.051   7.810  0.5314  0.8002 -0.2109
    9MOL   H133 2549   5.745   7.154   0.006 -1.5107  0.7361 -0.5876
    9MOL   H134 2550   5.741   6.581   7.786  0.0700  0.8210  2.1965
    9MOL   H135 2551   5.630   6.661   7.666  2.2257  0.2721 -0.3632
    9MOL   H136 2552   5.570   6.600   7.821 -0.8003 -0.7773 -3.0902
    9MOL   C137 2553   5.622   6.986   0.184  0.6410  0.6223 -0.7776
    9MOL   C138 2554   5.587   6.920   0.325 -0.2118 -0.2116  0.3200
    9MOL   C139 2555   5.475   7.007   0.381  0.2642 -0.0449 -0.6959
    9MOL   C140 2556   5.522   6.777   0.293 -0.1415  0.2191 -0.2938
    9MOL   O141 2557   5.570   6.674   0.331  0.2746 -0.0562 -0.4596
    9MOL   O142 2558   5.417   6.781   0.211 -0.0443  0.2994 -0.2451
    9MOL   C143 2559   5.345   6.663   0.185 -0.0421  0.2057  0.3621
    9MOL   H144 2560   5.534   6.971   0.122 -0.1556  1.7023  0.0752
    9MOL   H145 2561   5.606   7.092   0.202 -0.4657  0.2853  0.2832
    9MOL   H146 2562   5.392   7.012   0.310 -0.7652  2.7704  0.6581
    9MOL   H147 2563   5.420   6.976   0.469 -3.1960  3.3874 -1.4936
    9MOL   H148 2564   5.513   7.107   0.404  1.3044 -0.2347 -1.5182
    9MOL   H149 2565   5.347   6.590   0.266 -0.0858 -1.6033 -1.2386
    9MOL   H150 2566   5.404   6.617   0.106  0.3034  1.4119 -0.1079
    9MOL   H151 2567   5.244   6.690   0.154 -0.4790 -2.2226 -0.3739
    9MOL   C152 2568   5.706   6.919   0.429  0.1818  0.1677  0.1903
    9MOL   C153 2569   5.691   6.911   0.590 -0.0973 -0.1899  0.3136
    9MOL   C154 2570   5.663   7.056   0.646 -0.9686 -0.2561 -0.7574
    9MOL   C155 2571   5.593   6.806   0.629 -0.3206 -0.0774  0.2445
    9MOL   O156 2572   5.480   6.835   0.663  0.5224  0.2466  0.1786
    9MOL   O157 2573   5.647   6.692   0.617 -0.1387 -0.1982  0.4880
    9MOL   C158 2574   5.574   6.568   0.634 -0.0860  0.9153  0.2000
    9MOL   H159 2575   5.763   7.006   0.400 -1.6427  0.4770 -2.6547
    9MOL   H160 2576   5.774   6.836   0.407  0.6642  0.1860  1.5741
    9MOL   H161 2577   5.584   7.107   0.591 -2.0749 -1.1042  0.0333
    9MOL   H162 2578   5.624   7.043   0.747 -1.3039 -0.5258 -0.9222
    9MOL   H163 2579   5.750   7.122   0.644 -1.0095 -0.1276  1.0660
    9MOL   H164 2580   5.477   6.583   0.680 -1.2731 -1.7626 -1.3016
    9MOL   H165 2581   5.638   6.503   0.693  0.8782  0.7122 -1.0312
    9MOL   H166 2582   5.574   6.523   0.534 -0.4046 -0.0116  0.6178
    9MOL   C167 2583   5.841   6.880   0.645 -0.1435 -0.6722  0.1532
    9MOL   C168 2584   5.874   6.881   0.801  0.1144  0.8600 -0.2837
    9MOL   C169 2585   5.749   6.852   0.892  0.2488  0.1709 -0.5222
    9MOL   C170 2586   5.970   6.758   0.815  0.7642 -0.1498  0.1653
    9MOL   O171 2587   5.960   6.671   0.902  0.2301 -0.3018 -0.0181
    9MOL   O172 2588   6.063   6.760   0.721 -0.2293  0.6115  0.2486
    9MOL   C173 2589   6.176   6.679   0.739  0.0077  0.3971  0.3753
    9MOL   H174 2590   5.914   6.935   0.585  0.3408 -0.4186  0.9700
    9MOL   H175 2591   5.863   6.781   0.605 -0.0482 -0.9485  0.8981
    9MOL   H176 2592   5.670   6.925   0.910  0.0510 -0.2401  0.3657
    9MOL   H177 2593   5.693   6.764   0.858 -1.5094  1.7270 -1.7378
    9MOL   H178 2594   5.764   6.814   0.993 -2.5396  2.2450  0.7571
    9MOL   H179 2595   6.226   6.691   0.643  1.9067  4.1372  1.7271
    9MOL   H180 2596   6.157   6.572   0.752 -0.9768  0.5790  0.4529
    9MOL   H181 2597   6.234   6.710   0.826  0.0922  0.0167  0.4592
    9MOL   C182 2598   5.938   7.024   0.844 -0.4480 -0.1842 -0.1450
    9MOL   C183 2599   6.017   7.061   0.975 -0.3338 -0.1503  0.0308
    9MOL   C184 2600   5.938   6.999   1.094  0.7604  0.1878  0.5207
    9MOL   C185 2601   6.157   6.997   0.972  0.1337  0.5614 -0.4417
    9MOL   O186 2602   6.216   6.972   0.867 -0.3392  0.2989 -0.0601
    9MOL   O187 2603   6.204   6.975   1.092 -0.1260 -0.2312  0.4583
    9MOL   C188 2604   6.289   6.870   1.117 -0.1706  0.0111 -0.1417
    9MOL   H189 2605   5.849   7.087   0.846  1.2602  2.3446 -2.4993
    9MOL   H190 2606   5.997   7.051   0.757  1.9975 -0.1061  1.5124
    9MOL   H191 2607   5.955   6.891   1.097  2.0428  0.4326  3.8851
    9MOL   H192 2608   5.982   7.043   1.183 -2.8216 -0.7517  2.8424
    9MOL   H193 2609   5.833   7.026   1.096  0.9067  0.8030  0.1121
    9MOL   H194 2610   6.287   6.855   1.225  0.4341  0.6586 -0.0376
    9MOL   H195 2611   6.387   6.903   1.083  0.0305  0.6917  1.0724
    9MOL   H196 2612   6.265   6.772   1.075  0.1576  0.2573 -0.9046
    9MOL   C197 2613   6.023   7.219   0.998  0.6729  0.9970 -0.1309
    9MOL   C198 2614   6.124   7.317   0.924 -0.2629 -0.0028  0.0650
    9MOL   C199 2615   6.260   7.311   1.002 -0.4699  0.6009  0.5344
    9MOL   C200 2616   6.151   7.278   0.778 -0.1462 -0.4522 -0.4319
    9MOL   O201 2617   6.265   7.277   0.738 -0.1754 -0.1670  0.1827
    9MOL   O202 2618   6.042   7.276   0.702  0.0738 -0.6543  0.3360
    9MOL   C203 2619   6.057   7.255   0.562 -0.0270  0.4900  0.1198
    9MOL   H204 2620   6.042   7.240   1.103  0.7164 -0.8071  0.2402
    9MOL   H205 2621   5.921   7.256   0.998  0.5400  0.6380  0.8079
    9MOL   H206 2622   6.244   7.339   1.106 -1.9377 -2.0051  1.0353
    9MOL   H207 2623   6.288   7.207   1.015  0.1149  0.7017  0.1473
    9MOL   H208 2624   6.338   7.367   0.950 -1.1212 -0.9625 -2.1991
    9MOL   H209 2625   5.963   7.247   0.507  1.2403 -1.1153 -1.8980
    9MOL   H210 2626   6.114   7.165   0.539 -2.6601 -0.3739 -3.3643
    9MOL   H211 2627   6.112   7.340   0.522  2.8465  0.2429  3.2694
    9MOL   C212 2628   6.050   7.459   0.949  0.4961  0.0113 -0.5608
    9MOL   C213 2629   6.090   7.597   0.892  0.0871  0.2900 -0.2327
    9MOL   C214 2630   5.993   7.693   0.969 -0.3422  0.9202  0.0499
    9MOL   C215 2631   6.239   7.621   0.933 -0.1147 -0.8237  0.3324
    9MOL   O216 2632   6.324   7.646   0.855  0.3128  0.3048  0.0881
    9MOL   O217 2633   6.265   7.621   1.069  0.2284  0.5984  0.5524
    9MOL   C218 2634   6.394   7.662   1.117  0.4741 -0.4089  0.1256
    9MOL   H219 2635   6.032   7.469   1.056 -1.7322 -1.7312 -0.7457
    9MOL   H220 2636   5.954   7.435   0.902  0.3813  0.2775 -0.4643
    9MOL   H221 2637   5.891   7.669   0.939 -0.1250 -0.1103  0.1212
    9MOL   H222 2638   6.003   7.691   1.078 -1.2524 -0.1028  0.1295
    9MOL   H223 2639   6.018   7.794   0.937 -0.3329 -0.0449 -3.1381
    9MOL   H224 2640   6.476   7.627   1.054  2.0488  0.7520  1.5073
    9MOL   H225 2641   6.396   7.604   1.209  0.7774 -1.3899 -0.4906
    9MOL   H226 2642   6.403   7.769   1.131 -0.2253 -0.5473  1.7218
    9MOL   C227 2643   6.071   7.585   0.733  0.1111  0.2850  0.4460
    9MOL   C228 2644   6.032   7.704   0.639  0.6134  0.1585  0.4522
    9MOL   C229 2645   6.034   7.656   0.499 -0.8236  0.2375 -0.0405
    9MOL   C230 2646   5.884   7.742   0.672  0.6138 -0.3123 -0.2436
    9MOL   O231 2647   5.853   7.847   0.729  0.2377  0.0818 -0.5110
    9MOL   O232 2648   5.794   7.647   0.630 -0.1664  0.4469  0.0633
    9MOL   C233 2649   5.661   7.681   0.669 -0.0463  0.3651 -0.2753
    9MOL   H234 2650   5.996   7.509   0.711  3.6265 -2.4539 -2.7801
    9MOL   H235 2651   6.156   7.533   0.690  1.1892  0.4445  2.3301
    9MOL   H236 2652   5.995   7.721   0.421  1.8557  0.6267 -1.1214
    9MOL   H237 2653   6.141   7.639   0.482 -1.1139 -0.4551 -1.2076
    9MOL   H238 2654   5.994   7.555   0.494 -0.9427  0.2127  1.1031
    9MOL   H239 2655   5.654   7.708   0.775 -1.9689 -0.7165 -0.1164
    9MOL   H240 2656   5.607   7.587   0.671  0.3599  0.1367  1.9603
    9MOL   H241 2657   5.614   7.755   0.605 -1.0458 -0.5878 -0.6469
    9MOL   C242 2658   6.127   7.827   0.663  0.8879  0.7811 -0.2390
    9MOL   C243 2659   6.135   0.092   0.578  0.1485 -0.1281 -0.1070
    9MOL   C244 2660   6.178   0.210   0.677 -0.6332 -0.0352  0.4563
    9MOL   C245 2661   6.252   0.076   0.476  0.3403  0.5164 -0.1381
    9MOL   O246 2662   6.364   0.127   0.490 -0.3130 -0.2131 -0.2863
    9MOL   O247 2663   6.231   7.872   0.371 -0.2614  0.0768  0.3034
    9MOL   C248 2664   6.335   7.858   0.275 -0.7930  0.4517  0.2242
    9MOL   H249 2665   6.221   7.775   0.650  1.0543  1.5377 -2.1833
    9MOL   H250 2666   6.126   7.854   0.769 -0.0996 -0.3636  0.0487
    9MOL   H251 2667   6.092   0.257   0.724 -1.6475 -0.8655 -0.5517
    9MOL   H252 2668   6.244   0.171   0.755 -2.0347 -0.3709  1.5028
    9MOL   H253 2669   6.229   0.295   0.634 -0.5840  0.4384  1.4300
    9MOL   H254 2670   6.344   0.069   0.213 -1.5726 -0.9332 -1.9271
    9MOL   H255 2671   6.301   7.784   0.203  1.0725 -0.7676  0.5585
    9MOL   H256 2672   6.425   7.818   0.322  0.0325  2.3916  0.3430
    9MOL   C257 2673   6.003   0.138   0.505 -0.5129 -0.1154  0.2566
    9MOL   C258 2674   5.986   0.254   0.397  0.6423  0.7071  0.8375
    9MOL   C259 2675   6.084   0.371   0.419  0.2816 -0.6607 -0.0864
    9MOL   C260 2676   6.020   0.198   0.259  0.3045 -0.3200  0.0038
    9MOL   O261 2677   6.100   0.256   0.180 -0.4063  0.1970 -0.8527
    9MOL   O262 2678   5.944   0.091   0.229  0.1973  0.3368 -0.9623
    9MOL   C263 2679   5.926   0.047   0.104 -0.3581  0.2147  0.4212
    9MOL   H264 2680   5.926   0.161   0.579 -2.3455 -0.3385 -1.5254
    9MOL   H265 2681   5.959   0.051   0.458 -0.4771  0.2859 -0.5262
    9MOL   H266 2682   6.079   0.406   0.522 -1.3583  1.7613 -0.9255
    9MOL   H267 2683   6.189   0.344   0.425  0.4761  0.2830  0.9772
    9MOL   H268 2684   6.079   0.441   0.335  0.6913 -0.9183 -0.3235
    9MOL   H269 2685   5.912   0.130   0.034 -2.9085 -2.3019 -2.2275
    9MOL   H270 2686   5.833   7.870   0.094  0.0260 -0.2294 -0.8949
    9MOL   H271 2687   6.007   7.861   0.068 -0.2729  1.3679 -1.5615
    9MOL   C272 2688   5.828   0.304   0.393  0.3592  0.3917 -0.3278
    9MOL   C273 2689   5.773   0.438   0.339 -0.3396 -0.1494 -0.1695
    9MOL   C274 2690   5.814   0.551   0.440  0.7001 -0.1726 -0.0540
    9MOL   C275 2691   5.829   0.465   0.194  0.3859  0.6792 -0.0964
    9MOL   O276 2692   5.897   0.565   0.176 -0.0343 -0.3952  0.4611
    9MOL   O277 2693   5.805   0.369   0.102  0.5792 -0.3483  0.3500
    9MOL   C278 2694   5.860   0.381   7.849 -0.0055 -0.3886 -0.2561
    9MOL   H279 2695   5.779   0.293   0.490  0.2909 -2.3560 -0.6463
    9MOL   H280 2696   5.780   0.231   0.328  1.2126 -0.7443  0.3091
    9MOL   H281 2697   5.920   0.566   0.456  0.7030  0.1453 -0.3770
    9MOL   H282 2698   5.790   0.652   0.410  0.9138 -0.0742  0.1037
    9MOL   H283 2699   5.781   0.535   0.543 -0.3136  0.1167 -0.3224
    9MOL   H284 2700   5.813   0.325   7.768 -1.5795  1.5927 -0.7791
    9MOL   H285 2701   5.968   0.371   7.853  0.3098  2.9453  1.4032
    9MOL   H286 2702   5.847   0.486   7.822  1.2010  1.0028  4.2086
    9MOL   C287 2703   5.620   0.424   0.331 -0.8574  0.3151 -0.4928
    9MOL   C288 2704   5.534   0.359   0.444 -0.1789  0.4503  0.1791
    9MOL   C289 2705   5.386   0.394   0.430 -0.5361 -0.3020  0.6247
    9MOL   C290 2706   5.541   0.202   0.444  0.8290  0.7817  0.2611
    9MOL   O291 2707   5.571   0.147   0.550 -0.0365  0.1788 -0.6433
    9MOL   O292 2708   5.524   0.138   0.327 -0.1614 -0.2715  0.0834
    9MOL   C293 2709   5.530   7.877   0.319  0.3292 -0.2451  0.4038
    9MOL   H294 2710   5.590   0.375   0.239 -2.0690 -0.1002  0.1158
    9MOL   H295 2711   5.568   0.519   0.318  0.9894  1.3856 -0.2153
    9MOL   H296 2712   5.365   0.500   0.446  0.1232  0.0166 -0.5779
    9MOL   H297 2713   5.343   0.372   0.333  2.3343 -0.0320 -0.7590
    9MOL   H298 2714   5.322   0.339   0.500 -1.0928 -1.2510 -0.6058
    9MOL   H299 2715   5.621   7.847   0.371 -1.7998 -2.8578  2.7950
    9MOL   H300 2716   5.553   7.845   0.218  3.0860  1.2653  0.4722
    9MOL   H301 2717   5.441   7.827   0.356  0.7868 -0.6745  0.9327
    9MOL   H302 2718   5.561   0.393   0.544  0.7255 -1.7057  0.7018
   10MOL     C1 2719   3.767   6.424   7.767 -0.4929  0.3211  0.3838
   10MOL     C2 2720   3.842   6.428   0.033 -0.4898 -0.1032  0.3735
   10MOL     C3 2721   3.725   6.413   0.129 -0.0846 -0.0168  0.8360
   10MOL     C4 2722   3.943   6.309   0.046 -0.1035  0.2042 -0.5416
   10MOL     O5 2723   3.973   6.238   7.826  0.0033  0.0878  0.4072
   10MOL     O6 2724   3.991   6.293   0.168  0.2468 -0.0072 -0.2834
   10MOL     C7 2725   4.077   6.188   0.204 -0.4129 -0.6737 -1.0008
   10MOL     H8 2726   3.837   6.417   7.684 -0.5177  0.9725  0.3094
   10MOL     H9 2727   3.705   6.335   7.757 -0.4278  0.2113  0.9284
   10MOL    H10 2728   3.751   6.440   0.231  2.6055  1.7008 -0.2514
   10MOL    H11 2729   3.640   6.477   0.108  0.4118  0.7427  1.1275
   10MOL    H12 2730   3.684   6.312   0.139 -0.3601  0.0240  0.1380
   10MOL    H13 2731   4.170   6.189   0.148 -0.5295 -1.3297 -1.2055
   10MOL    H14 2732   4.019   6.096   0.194 -0.8503 -0.3181 -1.7034
   10MOL    H15 2733   4.086   6.192   0.313 -0.2832 -1.0716 -0.9957
   10MOL    H16 2734   3.692   6.501   7.749 -1.4757 -0.9712 -1.1523
   10MOL    C17 2735   3.920   6.556   0.055 -0.0968  0.0746 -0.0822
   10MOL    C18 2736   4.027   6.629   7.839  0.0121  0.8201 -0.1626
   10MOL    C19 2737   4.135   6.522   7.787  0.3204  0.4439  0.6290
   10MOL    C20 2738   3.959   6.680   7.708  0.6771 -0.0627  0.3302
   10MOL    O21 2739   3.987   6.645   7.592  0.2319 -1.1197  0.2563
   10MOL    O22 2740   3.854   6.758   7.734  0.0929 -0.1793  0.6571
   10MOL    C23 2741   3.787   6.823   7.624 -0.1827  0.6996  0.1469
   10MOL    H24 2742   3.966   6.550   0.154 -1.7106 -0.0230  0.6669
   10MOL    H25 2743   3.853   6.641   0.063  0.3867  0.6591 -1.8364
   10MOL    H26 2744   4.224   6.570   7.746  1.1709 -0.7182  1.1002
   10MOL    H27 2745   4.179   6.465   7.870 -1.8762 -0.6756  1.0593
   10MOL    H28 2746   4.100   6.453   7.711  1.2027  2.0378 -1.2602
   10MOL    H29 2747   3.754   6.747   7.554  0.0215  1.6077 -0.9505
   10MOL    H30 2748   3.846   6.897   7.571  1.1251 -2.0552 -2.3744
   10MOL    H31 2749   3.698   6.873   7.663  0.7883  2.0885  0.6252
   10MOL    C32 2750   4.082   6.747   0.046  0.2274  0.4806  0.1168
   10MOL    C33 2751   4.223   6.824   0.019 -0.5102 -0.2197 -0.7040
   10MOL    C34 2752   4.326   6.751   0.098 -0.0671 -0.2016 -0.0661
   10MOL    C35 2753   4.272   6.821   7.754  0.3691  0.4549  0.0266
   10MOL    O36 2754   4.390   6.786   7.719 -0.3335 -0.2880  0.1110
   10MOL    O37 2755   4.185   6.871   7.666 -0.5206  0.1705  0.5732
   10MOL    C38 2756   4.222   6.887   7.535 -0.1954  0.2758 -0.7337
   10MOL    H39 2757   4.094   6.712   0.148 -0.2691  0.4440  0.1641
   10MOL    H40 2758   4.014   6.833   0.046 -0.1631  0.1773 -0.2954
   10MOL    H41 2759   4.300   6.733   0.202 -2.2067 -2.2394 -0.9000
   10MOL    H42 2760   4.344   6.650   0.062 -1.3413 -0.6515  0.5331
   10MOL    H43 2761   4.423   6.801   0.097  0.0600 -0.4579 -0.7047
   10MOL    H44 2762   4.265   6.796   7.493 -2.4804 -2.0855  1.8626
   10MOL    H45 2763   4.298   6.964   7.538 -0.2440  0.2774  0.9729
   10MOL    H46 2764   4.145   6.918   7.464 -0.5177  0.4672 -0.2992
   10MOL    C47 2765   4.229   6.967   0.079  0.1241 -0.6263 -1.1539
   10MOL    C48 2766   4.182   7.105   0.026  0.2115 -0.2379  0.8786
   10MOL    C49 2767   4.288   7.155   7.798  0.2195  0.1719 -0.0173
   10MOL    C50 2768   4.048   7.089   7.828  0.2248 -0.0160 -0.3750
   10MOL    O51 2769   4.030   7.121   7.710  0.3889  0.2362  0.0787
   10MOL    O52 2770   3.939   7.058   0.040  0.1380  0.1590  0.1291
   10MOL    C53 2771   3.808   7.061   7.874 -0.6341  0.3511 -0.2786
   10MOL    H54 2772   4.336   6.989   0.091 -0.1711 -0.2859  1.0256
   10MOL    H55 2773   4.188   6.940   0.176  0.7475  2.1828 -0.0376
   10MOL    H56 2774   4.290   7.086   7.714  0.2903  0.4139 -0.2157
   10MOL    H57 2775   4.253   7.247   7.752 -1.1866  0.4014  1.4964
   10MOL    H58 2776   4.389   7.164   7.840 -0.1291  3.6341  0.2742
   10MOL    H59 2777   3.812   7.044   7.767  2.6907 -0.6083 -0.0674
   10MOL    H60 2778   3.741   7.146   0.011  0.2924  1.4207 -2.1199
   10MOL    H61 2779   3.756   6.968   0.022 -0.1731 -0.4049 -1.9971
   10MOL    C62 2780   4.178   7.227   0.131  0.0400  0.5668  0.4297
   10MOL    C63 2781   4.162   7.227   0.280  0.1719 -0.1016  0.1305
   10MOL    C64 2782   4.027   7.165   0.319 -0.2064  0.0917  0.2770
   10MOL    C65 2783   4.279   7.137   0.335  0.2036  0.1960 -0.1160
   10MOL    O66 2784   4.251   7.032   0.401  0.2442 -0.0523  0.4664
   10MOL    O67 2785   4.404   7.171   0.300  0.1667  0.0546 -0.2855
   10MOL    C68 2786   4.507   7.075   0.321  0.2151 -0.2942  0.0496
   10MOL    H69 2787   4.091   7.285   0.099 -2.2877 -1.7276  2.3414
   10MOL    H70 2788   4.259   7.294   0.103  0.4174  0.0673  0.3025
   10MOL    H71 2789   4.015   7.064   0.279 -0.5516  0.8526 -1.6271
   10MOL    H72 2790   4.015   7.146   0.425  0.9443 -0.2776  0.3399
   10MOL    H73 2791   3.949   7.223   0.269 -0.6574 -0.5417  0.2285
   10MOL    H74 2792   4.518   7.061   0.429  0.3833 -1.9926 -0.1702
   10MOL    H75 2793   4.605   7.103   0.283  0.1641  0.0267  0.1581
   10MOL    H76 2794   4.483   6.979   0.275 -0.7533  0.2900 -0.6852
   10MOL    C77 2795   4.187   7.375   0.342 -0.0420 -0.2083 -0.1148
   10MOL    C78 2796   4.086   7.492   0.338 -0.7833  0.0853  0.1245
   10MOL    C79 2797   4.051   7.515   0.185 -0.2169 -0.3811 -0.1939
   10MOL    C80 2798   3.952   7.464   0.416  0.1558  0.1774 -1.1864
   10MOL    O81 2799   3.841   7.478   0.373  0.2047 -0.1481 -0.0957
   10MOL    O82 2800   3.973   7.443   0.543  0.7339  0.0009 -0.6465
   10MOL    C83 2801   3.873   7.375   0.620  0.6521 -0.1893 -0.0585
   10MOL    H84 2802   4.280   7.416   0.302  0.1458 -0.0167  0.5185
   10MOL    H85 2803   4.208   7.345   0.444  1.2512 -0.1813 -0.3614
   10MOL    H86 2804   3.974   7.445   0.153  0.0573 -0.9461  0.3764
   10MOL    H87 2805   4.009   7.615   0.172  0.3235 -0.2020 -0.5592
   10MOL    H88 2806   4.144   7.511   0.129  0.8969 -2.1139  1.7132
   10MOL    H89 2807   3.793   7.332   0.559  0.6803  1.4989 -1.3553
   10MOL    H90 2808   3.829   7.450   0.686  2.9793  0.9980  0.1976
   10MOL    H91 2809   3.914   7.298   0.684 -0.5973  0.2484  1.3078
   10MOL    C92 2810   4.177   7.610   0.397  0.4264 -0.5902  0.2011
   10MOL    C93 2811   4.116   7.743   0.462  0.3869  0.1635  0.1872
   10MOL    C94 2812   4.009   7.797   0.367 -0.5158 -0.0034 -0.6656
   10MOL    C95 2813   4.062   7.734   0.601 -0.9306  0.4700  0.7435
   10MOL    O96 2814   3.945   7.758   0.633  0.2007  0.1268  0.4651
   10MOL    O97 2815   4.149   7.683   0.688  0.2016  0.0802  0.0233
   10MOL    C98 2816   4.112   7.670   0.820 -0.6933  0.1186 -0.2894
   10MOL    H99 2817   4.257   7.629   0.325  0.9001 -0.1995  0.8233
   10MOL   H100 2818   4.233   7.558   0.475  1.9971 -2.4267 -2.1069
   10MOL   H101 2819   3.936   7.717   0.362  1.3166 -1.5700 -3.6917
   10MOL   H102 2820   3.959   0.010   0.400 -0.6710  0.0724 -1.1191
   10MOL   H103 2821   4.059   7.820   0.273 -4.1511  0.3769 -2.5912
   10MOL   H104 2822   4.004   7.656   0.833 -0.7973  0.9984 -0.1481
   10MOL   H105 2823   4.140   7.760   0.874 -1.9081 -0.1538  0.8015
   10MOL   H106 2824   4.161   7.581   0.858 -1.5796 -0.5869 -0.7659
   10MOL   C107 2825   4.240   7.849   0.467 -0.0035  0.0226  0.4594
   10MOL   C108 2826   4.238   0.116   0.525 -0.9455  0.1595  0.1463
   10MOL   C109 2827   4.340   0.196   0.439  1.0607  0.3046 -0.2676
   10MOL   C110 2828   4.102   0.193   0.518 -0.2606  0.4204  0.5820
   10MOL   O111 2829   4.080   0.281   0.438  0.1031  0.0911  0.4003
   10MOL   O112 2830   4.023   0.170   0.616  0.0802 -0.0716  0.0412
   10MOL   C113 2831   3.905   0.241   0.638  0.1604  0.3618  0.4797
   10MOL   H114 2832   4.271   7.856   0.362  2.8777  0.9455  1.3226
   10MOL   H115 2833   4.320   7.794   0.518  1.6863 -2.3397 -4.3498
   10MOL   H116 2834   4.444   0.166   0.449  0.8683  0.3311  2.0780
   10MOL   H117 2835   4.327   0.195   0.331  0.2611  0.4284 -0.1756
   10MOL   H118 2836   4.335   0.301   0.468 -2.9132  0.0724  0.2148
   10MOL   H119 2837   3.826   0.235   0.563  0.0886  1.0542  0.4916
   10MOL   H120 2838   3.919   0.346   0.662  0.4600  1.3182 -3.4306
   10MOL   H121 2839   3.868   0.192   0.727  0.2958 -2.0560 -0.7587
   10MOL   C122 2840   4.296   0.111   0.670 -0.6697  0.7508  0.4967
   10MOL   C123 2841   4.360   0.239   0.755  1.1758 -0.1945 -0.1058
   10MOL   C124 2842   4.504   0.255   0.715  0.0341  0.2172 -0.5044
   10MOL   C125 2843   4.282   0.369   0.736  0.4868  0.5581  1.3375
   10MOL   O126 2844   4.330   0.462   0.672 -0.6336 -0.3051 -0.1971
   10MOL   O127 2845   4.175   0.374   0.810 -0.2541  0.3342 -0.0941
   10MOL   C128 2846   4.103   0.493   0.815  0.1858  0.1553 -1.2485
   10MOL   H129 2847   4.370   0.031   0.664 -3.2381 -1.5087 -2.6066
   10MOL   H130 2848   4.209   0.083   0.729 -0.6175  1.7847  1.0862
   10MOL   H131 2849   4.514   0.321   0.629  2.2034 -0.9604 -1.1758
   10MOL   H132 2850   4.572   0.290   0.793  0.0218  0.8934 -0.7879
   10MOL   H133 2851   4.539   0.156   0.688 -2.6612 -0.4658 -1.6637
   10MOL   H134 2852   4.041   0.521   0.730 -2.2444  0.7943  0.6732
   10MOL   H135 2853   4.156   0.576   0.862  0.1209 -0.7542  0.5022
   10MOL   H136 2854   4.032   0.461   0.891  2.7414 -0.3237  1.0181
   10MOL   C137 2855   4.355   0.181   0.903 -0.0285  1.2488 -0.6035
   10MOL   C138 2856   4.409   0.264   1.027  0.5355  0.1505  0.6109
   10MOL   C139 2857   4.291   0.256   1.132  0.2886  0.1386 -0.0373
   10MOL   C140 2858   4.524   0.177   1.092  0.3982  0.5237 -0.5186
   10MOL   O141 2859   4.497   0.092   1.181 -0.4105  0.2811  0.5268
   10MOL   O142 2860   4.639   0.182   1.026 -0.4928 -0.3563  0.2582
   10MOL   C143 2861   4.746   0.101   1.074  0.5181 -0.2208  0.5703
   10MOL   H144 2862   4.390   0.078   0.898 -3.9703 -0.1387 -1.2296
   10MOL   H145 2863   4.250   0.174   0.933  0.3532  1.1461  0.7333
   10MOL   H146 2864   4.236   0.162   1.134 -1.5036  1.1564  0.2094
   10MOL   H147 2865   4.323   0.273   1.234 -2.1238 -2.3080  1.1915
   10MOL   H148 2866   4.215   0.331   1.106  0.8728  0.7189 -0.0927
   10MOL   H149 2867   4.842   0.136   1.036 -0.9929  1.7783 -1.5117
   10MOL   H150 2868   4.720   7.873   1.064 -0.6592 -0.0534  1.7550
   10MOL   H151 2869   4.752   0.117   1.181 -2.3730  1.3067  0.5326
   10MOL   C152 2870   4.442   0.420   1.014 -0.1336 -0.7633  0.5237
   10MOL   C153 2871   4.553   0.507   1.087  0.2597 -0.2899 -0.5951
   10MOL   C154 2872   4.532   0.494   1.237  0.0218  0.0436 -0.0342
   10MOL   C155 2873   4.690   0.464   1.045 -0.3226 -0.0051 -0.2924
   10MOL   O156 2874   4.774   0.405   1.119  0.5266 -0.0168  0.7031
   10MOL   O157 2875   4.708   0.480   0.914  0.0141 -0.5946 -0.4479
   10MOL   C158 2876   4.827   0.422   0.854  0.6128 -0.0627 -0.2351
   10MOL   H159 2877   4.350   0.476   1.026 -0.0833 -0.2863 -1.2190
   10MOL   H160 2878   4.468   0.429   0.908 -2.6440 -1.7130 -0.2100
   10MOL   H161 2879   4.439   0.547   1.260 -0.3239 -1.2074  1.6565
   10MOL   H162 2880   4.519   0.391   1.273  0.4125 -0.1704 -0.5040
   10MOL   H163 2881   4.612   0.539   1.295 -0.1569  2.7781 -1.8568
   10MOL   H164 2882   4.827   0.317   0.883  3.2476  0.5930  2.3310
   10MOL   H165 2883   4.924   0.460   0.886  0.2756  0.1612  0.5379
   10MOL   H166 2884   4.832   0.427   0.745 -0.3805  0.2419 -0.2722
   10MOL   C167 2885   4.530   0.654   1.039 -0.1647 -0.2388 -0.5906
   10MOL   C168 2886   4.621   0.779   1.072  0.7715  0.1583 -0.4907
   10MOL   C169 2887   4.532   0.901   1.039 -0.5356  0.2925 -0.0228
   10MOL   C170 2888   4.654   0.782   1.227  0.8546  0.1403  0.0345
   10MOL   O171 2889   4.769   0.769   1.264  0.3158 -0.1660 -0.4213
   10MOL   O172 2890   4.549   0.791   1.312 -0.2975  0.1673  0.6149
   10MOL   C173 2891   4.559   0.765   1.447  0.9807  0.0296 -0.4340
   10MOL   H174 2892   4.437   0.677   1.092 -1.5994 -1.0627 -2.7083
   10MOL   H175 2893   4.517   0.659   0.931 -0.1355 -0.0140 -0.5855
   10MOL   H176 2894   4.575   0.998   1.065 -0.4389  0.1267  0.4407
   10MOL   H177 2895   4.501   0.908   0.935  0.3423  1.4381 -0.2261
   10MOL   H178 2896   4.436   0.900   1.090 -1.6212 -0.5223 -2.0139
   10MOL   H179 2897   4.642   0.699   1.471 -1.2593 -3.2040 -1.2268
   10MOL   H180 2898   4.476   0.709   1.490  0.4501  2.1129  1.3902
   10MOL   H181 2899   4.580   0.859   1.500  0.7691 -0.1507 -0.0224
   10MOL   C182 2900   4.753   0.776   0.984  0.0434 -0.5748 -0.1276
   10MOL   C183 2901   4.847   0.902   0.951  0.4784 -0.3963 -0.5118
   10MOL   C184 2902   4.876   0.983   1.076 -0.1912  0.3498 -0.4267
   10MOL   C185 2903   4.980   0.844   0.878 -0.3480 -0.1880  0.0486
   10MOL   O186 2904   5.080   0.916   0.858  0.3542  0.2715  0.1599
   10MOL   O187 2905   4.965   0.713   0.832 -0.5795 -0.0975 -0.0184
   10MOL   C188 2906   5.077   0.656   0.766 -0.3108 -0.2570  0.1942
   10MOL   H189 2907   4.722   0.731   0.890 -1.0452  0.1075 -0.1142
   10MOL   H190 2908   4.820   0.705   1.032 -0.1964  0.4632  1.8070
   10MOL   H191 2909   4.907   0.932   1.167 -2.3737 -0.8681 -0.3317
   10MOL   H192 2910   4.959   1.052   1.059 -0.5241  0.8885  0.1162
   10MOL   H193 2911   4.799   1.061   1.079  1.0318  1.5629  0.0590
   10MOL   H194 2912   5.136   0.730   0.712 -1.0120  0.7612  0.7909
   10MOL   H195 2913   5.025   0.588   0.699  0.2078  0.0526 -0.5366
   10MOL   H196 2914   5.140   0.593   0.829  2.5319  0.3908 -1.9136
   10MOL   C197 2915   4.770   0.988   0.843 -0.1323 -0.2220  1.0537
   10MOL   C198 2916   4.814   1.115   0.765 -0.1241 -0.5533  0.2670
   10MOL   C199 2917   4.921   1.201   0.846 -0.0936  0.0238 -0.0794
   10MOL   C200 2918   4.877   1.078   0.629 -0.4894  0.4103  0.3194
   10MOL   O201 2919   4.872   0.965   0.583  0.5432  0.2006  0.3667
   10MOL   O202 2920   4.930   1.182   0.558  0.0509  0.0236 -0.6328
   10MOL   C203 2921   4.993   1.162   0.430 -0.5372 -0.4625  0.0732
   10MOL   H204 2922   4.680   1.021   0.894 -0.5754  0.2230  0.0032
   10MOL   H205 2923   4.746   0.912   0.769  0.7435  0.8696 -0.3881
   10MOL   H206 2924   4.901   1.218   0.952  1.1293  0.6611  0.0537
   10MOL   H207 2925   5.021   1.162   0.833 -0.4000 -1.0057  0.6000
   10MOL   H208 2926   4.940   1.300   0.805 -0.0936 -0.3689 -1.0392
   10MOL   H209 2927   5.076   1.092   0.440 -0.9750 -0.6655  2.7517
   10MOL   H210 2928   5.025   1.257   0.389  0.2193 -0.4475  0.6748
   10MOL   H211 2929   4.917   1.130   0.360  0.2482  0.4158 -1.1924
   10MOL   C212 2930   4.693   1.220   0.754 -0.3443 -0.0505 -0.2491
   10MOL   C213 2931   4.567   1.195   0.657  0.7551 -0.0876 -0.3062
   10MOL   C214 2932   4.528   1.040   0.671 -0.7155 -0.3083  0.3176
   10MOL   C215 2933   4.450   1.272   0.716 -0.0101  0.3224 -0.1322
   10MOL   O216 2934   4.466   1.381   0.780  0.0443  0.5112 -0.3092
   10MOL   O217 2935   4.327   1.224   0.678  0.7086 -0.2906 -0.6537
   10MOL   C218 2936   4.209   1.293   0.719 -0.1249 -0.5804  0.6407
   10MOL   H219 2937   4.729   1.323   0.745  0.0122 -0.2204 -0.8208
   10MOL   H220 2938   4.653   1.228   0.855 -1.6858 -0.8454 -0.7067
   10MOL   H221 2939   4.498   1.017   0.773  0.2496 -0.7617  0.5022
   10MOL   H222 2940   4.440   1.030   0.607 -1.8273  0.9286  1.6171
   10MOL   H223 2941   4.607   0.974   0.635 -1.1921 -0.7975  0.1574
   10MOL   H224 2942   4.122   1.231   0.696 -1.5443  1.4269  0.5159
   10MOL   H225 2943   4.204   1.383   0.657 -0.6428 -0.9842  0.0921
   10MOL   H226 2944   4.214   1.311   0.826  0.7329  2.8578  0.0656
   10MOL   C227 2945   4.625   1.233   0.516  0.5503 -0.0733  0.0276
   10MOL   C228 2946   4.539   1.271   0.393  0.8649  0.4625  0.5368
   10MOL   C229 2947   4.436   1.159   0.367 -0.2702  0.7788 -0.2145
   10MOL   C230 2948   4.461   1.404   0.433  0.1198  0.0446 -0.2873
   10MOL   O231 2949   4.337   1.416   0.428 -0.2481  0.3886 -0.2957
   10MOL   O232 2950   4.539   1.508   0.467  0.4383  0.2157 -0.2444
   10MOL   C233 2951   4.483   1.628   0.500  0.0812  0.4926 -0.0219
   10MOL   H234 2952   4.691   1.154   0.480 -0.2557 -0.1461 -1.3339
   10MOL   H235 2953   4.695   1.315   0.535 -0.3804  0.1309  2.6898
   10MOL   H236 2954   4.386   1.176   0.272 -2.0656 -2.2491  0.1254
   10MOL   H237 2955   4.485   1.062   0.361 -4.5158 -1.5994  1.2237
   10MOL   H238 2956   4.359   1.147   0.444  0.6865  0.7894  0.7455
   10MOL   H239 2957   4.465   1.688   0.411 -0.5504 -0.7828 -0.7699
   10MOL   H240 2958   4.548   1.689   0.563 -1.0684  1.3825  0.3326
   10MOL   H241 2959   4.388   1.617   0.553  0.1775  0.3081  0.1158
   10MOL   C242 2960   4.637   1.294   0.274  0.4231 -0.0071 -0.2614
   10MOL   C243 2961   4.590   1.352   0.134 -0.3400  0.3362 -0.1792
   10MOL   C244 2962   4.499   1.475   0.152 -0.1915 -0.0025 -0.3209
   10MOL   C245 2963   4.722   1.401   0.069 -0.4673 -0.0295 -0.0423
   10MOL   O246 2964   4.744   1.517   0.041 -0.5542  0.2931  0.0092
   10MOL   O247 2965   4.816   1.303   0.046  0.5626 -0.0710 -0.7904
   10MOL   C248 2966   4.940   1.326   7.858 -0.7686  0.0987  0.3422
   10MOL   H249 2967   4.694   1.201   0.261 -0.9358 -1.0020  0.7982
   10MOL   H250 2968   4.721   1.353   0.310  0.6927 -1.0051  0.7977
   10MOL   H251 2969   4.402   1.435   0.183 -0.3035  0.2453 -0.3520
   10MOL   H252 2970   4.531   1.554   0.221  0.8017 -1.7110  1.2342
   10MOL   H253 2971   4.480   1.514   0.052  1.0519  0.7322 -0.2765
   10MOL   H254 2972   4.921   1.378   7.764  0.3587  0.3424  0.2441
   10MOL   H255 2973   4.986   1.227   7.849 -2.0117 -0.5362  0.9324
   10MOL   H256 2974   5.012   1.387   0.036 -1.5601  0.0054  1.4690
   10MOL   C257 2975   4.510   1.254   0.046 -0.0662  0.0744 -0.2973
   10MOL   C258 2976   4.505   1.238   7.766 -0.0652 -0.6074 -0.3063
   10MOL   C259 2977   4.464   1.369   7.690  0.1526  0.5038  0.0120
   10MOL   C260 2978   4.645   1.181   7.713  0.5516 -0.2435 -0.5618
   10MOL   O261 2979   4.722   1.250   7.645  1.2409  0.5294  0.1479
   10MOL   O262 2980   4.670   1.055   7.758 -0.4279  0.0825 -0.6014
   10MOL   C263 2981   4.789   0.989   7.714  0.3646  0.9365 -0.0579
   10MOL   H264 2982   4.405   1.266   0.072 -0.8837 -0.8701 -2.9228
   10MOL   H265 2983   4.537   1.157   0.087 -0.3825 -0.5376 -1.4858
   10MOL   H266 2984   4.367   1.403   7.726  0.4815 -0.1670  1.6091
   10MOL   H267 2985   4.540   1.446   7.701  0.8530 -0.3141  0.9621
   10MOL   H268 2986   4.460   1.354   7.582  1.6731  1.7643 -0.2222
   10MOL   H269 2987   4.823   0.920   7.791  1.5688  0.8599 -0.6406
   10MOL   H270 2988   4.875   1.056   7.715  1.3131 -0.2699  0.1381
   10MOL   H271 2989   4.778   0.937   7.619 -0.3167  0.7640  0.1118
   10MOL   C272 2990   4.394   1.138   7.737  0.9112 -0.1149  0.1259
   10MOL   C273 2991   4.345   1.102   7.585 -0.4400  0.0247 -0.0309
   10MOL   C274 2992   4.280   0.966   7.584  0.5230 -0.6584 -0.0153
   10MOL   C275 2993   4.242   1.201   7.530  0.2946 -0.7037  0.7594
   10MOL   O276 2994   4.266   1.270   7.428 -0.7059 -0.3161 -0.0312
   10MOL   O277 2995   4.129   1.214   7.605 -0.0091 -0.0256 -0.3109
   10MOL   C278 2996   4.017   1.280   7.553  0.5358 -0.5327  0.5404
   10MOL   H279 2997   4.300   1.176   7.777  0.8788 -1.8053  1.7040
   10MOL   H280 2998   4.409   1.043   7.789  2.0363 -0.0434 -0.0445
   10MOL   H281 2999   4.345   0.888   7.625  0.5401  0.7152  2.7000
   10MOL   H282 3000   4.190   0.963   7.647 -0.1835  0.8786 -0.9338
   10MOL   H283 3001   4.236   0.947   7.486 -0.4834  2.1210 -0.1301
   10MOL   H284 3002   4.049   1.373   7.506  1.5321 -0.6093  1.0453
   10MOL   H285 3003   3.955   1.299   7.641 -0.5396  1.1561 -0.5683
   10MOL   H286 3004   3.973   1.220   7.474  1.7874 -0.0989 -0.4927
   10MOL   C287 3005   4.465   1.078   7.481  0.3377  0.0098 -0.2449
   10MOL   C288 3006   4.447   1.041   7.331 -0.1532 -0.1895 -0.0531
   10MOL   C289 3007   4.508   1.148   7.232  0.6570 -0.0579  0.6644
   10MOL   C290 3008   4.504   0.901   7.300 -0.3121  0.0282 -0.2793
   10MOL   O291 3009   4.455   0.822   7.223 -0.0931  0.0183  0.5080
   10MOL   O292 3010   4.623   0.883   7.360  1.0672  0.5593  0.2441
   10MOL   C293 3011   4.690   0.763   7.317  0.3016 -0.2509  0.2239
   10MOL   H294 3012   4.542   1.018   7.531  1.5737 -1.1706 -3.4639
   10MOL   H295 3013   4.517   1.174   7.472 -2.3599  1.7860  2.2419
   10MOL   H296 3014   4.453   1.241   7.246 -1.7364 -1.2380 -0.5589
   10MOL   H297 3015   4.615   1.166   7.241  0.9553 -0.5300 -1.7273
   10MOL   H298 3016   4.495   1.127   7.126  2.5284  1.5540  0.0825
   10MOL   H299 3017   4.633   0.674   7.345  0.3775 -0.1010  0.8674
   10MOL   H300 3018   4.792   0.747   7.354  0.2526 -2.0195 -0.3799
   10MOL   H301 3019   4.702   0.766   7.209 -0.5491  0.2512  0.1410
   10MOL   H302 3020   4.341   1.051   7.305  0.1895 -0.4581 -1.5933
   11MOL     C1 3021   5.725   4.198   4.949 -0.5863  0.5028  0.3090
   11MOL     C2 3022   5.639   4.149   5.075  0.8150  0.2285  0.4644
   11MOL     C3 3023   5.497   4.195   5.028  0.2632  0.0528 -0.0293
   11MOL     C4 3024   5.643   3.995   5.085 -0.2989  0.1232 -0.4256
   11MOL     O5 3025   5.675   3.918   4.996 -0.1899  0.8206  0.4771
   11MOL     O6 3026   5.595   3.955   5.209  0.0778  0.2758  0.0376
   11MOL     C7 3027   5.556   3.816   5.224 -0.1799  0.1746 -0.0780
   11MOL     H8 3028   5.684   4.160   4.855  0.0987  1.6164 -0.4634
   11MOL     H9 3029   5.736   4.306   4.951  0.6880  0.4184 -0.8884
   11MOL    H10 3030   5.507   4.301   5.003  3.5632 -0.3043 -0.3729
   11MOL    H11 3031   5.461   4.140   4.941 -2.3482  0.0510  1.0073
   11MOL    H12 3032   5.429   4.185   5.112  0.5460 -2.1284 -0.0370
   11MOL    H13 3033   5.629   3.742   5.190  0.2515  1.1337 -1.2868
   11MOL    H14 3034   5.475   3.806   5.152  0.8274 -2.6422 -0.9006
   11MOL    H15 3035   5.501   3.806   5.317  0.1172  0.5942  0.1424
   11MOL    H16 3036   5.829   4.164   4.952 -0.2907  1.5607  2.5692
   11MOL    C17 3037   5.680   4.223   5.200  0.1157 -0.2847  0.0012
   11MOL    C18 3038   5.821   4.237   5.272  0.1926  0.7244  0.0826
   11MOL    C19 3039   5.909   4.111   5.253  0.3035 -0.5396  0.4438
   11MOL    C20 3040   5.887   4.354   5.207  0.4241  0.7500 -0.1365
   11MOL    O21 3041   5.993   4.344   5.144  0.4359  0.0563  0.0657
   11MOL    O22 3042   5.829   4.472   5.226  0.0486 -0.3388  0.1484
   11MOL    C23 3043   5.868   4.588   5.147  0.4260  0.1067  0.0822
   11MOL    H24 3044   5.612   4.187   5.277  0.9341 -0.3822  0.6835
   11MOL    H25 3045   5.639   4.322   5.184  0.3992 -0.7195 -3.9923
   11MOL    H26 3046   5.934   4.095   5.149  1.8003  0.7988  0.5620
   11MOL    H27 3047   6.005   4.119   5.306 -0.2738  0.2460  1.4072
   11MOL    H28 3048   5.864   4.020   5.290  0.1432 -0.3078  0.8266
   11MOL    H29 3049   5.803   4.580   5.060  0.6713  0.6734 -0.1556
   11MOL    H30 3050   5.971   4.582   5.113 -0.2047 -0.6828 -1.7086
   11MOL    H31 3051   5.845   4.674   5.211 -1.5070  0.2672 -0.7846
   11MOL    C32 3052   5.795   4.271   5.427 -1.0136  0.3815 -0.6864
   11MOL    C33 3053   5.906   4.325   5.534  0.0043 -0.1958 -0.2987
   11MOL    C34 3054   6.045   4.259   5.508  0.2919 -0.5670 -0.4788
   11MOL    C35 3055   5.916   4.482   5.540  0.8451  1.4723  0.4845
   11MOL    O36 3056   6.022   4.545   5.553  0.0200 -0.4698 -0.2582
   11MOL    O37 3057   5.788   4.541   5.533  0.1083  0.3284  0.5664
   11MOL    C38 3058   5.778   4.681   5.516  0.0529  0.6070 -0.3622
   11MOL    H39 3059   5.755   4.178   5.469 -0.7135  1.1534  1.3840
   11MOL    H40 3060   5.699   4.321   5.445 -0.0347  1.5985  1.2975
   11MOL    H41 3061   6.026   4.151   5.504  1.4073 -0.7796 -0.3183
   11MOL    H42 3062   6.084   4.297   5.414 -2.4191 -1.4864 -2.0422
   11MOL    H43 3063   6.117   4.289   5.584 -0.4373 -1.5793  0.6316
   11MOL    H44 3064   5.678   4.708   5.481  0.1248 -0.8071 -1.6951
   11MOL    H45 3065   5.863   4.722   5.463 -1.0188  1.5342 -1.3948
   11MOL    H46 3066   5.773   4.734   5.611 -1.1611  0.3235 -0.2508
   11MOL    C47 3067   5.853   4.272   5.674  0.5032 -0.1669 -0.2544
   11MOL    C48 3068   5.899   4.307   5.820 -0.2118 -0.3795  0.5263
   11MOL    C49 3069   6.053   4.328   5.832 -0.1530 -0.5716 -0.2378
   11MOL    C50 3070   5.842   4.439   5.872 -0.3697 -0.5982 -0.6239
   11MOL    O51 3071   5.907   4.524   5.942  0.3369  0.1152 -0.2503
   11MOL    O52 3072   5.724   4.467   5.824 -0.0276  0.0632  0.1483
   11MOL    C53 3073   5.669   4.596   5.833 -0.0590  0.2655 -0.6241
   11MOL    H54 3074   5.880   4.167   5.666 -2.4862 -0.9712 -0.4363
   11MOL    H55 3075   5.744   4.274   5.683  0.5763 -1.1277  0.9271
   11MOL    H56 3076   6.079   4.418   5.776  3.9061  1.1426  4.0717
   11MOL    H57 3077   6.092   4.338   5.933 -0.7984 -0.3983 -0.0039
   11MOL    H58 3078   6.113   4.244   5.799 -1.0678 -0.9897 -0.8539
   11MOL    H59 3079   5.600   4.623   5.752 -0.0016  3.8980  0.4575
   11MOL    H60 3080   5.738   4.680   5.835 -0.4555  0.5861 -0.3502
   11MOL    H61 3081   5.610   4.594   5.925  1.5610 -1.0212  0.4043
   11MOL    C62 3082   5.866   4.190   5.927 -0.3409  0.4983  0.4127
   11MOL    C63 3083   5.722   4.126   5.956 -0.9743 -0.3806  0.2765
   11MOL    C64 3084   5.609   4.232   5.942 -0.0393  0.1153  0.1030
   11MOL    C65 3085   5.700   4.011   5.851  0.3656 -0.2929  0.1132
   11MOL    O66 3086   5.788   3.968   5.775  0.1398 -0.5308 -0.2051
   11MOL    O67 3087   5.573   3.969   5.849 -0.1642  0.4174  0.2077
   11MOL    C68 3088   5.530   3.873   5.749 -1.4673 -0.5138 -0.4375
   11MOL    H69 3089   5.901   4.225   6.024 -2.0610  1.4891  0.6828
   11MOL    H70 3090   5.939   4.110   5.915 -0.3251  0.8239 -1.9244
   11MOL    H71 3091   5.592   4.257   5.837 -1.9056 -1.9660 -0.1288
   11MOL    H72 3092   5.516   4.199   5.988  0.5420 -0.6584  0.7427
   11MOL    H73 3093   5.623   4.322   6.002  1.3116  0.3104 -0.4991
   11MOL    H74 3094   5.434   3.828   5.774 -1.9465  0.8504  0.2194
   11MOL    H75 3095   5.595   3.786   5.756  1.5917  1.4673 -3.1039
   11MOL    H76 3096   5.529   3.917   5.650 -0.0747 -2.5150 -1.3761
   11MOL    C77 3097   5.725   4.074   6.108 -0.4208 -0.6026  0.1695
   11MOL    C78 3098   5.772   3.932   6.158  0.0339  0.4486  0.1244
   11MOL    C79 3099   5.919   3.910   6.112 -0.3416  0.5122 -0.2847
   11MOL    C80 3100   5.777   3.932   6.310  0.5051 -0.1134  0.0757
   11MOL    O81 3101   5.715   4.009   6.374 -0.7496  0.0939 -0.1033
   11MOL    O82 3102   5.854   3.834   6.359  0.0273  0.3499  0.8113
   11MOL    C83 3103   5.851   3.794   6.493 -0.0536  0.7582  0.0566
   11MOL    H84 3104   5.620   4.072   6.141 -0.1603  0.3632  1.1286
   11MOL    H85 3105   5.774   4.151   6.168  0.7338  1.1987 -2.9913
   11MOL    H86 3106   5.983   3.991   6.148 -0.1646 -0.3245  1.3122
   11MOL    H87 3107   5.966   3.817   6.142 -0.3418  0.0522 -1.6984
   11MOL    H88 3108   5.916   3.906   6.003 -1.1479 -0.6599 -0.2252
   11MOL    H89 3109   5.830   3.877   6.560 -1.5673 -0.7012  1.4176
   11MOL    H90 3110   5.943   3.739   6.511 -0.2725 -0.1711 -1.5283
   11MOL    H91 3111   5.784   3.710   6.509  1.5716 -0.0634  2.7086
   11MOL    C92 3112   5.700   3.805   6.096  0.5144 -0.6228 -0.1325
   11MOL    C93 3113   5.558   3.751   6.142  0.4047  0.7379 -0.2555
   11MOL    C94 3114   5.457   3.869   6.153 -0.6197 -0.4052  0.2118
   11MOL    C95 3115   5.503   3.649   6.033 -0.1621  0.6033  0.0043
   11MOL    O96 3116   5.390   3.655   5.989 -0.0930 -0.4990  0.3895
   11MOL    O97 3117   5.598   3.562   6.001  0.2386 -0.0651  0.4325
   11MOL    C98 3118   5.575   3.480   5.885  0.0642 -0.0196 -0.1559
   11MOL    H99 3119   5.759   3.718   6.124  0.6991 -0.2293  0.7229
   11MOL   H100 3120   5.712   3.796   5.988  0.6483  1.1719 -0.2857
   11MOL   H101 3121   5.438   3.911   6.054  0.7712  1.4300  0.6881
   11MOL   H102 3122   5.357   3.839   6.187 -0.6105 -0.4891  0.1629
   11MOL   H103 3123   5.480   3.952   6.220  0.4817  0.5979 -1.3817
   11MOL   H104 3124   5.653   3.475   5.808 -1.6712  1.0831 -2.0368
   11MOL   H105 3125   5.478   3.489   5.837  0.0200  1.8498  0.2606
   11MOL   H106 3126   5.580   3.373   5.902 -1.2999 -0.1604 -0.6140
   11MOL   C107 3127   5.578   3.678   6.283  0.0267  0.4643  0.2569
   11MOL   C108 3128   5.478   3.569   6.347 -0.2901 -0.0601  0.2984
   11MOL   C109 3129   5.334   3.621   6.340  0.7449 -0.2673 -0.5952
   11MOL   C110 3130   5.486   3.438   6.269  0.3617  0.4537  0.3792
   11MOL   O111 3131   5.383   3.389   6.224  0.4312  0.7438  0.2831
   11MOL   O112 3132   5.607   3.390   6.260  0.3590  0.1276  0.4826
   11MOL   C113 3133   5.622   3.258   6.210  0.7457 -0.7483  0.4682
   11MOL   H114 3134   5.571   3.752   6.363 -1.5131 -0.1748  0.7336
   11MOL   H115 3135   5.677   3.635   6.298  0.2754  0.2232 -1.9292
   11MOL   H116 3136   5.264   3.546   6.376  0.8695 -0.0059  0.1997
   11MOL   H117 3137   5.316   3.709   6.401  3.2649  0.3922 -0.7318
   11MOL   H118 3138   5.290   3.642   6.243  1.2932  0.4379 -0.6980
   11MOL   H119 3139   5.612   3.266   6.101 -1.4659  0.2922  0.7207
   11MOL   H120 3140   5.555   3.181   6.247 -1.5630  0.8764 -0.2382
   11MOL   H121 3141   5.723   3.226   6.236  1.6618  0.1178 -1.8710
   11MOL   C122 3142   5.518   3.563   6.497 -0.0534  0.9303  0.3613
   11MOL   C123 3143   5.466   3.456   6.606  0.8092  0.1274 -0.2550
   11MOL   C124 3144   5.316   3.471   6.610 -0.0482  0.3029 -0.9299
   11MOL   C125 3145   5.507   3.308   6.588  0.0953 -0.5897  0.6193
   11MOL   O126 3146   5.429   3.212   6.591  0.5747 -0.6621  0.3892
   11MOL   O127 3147   5.644   3.297   6.569  0.3135  0.2217  0.2283
   11MOL   C128 3148   5.711   3.169   6.545 -0.2427  0.6012 -0.1024
   11MOL   H129 3149   5.502   3.664   6.534  1.6010  1.5851 -0.6813
   11MOL   H130 3150   5.626   3.548   6.498 -0.1660 -0.0786 -0.7782
   11MOL   H131 3151   5.264   3.428   6.525  0.4797  1.3247 -1.7804
   11MOL   H132 3152   5.268   3.407   6.685  0.3269 -0.2899 -1.1877
   11MOL   H133 3153   5.270   3.569   6.608 -2.0328 -0.5968 -0.1893
   11MOL   H134 3154   5.691   3.086   6.612  0.2353  1.1833  0.7685
   11MOL   H135 3155   5.817   3.172   6.520 -0.7609  2.1824 -2.2857
   11MOL   H136 3156   5.670   3.132   6.451 -1.9851  1.5344  0.2726
   11MOL   C137 3157   5.531   3.503   6.742  0.3780  0.1168 -0.0164
   11MOL   C138 3158   5.496   3.468   6.895 -0.1460 -0.0248 -0.1844
   11MOL   C139 3159   5.486   3.315   6.913  0.0786 -0.4264  0.2720
   11MOL   C140 3160   5.617   3.531   6.971  0.2845  0.3138 -0.1001
   11MOL   O141 3161   5.689   3.454   7.037  0.2845  0.5223  0.0588
   11MOL   O142 3162   5.658   3.653   6.945  0.2892 -0.0275 -0.1945
   11MOL   C143 3163   5.760   3.706   7.031 -0.3232  0.5806  0.3666
   11MOL   H144 3164   5.526   3.612   6.737 -3.1023  0.0286 -0.1260
   11MOL   H145 3165   5.635   3.474   6.729  0.4048  0.5305 -0.7316
   11MOL   H146 3166   5.497   3.270   7.012 -0.8123  0.2399  0.6809
   11MOL   H147 3167   5.392   3.278   6.873  0.5460 -1.2305 -0.0992
   11MOL   H148 3168   5.571   3.271   6.861  0.8009  1.2414  0.0096
   11MOL   H149 3169   5.734   3.811   7.045 -0.0456  1.0648 -2.4575
   11MOL   H150 3170   5.863   3.693   6.997 -0.6231  0.7607 -0.6172
   11MOL   H151 3171   5.757   3.663   7.131 -1.1441 -0.6639 -0.1897
   11MOL   C152 3172   5.358   3.533   6.925  0.5098  0.1975  0.4065
   11MOL   C153 3173   5.300   3.582   7.064 -0.0168  0.7988 -0.3652
   11MOL   C154 3174   5.150   3.613   7.034  1.2016  0.2288  0.2071
   11MOL   C155 3175   5.302   3.454   7.153 -0.2238  0.1399  0.0977
   11MOL   O156 3176   5.384   3.437   7.243 -0.6494 -0.2180 -0.5046
   11MOL   O157 3177   5.210   3.358   7.115  0.4326  0.0557 -0.4303
   11MOL   C158 3178   5.205   3.240   7.191 -0.3725  0.3076 -0.3045
   11MOL   H159 3179   5.289   3.456   6.890 -0.4255  1.2149 -0.0121
   11MOL   H160 3180   5.333   3.616   6.859  0.1457  0.4714  0.8915
   11MOL   H161 3181   5.148   3.688   6.955  1.8031 -0.9066 -0.9170
   11MOL   H162 3182   5.086   3.533   6.994  3.3683 -0.5126 -1.9577
   11MOL   H163 3183   5.092   3.658   7.114  1.6852 -0.9969  1.2594
   11MOL   H164 3184   5.307   3.201   7.183 -0.3618  0.2239  0.2036
   11MOL   H165 3185   5.148   3.153   7.158 -0.8389  0.8956 -1.0530
   11MOL   H166 3186   5.173   3.250   7.295 -3.3175 -1.2922 -1.0135
   11MOL   C167 3187   5.367   3.704   7.137  0.5424 -0.2045 -0.3694
   11MOL   C168 3188   5.358   3.855   7.094 -0.4805  0.1292 -0.3964
   11MOL   C169 3189   5.398   3.873   6.949  0.4033  0.3346 -0.3472
   11MOL   C170 3190   5.211   3.904   7.108  0.2744 -0.1011  0.3940
   11MOL   O171 3191   5.156   3.967   7.016  0.1629 -0.4053 -0.5682
   11MOL   O172 3192   5.150   3.890   7.226 -0.7007  0.1308 -0.3011
   11MOL   C173 3193   5.023   3.949   7.254 -0.2659 -0.5305 -0.2100
   11MOL   H174 3194   5.466   3.670   7.166 -0.5672  0.6459  4.8204
   11MOL   H175 3195   5.317   3.697   7.233  0.0867  0.7187 -0.5330
   11MOL   H176 3196   5.321   3.822   6.891  0.1565 -0.8677  1.0084
   11MOL   H177 3197   5.382   3.973   6.910  0.0636  0.2893 -0.3186
   11MOL   H178 3198   5.499   3.844   6.920  1.3781 -0.0981  3.2307
   11MOL   H179 3199   4.971   3.978   7.163 -1.9835  1.7632  1.4472
   11MOL   H180 3200   5.031   4.045   7.304  0.9053 -0.1015 -1.1915
   11MOL   H181 3201   4.970   3.876   7.315  1.5871 -0.1306  1.9301
   11MOL   C182 3202   5.456   3.929   7.196 -0.2251 -0.0591  0.1890
   11MOL   C183 3203   5.502   4.080   7.205  0.0673 -0.1097  0.0529
   11MOL   C184 3204   5.629   4.082   7.299  0.5080 -0.3486 -0.1348
   11MOL   C185 3205   5.535   4.127   7.068  0.3510 -0.1369  0.2177
   11MOL   O186 3206   5.458   4.204   7.008  0.1472 -0.0080  0.1771
   11MOL   O187 3207   5.635   4.068   7.012 -0.5173 -0.6968 -0.0420
   11MOL   C188 3208   5.681   4.124   6.889 -0.2156 -0.2824 -0.0284
   11MOL   H189 3209   5.551   3.877   7.178 -0.6676 -0.7584 -0.1229
   11MOL   H190 3210   5.419   3.912   7.297 -3.3240 -2.0310 -1.2068
   11MOL   H191 3211   5.687   4.174   7.291  0.7350 -0.3751  1.0991
   11MOL   H192 3212   5.615   4.057   7.404  0.5578 -1.4145 -0.3803
   11MOL   H193 3213   5.700   4.009   7.261  0.5247 -0.8451  0.8418
   11MOL   H194 3214   5.778   4.082   6.866 -0.1396  0.5829 -1.3250
   11MOL   H195 3215   5.683   4.233   6.891 -0.2114 -0.2809  3.5825
   11MOL   H196 3216   5.620   4.098   6.802  1.8185 -0.3821 -1.4439
   11MOL   C197 3217   5.380   4.151   7.271 -0.4931  0.1486 -0.0809
   11MOL   C198 3218   5.383   4.295   7.345 -0.8872 -0.6848  0.1362
   11MOL   C199 3219   5.237   4.345   7.366 -0.3013  0.2246 -0.1222
   11MOL   C200 3220   5.442   4.272   7.489  0.1655 -0.1519 -0.1180
   11MOL   O201 3221   5.363   4.225   7.572  0.1932  0.0582  0.1488
   11MOL   O202 3222   5.567   4.304   7.505  0.5681  0.6244 -0.2460
   11MOL   C203 3223   5.622   4.310   7.631 -0.7527 -0.4028 -0.0341
   11MOL   H204 3224   5.341   4.090   7.353 -0.4218  0.9694  0.5754
   11MOL   H205 3225   5.296   4.158   7.202 -2.3231 -2.0714  1.8055
   11MOL   H206 3226   5.189   4.363   7.270 -0.0618 -0.1282 -0.3120
   11MOL   H207 3227   5.177   4.273   7.422 -2.5296 -0.3163 -3.0908
   11MOL   H208 3228   5.243   4.435   7.427  0.1754  0.3861 -0.4061
   11MOL   H209 3229   5.661   4.410   7.649 -0.0518  0.1859 -4.3695
   11MOL   H210 3230   5.708   4.243   7.631 -0.2448  0.2436  0.7034
   11MOL   H211 3231   5.558   4.281   7.715 -2.1455 -0.9733 -1.2597
   11MOL   C212 3232   5.460   4.400   7.259  0.0679 -0.6873  0.3876
   11MOL   C213 3233   5.457   4.563   7.264  0.4261  0.2211  0.3742
   11MOL   C214 3234   5.319   4.623   7.219  0.3875  0.2092  0.1013
   11MOL   C215 3235   5.495   4.637   7.395  0.4530  0.0129 -0.4149
   11MOL   O216 3236   5.411   4.692   7.465 -0.3555  0.2541  0.3648
   11MOL   O217 3237   5.618   4.618   7.435 -0.0878  0.0786  0.2805
   11MOL   C218 3238   5.685   4.680   7.550 -0.4890  0.0357 -0.1120
   11MOL   H219 3239   5.421   4.392   7.157 -1.1113 -0.2214  0.7953
   11MOL   H220 3240   5.563   4.365   7.259  0.2789 -0.1057 -0.3240
   11MOL   H221 3241   5.226   4.590   7.267  0.3936 -0.7127 -0.5161
   11MOL   H222 3242   5.316   4.732   7.219  0.4901  0.2096 -1.5520
   11MOL   H223 3243   5.309   4.599   7.114  0.8881 -2.2853  0.5987
   11MOL   H224 3244   5.722   4.780   7.532 -1.3129  0.5954  1.1705
   11MOL   H225 3245   5.778   4.627   7.570  0.9450  2.5458  0.0253
   11MOL   H226 3246   5.616   4.687   7.635 -0.0700 -0.2813  0.2551
   11MOL   C227 3247   5.561   4.599   7.145  0.0683  0.0859 -0.1441
   11MOL   C228 3248   5.609   4.744   7.098 -0.2097 -0.0480  0.3009
   11MOL   C229 3249   5.486   4.819   7.050 -0.1181 -0.3759  0.1689
   11MOL   C230 3250   5.692   4.820   7.208 -0.8890  0.0146 -0.8486
   11MOL   O231 3251   5.788   4.768   7.275 -0.5270 -0.0111 -0.0841
   11MOL   O232 3252   5.662   4.949   7.216  0.2108  0.8326 -0.0010
   11MOL   C233 3253   5.730   5.040   7.305  0.1577  0.2924 -0.9868
   11MOL   H234 3254   5.511   4.551   7.061 -0.6545  1.7179 -0.6718
   11MOL   H235 3255   5.651   4.545   7.172  1.2801  2.3666  0.5710
   11MOL   H236 3256   5.510   4.888   6.969  1.3258 -0.2143  0.7239
   11MOL   H237 3257   5.410   4.753   7.009 -2.8316  3.1580 -0.7801
   11MOL   H238 3258   5.433   4.882   7.122  1.4460 -0.9709  1.8529
   11MOL   H239 3259   5.836   5.053   7.285  0.3590 -1.6900 -1.2812
   11MOL   H240 3260   5.714   5.020   7.411  2.3978  1.1437 -0.4521
   11MOL   H241 3261   5.679   5.136   7.294 -1.2140 -0.1096  1.5381
   11MOL   C242 3262   5.711   4.710   6.985 -0.2124  0.1643  0.0879
   11MOL   C243 3263   5.794   4.826   6.905  0.6961  0.7910 -0.1739
   11MOL   C244 3264   5.715   4.955   6.869  0.7364 -0.4199  0.2147
   11MOL   C245 3265   5.915   4.862   6.990 -0.4001  0.0829  0.6343
   11MOL   O246 3266   5.955   4.978   7.006 -0.0038  0.1974  0.0030
   11MOL   O247 3267   5.983   4.753   7.033  0.3718  0.3413 -0.5208
   11MOL   C248 3268   6.094   4.766   7.115 -0.4860 -0.3576 -0.6271
   11MOL   H249 3269   5.657   4.649   6.912 -0.4748  0.1615  0.2837
   11MOL   H250 3270   5.779   4.640   7.034  1.4239  0.0141 -2.3048
   11MOL   H251 3271   5.774   5.013   6.798 -0.9545  1.2868  0.1411
   11MOL   H252 3272   5.623   4.932   6.815  0.3165 -0.3338  0.8883
   11MOL   H253 3273   5.698   5.023   6.953 -0.9365 -1.2102  0.5338
   11MOL   H254 3274   6.136   4.855   7.068 -1.7581 -0.3016 -1.7110
   11MOL   H255 3275   6.158   4.679   7.111 -0.1582 -0.3141  2.3558
   11MOL   H256 3276   6.060   4.790   7.216  2.9130  0.6254  0.3512
   11MOL   C257 3277   5.851   4.756   6.773 -0.3177 -0.7846  0.1000
   11MOL   C258 3278   5.774   4.726   6.630 -0.8888  0.3610 -0.3480
   11MOL   C259 3279   5.650   4.636   6.655  0.6324  0.0128 -0.5666
   11MOL   C260 3280   5.725   4.860   6.573 -0.1281  0.0896 -0.9135
   11MOL   O261 3281   5.608   4.880   6.540  0.5434 -0.1840  0.2615
   11MOL   O262 3282   5.825   4.947   6.562  0.8966 -0.5268 -0.6189
   11MOL   C263 3283   5.789   5.082   6.511  0.5466 -0.2185  0.4793
   11MOL   H264 3284   5.887   4.662   6.813 -0.7900  0.2683  3.0796
   11MOL   H265 3285   5.942   4.810   6.748 -1.3120  1.9508  2.1955
   11MOL   H266 3286   5.572   4.701   6.693 -0.4799 -2.1395  0.8939
   11MOL   H267 3287   5.615   4.596   6.560 -1.5432  0.9050 -0.1609
   11MOL   H268 3288   5.671   4.555   6.724 -1.3596 -0.5841 -0.6389
   11MOL   H269 3289   5.739   5.151   6.580 -0.8059  0.2032 -0.9092
   11MOL   H270 3290   5.740   5.081   6.414 -0.1461 -1.4562  0.8351
   11MOL   H271 3291   5.885   5.130   6.492  0.1532  1.3986  2.3242
   11MOL   C272 3292   5.878   4.666   6.531  0.3390  0.1506 -0.6391
   11MOL   C273 3293   5.948   4.531   6.548  0.0655 -0.0798 -0.1503
   11MOL   C274 3294   6.059   4.534   6.652  0.6931 -0.3182 -0.2899
   11MOL   C275 3295   5.848   4.418   6.571  0.6615  0.5582  0.6969
   11MOL   O276 3296   5.843   4.356   6.675 -0.1059  0.0673 -0.3306
   11MOL   O277 3297   5.759   4.396   6.469 -0.1236 -0.0247  0.1142
   11MOL   C278 3298   5.655   4.296   6.482  0.2194  0.2124 -0.2280
   11MOL   H279 3299   5.957   4.741   6.528  1.8213 -1.2517  1.4547
   11MOL   H280 3300   5.836   4.668   6.431  2.0925 -0.3128 -1.3981
   11MOL   H281 3301   6.023   4.504   6.751  1.1736  1.8736  0.5641
   11MOL   H282 3302   6.145   4.469   6.632  1.2191  0.8144 -1.7697
   11MOL   H283 3303   6.106   4.632   6.662  1.3696 -0.5820 -0.8205
   11MOL   H284 3304   5.684   4.206   6.535 -3.3065 -0.3378  0.8931
   11MOL   H285 3305   5.619   4.274   6.381 -0.8016  0.7980 -0.0028
   11MOL   H286 3306   5.574   4.344   6.538  0.4914  1.7358 -1.0944
   11MOL   C287 3307   6.012   4.495   6.412 -0.1217  0.8377  0.3755
   11MOL   C288 3308   6.134   4.572   6.363  0.5197  0.2599 -0.0063
   11MOL   C289 3309   6.225   4.489   6.265  0.3973 -0.2063  0.1919
   11MOL   C290 3310   6.099   4.705   6.298 -0.0134 -0.4852 -0.3282
   11MOL   O291 3311   6.032   4.710   6.194  0.0256 -0.1492  0.0210
   11MOL   O292 3312   6.151   4.798   6.369  0.3524  0.2948  0.1368
   11MOL   C293 3313   6.136   4.935   6.328  0.3319  1.0404  0.5662
   11MOL   H294 3314   5.934   4.491   6.337 -1.5893 -0.5894  1.9552
   11MOL   H295 3315   6.043   4.391   6.416  0.9044  1.1540  1.1555
   11MOL   H296 3316   6.170   4.467   6.174  0.0898  3.6478 -0.6422
   11MOL   H297 3317   6.314   4.543   6.235  0.3216  0.2794  0.8120
   11MOL   H298 3318   6.253   4.395   6.313 -2.3137 -2.1022 -1.7869
   11MOL   H299 3319   6.079   4.939   6.235  2.2910 -0.6824 -0.7887
   11MOL   H300 3320   6.234   4.981   6.314  0.6764  0.0898 -0.2537
   11MOL   H301 3321   6.080   4.981   6.408 -1.4516 -1.2305  0.6702
   11MOL   H302 3322   6.186   4.610   6.451  0.0014  2.3916 -0.5986
   12MOL     C1 3323   7.431   6.100   0.634  0.3641  0.5646 -0.4043
   12MOL     C2 3324   7.474   6.131   0.483 -0.0899 -0.2978  0.7638
   12MOL     C3 3325   7.583   6.248   0.491 -0.2141  0.4093 -0.5535
   12MOL     C4 3326   7.549   6.014   0.412  0.2416  0.5608 -0.0180
   12MOL     O5 3327   7.570   5.909   0.473 -0.3109  0.0127  0.4228
   12MOL     O6 3328   7.588   6.042   0.287 -0.0296 -0.0439  0.1203
   12MOL     C7 3329   7.661   5.943   0.209  0.4340  0.3772  0.4075
   12MOL     H8 3330   7.411   6.195   0.683 -0.8559  0.2157 -0.1972
   12MOL     H9 3331   7.348   6.031   0.655  0.3052  1.7308  3.7480
   12MOL    H10 3332   7.610   6.287   0.393 -0.3554  0.0252 -0.7471
   12MOL    H11 3333   7.549   6.317   0.568 -0.8572 -0.0783 -0.3896
   12MOL    H12 3334   7.670   6.206   0.541 -0.8933 -0.5792 -0.1695
   12MOL    H13 3335   7.752   5.904   0.256 -1.5388 -2.4947  1.9864
   12MOL    H14 3336   7.691   5.979   0.110  1.1113  0.0467  0.4836
   12MOL    H15 3337   7.586   5.870   0.179 -1.3555  2.0062  0.8408
   12MOL    H16 3338   7.516   6.064   0.692  0.3082  0.5425 -0.3352
   12MOL    C17 3339   7.358   6.192   0.391  0.2399  0.0055 -0.2077
   12MOL    C18 3340   7.215   6.134   0.375 -0.2232 -0.3108  0.6099
   12MOL    C19 3341   7.223   5.989   0.318  0.7436  0.0490 -0.1548
   12MOL    C20 3342   7.147   6.127   0.520  0.3105  0.7155  0.1015
   12MOL    O21 3343   7.101   6.025   0.567 -0.1839  0.0657  0.2489
   12MOL    O22 3344   7.155   6.246   0.584  0.2701  0.0049  0.2296
   12MOL    C23 3345   7.081   6.264   0.703 -0.1208 -0.0760 -0.1324
   12MOL    H24 3346   7.402   6.201   0.292 -1.4497 -0.0296 -0.9681
   12MOL    H25 3347   7.354   6.297   0.423 -1.3940 -0.3332  0.7371
   12MOL    H26 3348   7.252   5.910   0.386 -0.6468 -2.3108 -2.1836
   12MOL    H27 3349   7.129   5.950   0.278 -0.2879  0.9728  1.3335
   12MOL    H28 3350   7.285   5.986   0.228  0.8119 -1.1146 -0.0828
   12MOL    H29 3351   7.062   6.370   0.718 -2.0484 -0.4829  0.5160
   12MOL    H30 3352   7.143   6.231   0.786  2.7679  0.4529 -2.0029
   12MOL    H31 3353   6.987   6.209   0.714 -1.3346  1.5000 -2.2497
   12MOL    C32 3354   7.141   6.229   0.279  0.1382 -0.2304 -0.2674
   12MOL    C33 3355   6.984   6.248   0.268  0.6268  0.0375  0.2603
   12MOL    C34 3356   6.909   6.109   0.292 -0.1054 -0.3571  0.2063
   12MOL    C35 3357   6.935   6.348   0.382  0.1874  0.2068  0.3511
   12MOL    O36 3358   6.854   6.307   0.467  0.0791  0.5421 -0.7279
   12MOL    O37 3359   6.988   6.471   0.380  0.0515 -0.2605 -0.5348
   12MOL    C38 3360   6.935   6.563   0.477  0.4907  0.4257 -0.1489
   12MOL    H39 3361   7.178   6.203   0.180 -0.2949 -0.1045 -0.4632
   12MOL    H40 3362   7.184   6.329   0.286 -0.2867  0.0574 -1.6259
   12MOL    H41 3363   6.805   6.113   0.261  0.0402  1.8484 -0.0813
   12MOL    H42 3364   6.953   6.032   0.228 -1.1672  0.5004 -1.5704
   12MOL    H43 3365   6.897   6.080   0.396 -1.3972 -0.9350 -0.0928
   12MOL    H44 3366   6.826   6.562   0.476  0.4637  1.2949 -2.4110
   12MOL    H45 3367   6.960   6.669   0.464  0.0074  0.2300 -2.8269
   12MOL    H46 3368   6.962   6.524   0.575 -2.8496  0.5440  0.8772
   12MOL    C47 3369   6.952   6.313   0.124  0.3356  0.3270  0.4087
   12MOL    C48 3370   6.820   6.298   0.039  0.0222 -0.4156 -0.2470
   12MOL    C49 3371   6.804   6.155   7.856  0.3436 -0.3818  0.5235
   12MOL    C50 3372   6.696   6.332   0.123 -0.0462 -0.4953  0.4313
   12MOL    O51 3373   6.600   6.257   0.137  0.0335 -0.1395 -0.0653
   12MOL    O52 3374   6.712   6.453   0.188  0.4510  0.0623 -0.2081
   12MOL    C53 3375   6.601   6.516   0.258 -0.6755  0.1418 -0.8931
   12MOL    H54 3376   7.031   6.276   0.059 -1.6272 -2.3433 -0.5817
   12MOL    H55 3377   6.978   6.418   0.123  1.1897  0.1517  2.3175
   12MOL    H56 3378   6.820   6.075   0.051  0.6494 -0.6657  0.1469
   12MOL    H57 3379   6.707   6.135   7.812  0.6967  1.7687 -1.2809
   12MOL    H58 3380   6.878   6.132   7.779 -0.8113 -1.3596 -0.3002
   12MOL    H59 3381   6.512   6.492   0.199 -1.5139 -1.8233  1.1241
   12MOL    H60 3382   6.609   6.625   0.261  1.3743  0.1325 -4.0910
   12MOL    H61 3383   6.570   6.481   0.356 -0.1099  1.3740 -0.2584
   12MOL    C62 3384   6.836   6.400   7.800 -0.2639  0.1686  0.3357
   12MOL    C63 3385   6.748   6.427   7.670  0.2234 -0.5374  1.0846
   12MOL    C64 3386   6.783   6.316   7.570  0.0876 -0.4572  0.3148
   12MOL    C65 3387   6.596   6.420   7.707  0.6140 -0.0580  0.0152
   12MOL    O66 3388   6.529   6.333   7.655  0.6682  0.0144 -0.6182
   12MOL    O67 3389   6.560   6.520   7.796  0.0739  0.1816  0.3288
   12MOL    C68 3390   6.424   6.535   7.834  0.7043  0.0271 -0.4531
   12MOL    H69 3391   6.928   6.383   7.745 -0.6145 -1.9047  0.3624
   12MOL    H70 3392   6.837   6.502   7.841  0.0524 -0.0761  0.9387
   12MOL    H71 3393   6.882   6.333   7.528  0.0116  1.5779  0.9009
   12MOL    H72 3394   6.774   6.214   7.608 -1.1153 -0.6038 -0.3485
   12MOL    H73 3395   6.713   6.316   7.487 -0.7694 -0.9673  1.0335
   12MOL    H74 3396   6.421   6.605   0.040 -0.3521  1.2393 -1.4794
   12MOL    H75 3397   6.370   6.451   7.877 -1.5348  2.0312  0.7757
   12MOL    H76 3398   6.358   6.571   7.755 -3.1582  1.5625  3.2777
   12MOL    C77 3399   6.782   6.572   7.612 -0.0729 -0.2214  0.9370
   12MOL    C78 3400   6.750   6.622   7.467 -0.3075 -0.5948 -0.2944
   12MOL    C79 3401   6.787   6.772   7.462  0.1771  0.1017 -0.4958
   12MOL    C80 3402   6.851   6.559   7.368 -0.1514 -0.8114  0.8495
   12MOL    O81 3403   6.826   6.478   7.283 -0.8769 -0.1501  0.4408
   12MOL    O82 3404   6.982   6.612   7.369  0.1983 -0.1728 -0.0372
   12MOL    C83 3405   7.055   6.595   7.255 -0.3716 -0.8227  0.0140
   12MOL    H84 3406   6.890   6.586   7.622  0.3326 -2.0677 -0.6172
   12MOL    H85 3407   6.740   6.646   7.680 -0.9679  1.0969 -1.0199
   12MOL    H86 3408   6.782   6.806   7.359 -2.2966  0.6575 -0.2155
   12MOL    H87 3409   6.708   6.823   7.516  0.3149  0.9361 -1.0763
   12MOL    H88 3410   6.881   6.803   7.508 -0.3891 -1.1683  1.5919
   12MOL    H89 3411   7.109   6.500   7.252  1.9316  0.3657  2.4743
   12MOL    H90 3412   7.127   6.676   7.257 -0.3658 -0.8130 -0.4945
   12MOL    H91 3413   6.992   6.600   7.166  0.5519 -1.9188 -0.7165
   12MOL    C92 3414   6.595   6.602   7.433  0.3799 -0.2008  0.0069
   12MOL    C93 3415   6.510   6.677   7.326  0.7630  0.3146 -0.2032
   12MOL    C94 3416   6.371   6.610   7.322 -0.4854  0.1302  0.6954
   12MOL    C95 3417   6.472   6.819   7.364  0.2278  0.2203 -0.1065
   12MOL    O96 3418   6.534   6.919   7.327 -0.5322  0.3660 -0.5675
   12MOL    O97 3419   6.377   6.818   7.467 -0.3499  0.2349  0.0778
   12MOL    C98 3420   6.350   6.945   7.527 -0.1764  0.2517 -0.1406
   12MOL    H99 3421   6.542   6.623   7.526 -0.2336  0.2712 -0.4495
   12MOL   H100 3422   6.576   6.494   7.428  0.2924 -0.4276  3.8065
   12MOL   H101 3423   6.385   6.517   7.266 -1.2942  0.2119  0.3511
   12MOL   H102 3424   6.325   6.593   7.419 -0.7024 -1.6135  0.3048
   12MOL   H103 3425   6.303   6.671   7.263  2.0004 -0.1326 -2.6524
   12MOL   H104 3426   6.442   6.989   7.566 -0.2688 -0.0288  0.4037
   12MOL   H105 3427   6.288   6.919   7.613 -1.3662  1.9590 -0.4702
   12MOL   H106 3428   6.302   7.015   7.460  0.2620  0.5383 -0.1589
   12MOL   C107 3429   6.586   6.685   7.186 -0.3561  0.8178  0.2404
   12MOL   C108 3430   6.525   6.709   7.039 -0.2435 -0.3525 -0.0740
   12MOL   C109 3431   6.638   6.710   6.937  0.2079 -0.0658  0.8892
   12MOL   C110 3432   6.436   6.591   7.000  0.2154 -0.2792  0.5154
   12MOL   O111 3433   6.312   6.596   6.999 -0.3327 -1.2011  0.2716
   12MOL   O112 3434   6.499   6.481   6.970  0.6694  0.1296  0.3826
   12MOL   C113 3435   6.425   6.367   6.947 -0.1267 -0.4247 -0.6956
   12MOL   H114 3436   6.629   6.585   7.176  1.3828  1.3233  2.1792
   12MOL   H115 3437   6.681   6.739   7.197  0.6564 -0.5483 -1.5148
   12MOL   H116 3438   6.604   6.711   6.834 -1.0829  1.9251  1.3224
   12MOL   H117 3439   6.705   6.796   6.946 -2.5072  2.5523 -2.7763
   12MOL   H118 3440   6.705   6.626   6.957 -0.6770 -0.5731  1.7524
   12MOL   H119 3441   6.351   6.355   7.026  0.3578  1.2914  0.0331
   12MOL   H120 3442   6.491   6.281   6.933  0.2744 -0.0356 -1.1847
   12MOL   H121 3443   6.362   6.370   6.858  0.8277  0.3146 -1.3580
   12MOL   C122 3444   6.447   6.847   7.027  0.0325 -0.1680  0.6119
   12MOL   C123 3445   6.410   6.918   6.886 -0.2528 -0.1006 -0.3841
   12MOL   C124 3446   6.345   6.817   6.793 -0.0717  0.6811  0.2762
   12MOL   C125 3447   6.309   7.029   6.925  0.3534 -0.1010 -0.1956
   12MOL   O126 3448   6.194   7.034   6.883 -0.2150 -0.3673  0.1053
   12MOL   O127 3449   6.363   7.118   7.018 -0.7461 -0.4764  0.0135
   12MOL   C128 3450   6.285   7.197   7.101  0.9804  0.1699  0.2000
   12MOL   H129 3451   6.495   6.912   7.100 -1.1869 -0.0050  1.2798
   12MOL   H130 3452   6.351   6.830   7.075  0.5389  0.5717  1.9007
   12MOL   H131 3453   6.291   6.864   6.712 -0.5173 -0.9634 -0.4058
   12MOL   H132 3454   6.416   6.748   6.746 -0.0653  1.3094 -0.6542
   12MOL   H133 3455   6.264   6.768   6.846  0.9583  2.5545  3.7551
   12MOL   H134 3456   6.309   7.187   7.207 -0.9673  4.1154  1.1114
   12MOL   H135 3457   6.180   7.170   7.084  1.4965 -1.2461 -0.8527
   12MOL   H136 3458   6.291   7.303   7.078 -0.3617  0.2649  0.2527
   12MOL   C137 3459   6.542   6.983   6.815 -0.3800 -0.3862  0.3683
   12MOL   C138 3460   6.546   7.068   6.676 -0.5403 -0.6034  0.1579
   12MOL   C139 3461   6.542   6.966   6.555  0.4601  0.2312 -0.7063
   12MOL   C140 3462   6.425   7.165   6.662  0.0835  0.3849 -0.2088
   12MOL   O141 3463   6.345   7.154   6.569  0.0739  0.4881  0.3859
   12MOL   O142 3464   6.416   7.258   6.767 -0.0918  0.8344 -0.2962
   12MOL   C143 3465   6.304   7.346   6.772 -0.2285  0.3166 -0.8348
   12MOL   H144 3466   6.620   6.912   6.788 -0.6969 -0.0985 -1.3868
   12MOL   H145 3467   6.589   7.039   6.896 -0.0143  0.2958 -0.3069
   12MOL   H146 3468   6.521   7.005   6.455 -0.2735 -2.1365 -1.5021
   12MOL   H147 3469   6.629   6.902   6.539  0.4327 -0.4509  1.7058
   12MOL   H148 3470   6.451   6.910   6.571  1.0512 -0.4689  0.2699
   12MOL   H149 3471   6.315   7.430   6.704  0.8460 -0.5582 -1.7777
   12MOL   H150 3472   6.302   7.391   6.871 -0.9771  0.6045 -0.9814
   12MOL   H151 3473   6.213   7.289   6.755 -0.3535  0.4956 -0.7543
   12MOL   C152 3474   6.682   7.151   6.663  0.5453  0.1331  0.2707
   12MOL   C153 3475   6.701   7.278   6.573 -0.0943  0.6651  0.5639
   12MOL   C154 3476   6.647   7.416   6.641 -0.6581  0.4865 -0.0923
   12MOL   C155 3477   6.853   7.290   6.575 -0.2208  0.5062  1.2735
   12MOL   O156 3478   6.905   7.379   6.640  0.0211  0.1755  0.0162
   12MOL   O157 3479   6.922   7.198   6.505 -0.1217 -0.0659  0.2561
   12MOL   C158 3480   7.059   7.214   6.487  0.3204  0.4922  0.5252
   12MOL   H159 3481   6.762   7.076   6.656  0.6583 -0.0236  2.8258
   12MOL   H160 3482   6.688   7.191   6.764  0.5233  0.7171  0.0400
   12MOL   H161 3483   6.674   7.423   6.746  1.2886 -0.6558 -0.5024
   12MOL   H162 3484   6.679   7.512   6.602  0.9939  0.2024  0.5518
   12MOL   H163 3485   6.538   7.418   6.630 -0.8942  1.8791  2.2588
   12MOL   H164 3486   7.074   7.135   6.414 -1.3454 -0.0618  0.7588
   12MOL   H165 3487   7.107   7.174   6.577 -1.3109  2.0968  2.1628
   12MOL   H166 3488   7.096   7.310   6.452 -0.9613  1.1177  0.8744
   12MOL   C167 3489   6.652   7.263   6.429  0.4500 -0.1217 -0.2825
   12MOL   C168 3490   6.645   7.385   6.321 -0.3325  0.3049  1.0031
   12MOL   C169 3491   6.514   7.468   6.334 -0.1994  0.0703 -0.2815
   12MOL   C170 3492   6.767   7.479   6.333  0.3768  0.2271  0.8944
   12MOL   O171 3493   6.749   7.603   6.353 -0.2456  0.3527 -0.4201
   12MOL   O172 3494   6.889   7.424   6.308 -0.1527  1.0389 -0.1281
   12MOL   C173 3495   6.995   7.513   6.295 -0.0087  0.8940 -0.4784
   12MOL   H174 3496   6.548   7.231   6.436  0.7756 -0.8052  1.6892
   12MOL   H175 3497   6.698   7.176   6.382 -1.2577  0.0512 -2.3513
   12MOL   H176 3498   6.511   7.540   6.417 -2.0146 -0.4294  0.1033
   12MOL   H177 3499   6.490   7.528   6.246 -2.5464  1.6399  1.3654
   12MOL   H178 3500   6.426   7.407   6.347 -0.3274  0.8300  2.8537
   12MOL   H179 3501   7.002   7.582   6.380  0.3859 -1.0672  1.1137
   12MOL   H180 3502   6.973   7.570   6.205  0.1917  1.4761 -0.1625
   12MOL   H181 3503   7.093   7.468   6.284 -0.5231 -1.0939  2.4995
   12MOL   C182 3504   6.659   7.315   6.173  0.1960 -0.9248 -0.4910
   12MOL   C183 3505   6.564   7.212   6.109 -0.3150  0.3051  0.3898
   12MOL   C184 3506   6.533   7.079   6.180  0.1078 -0.3510 -0.2592
   12MOL   C185 3507   6.424   7.284   6.091  0.2394  0.0381 -0.5170
   12MOL   O186 3508   6.322   7.218   6.110  0.2278 -0.1264 -0.0123
   12MOL   O187 3509   6.427   7.401   6.029 -0.4349  0.0449  0.6821
   12MOL   C188 3510   6.311   7.485   6.013 -0.6400  0.5026 -0.2161
   12MOL   H189 3511   6.754   7.261   6.165  0.9275  0.3148 -0.3206
   12MOL   H190 3512   6.672   7.398   6.104 -0.2557 -0.0495  0.4677
   12MOL   H191 3513   6.487   7.091   6.278  0.6537  1.9921 -0.2492
   12MOL   H192 3514   6.478   7.016   6.111 -0.5316 -0.2266  0.1279
   12MOL   H193 3515   6.626   7.025   6.198 -0.3366 -0.7715  0.7980
   12MOL   H194 3516   6.227   7.416   6.005  0.1376 -0.7056  1.6986
   12MOL   H195 3517   6.331   7.548   5.926 -0.7873  1.3622  0.3804
   12MOL   H196 3518   6.300   7.544   6.103 -1.4457 -2.1435  1.4913
   12MOL   C197 3519   6.609   7.187   5.958  0.2539 -0.1792  0.4443
   12MOL   C198 3520   6.732   7.095   5.913  0.3803  0.9094 -0.1642
   12MOL   C199 3521   6.857   7.113   6.001  0.1518 -0.1911 -0.8649
   12MOL   C200 3522   6.683   6.945   5.920  0.2009 -0.0075  0.0811
   12MOL   O201 3523   6.748   6.865   5.992 -0.0207 -0.8902 -0.3569
   12MOL   O202 3524   6.568   6.908   5.848  0.1339  0.1356 -0.4030
   12MOL   C203 3525   6.527   6.772   5.851  0.3096 -0.1935  0.4674
   12MOL   H204 3526   6.633   7.289   5.927  0.1952 -0.3219 -0.0614
   12MOL   H205 3527   6.524   7.159   5.896 -1.0028  1.5907  1.2820
   12MOL   H206 3528   6.930   7.044   5.959 -0.3579 -2.1972  1.4271
   12MOL   H207 3529   6.897   7.214   6.008  1.7122 -0.9835  2.7722
   12MOL   H208 3530   6.846   7.077   6.103 -0.8725 -1.2064 -1.3128
   12MOL   H209 3531   6.440   6.769   5.786  1.0603  1.2152 -0.6025
   12MOL   H210 3532   6.487   6.725   5.942  0.3123 -0.1271  0.5022
   12MOL   H211 3533   6.601   6.699   5.819 -0.4876 -0.7323 -0.1689
   12MOL   C212 3534   6.756   7.124   5.759  0.6850 -0.4014  0.4099
   12MOL   C213 3535   6.874   7.216   5.697  0.3674  0.4461 -0.1877
   12MOL   C214 3536   6.838   7.237   5.549 -0.0221 -0.0319  0.3066
   12MOL   C215 3537   6.860   7.356   5.761 -0.4359 -0.2689 -0.2592
   12MOL   O216 3538   6.763   7.431   5.742 -0.3395  0.6024  0.4232
   12MOL   O217 3539   6.965   7.389   5.849  0.5243 -0.4133  0.2218
   12MOL   C218 3540   6.963   7.510   5.916  0.6903  0.0950  0.1084
   12MOL   H219 3541   6.669   7.171   5.713 -0.4224 -0.5628  2.2701
   12MOL   H220 3542   6.773   7.034   5.700 -0.7293  0.0087 -0.6486
   12MOL   H221 3543   6.918   7.276   5.486 -0.8987  0.4852 -0.5054
   12MOL   H222 3544   6.816   7.139   5.506 -0.0607 -0.2787  0.8737
   12MOL   H223 3545   6.749   7.297   5.531 -0.5532 -1.1276 -0.7485
   12MOL   H224 3546   6.983   7.595   5.850 -0.2180  0.8459  0.7854
   12MOL   H225 3547   7.048   7.507   5.984  0.3893 -0.0602  0.4800
   12MOL   H226 3548   6.871   7.524   5.973 -0.9778 -2.6076 -1.7702
   12MOL   C227 3549   7.025   7.163   5.702  0.0643 -0.5772  0.3004
   12MOL   C228 3550   7.087   7.028   5.640  0.7478 -0.1739 -0.1166
   12MOL   C229 3551   6.986   6.914   5.662 -0.4290  0.0768  0.6014
   12MOL   C230 3552   7.106   7.039   5.488  0.0330  0.1520 -0.1281
   12MOL   O231 3553   7.099   7.144   5.425  0.3569  0.2152 -0.5859
   12MOL   O232 3554   7.132   6.921   5.434  0.7874  0.3617 -0.3484
   12MOL   C233 3555   7.159   6.906   5.298  0.0228 -0.0542  0.3622
   12MOL   H234 3556   7.056   7.169   5.806 -0.2250  0.5467  0.3227
   12MOL   H235 3557   7.077   7.246   5.656 -0.8608 -0.1065  0.0819
   12MOL   H236 3558   6.905   6.913   5.589 -1.6375 -1.5313  1.9217
   12MOL   H237 3559   7.039   6.819   5.650  2.5960  1.9414 -1.5798
   12MOL   H238 3560   6.948   6.903   5.763  0.2241 -0.1675  0.8253
   12MOL   H239 3561   7.261   6.936   5.278 -0.3417  0.3721 -0.9166
   12MOL   H240 3562   7.084   6.954   5.235 -1.2221 -0.1555  1.7259
   12MOL   H241 3563   7.148   6.802   5.265 -1.9685  0.6299 -1.2539
   12MOL   C242 3564   7.221   6.999   5.719  0.9161  0.0383 -0.3945
   12MOL   C243 3565   7.364   7.066   5.689  0.6382  0.3221 -0.3696
   12MOL   C244 3566   7.420   7.029   5.553 -0.6109  0.5464 -0.2178
   12MOL   C245 3567   7.343   7.220   5.696  0.4626 -0.4145  0.5334
   12MOL   O246 3568   7.329   7.271   5.810  0.5612  0.1716  0.4885
   12MOL   O247 3569   7.341   7.278   5.577  0.7669 -0.4120  0.2446
   12MOL   C248 3570   7.314   7.416   5.562 -0.1661  0.3245 -0.1184
   12MOL   H249 3571   7.236   6.891   5.713 -0.2578 -0.2663  1.8283
   12MOL   H250 3572   7.201   7.001   5.826  1.3489 -0.3462 -0.3030
   12MOL   H251 3573   7.435   6.921   5.550  1.7686  0.8814 -1.2099
   12MOL   H252 3574   7.369   7.060   5.462 -2.1772  1.0154  0.8098
   12MOL   H253 3575   7.525   7.058   5.551 -0.5856  0.4346 -0.4674
   12MOL   H254 3576   7.368   7.483   5.628 -0.7332  1.2940 -0.6180
   12MOL   H255 3577   7.207   7.434   5.576 -0.2819  0.4522 -1.1187
   12MOL   H256 3578   7.333   7.450   5.460  0.5045 -1.7186 -0.7003
   12MOL   C257 3579   7.457   7.018   5.806 -0.4001  0.1958 -0.1212
   12MOL   C258 3580   7.542   6.884   5.812 -0.0969 -0.7210  0.1776
   12MOL   C259 3581   7.455   6.763   5.787  0.1409  0.0788  0.0288
   12MOL   C260 3582   7.657   6.890   5.710 -0.3049 -0.2195  0.6511
   12MOL   O261 3583   7.732   6.988   5.694 -0.4334 -0.3080 -0.2808
   12MOL   O262 3584   7.695   6.769   5.666  0.0773  0.1897  0.5128
   12MOL   C263 3585   7.795   6.762   5.563 -0.1312 -0.0839 -0.4053
   12MOL   H264 3586   7.398   7.020   5.898  1.4449  3.0991  1.0869
   12MOL   H265 3587   7.524   7.103   5.822  0.0178 -0.8466  4.3794
   12MOL   H266 3588   7.402   6.760   5.692  0.1600  2.2643 -0.0584
   12MOL   H267 3589   7.503   6.665   5.801  0.1452  0.2983  1.6775
   12MOL   H268 3590   7.383   6.756   5.868 -0.1785  0.4411 -0.2255
   12MOL   H269 3591   0.017   6.785   5.601 -1.4529  0.6506  2.8486
   12MOL   H270 3592   7.775   6.828   5.479  1.3313  0.2391 -0.5061
   12MOL   H271 3593   7.800   6.658   5.531  2.6114 -0.4104  0.8765
   12MOL   C272 3594   7.600   6.883   5.957 -0.2788  0.5514 -0.8239
   12MOL   C273 3595   7.720   6.780   6.011  0.3418 -1.0321 -0.6997
   12MOL   C274 3596   7.691   6.633   5.984  0.5157 -0.1215 -0.6892
   12MOL   C275 3597   7.856   6.823   5.951 -0.2613 -0.6202  0.9287
   12MOL   O276 3598   0.056   6.745   5.902 -0.2686 -0.1973 -0.2275
   12MOL   O277 3599   0.006   6.952   5.984 -0.4190  0.1155  0.1758
   12MOL   C278 3600   0.122   7.020   5.946 -0.5034 -0.4996 -0.5293
   12MOL   H279 3601   7.517   6.870   6.026  0.7535  2.1722  0.7527
   12MOL   H280 3602   7.621   6.986   5.986 -0.0382 -0.3628  2.4337
   12MOL   H281 3603   7.707   6.599   5.881 -0.7179 -1.2193 -0.5312
   12MOL   H282 3604   7.754   6.554   6.026  1.7890  0.8047 -0.8271
   12MOL   H283 3605   7.590   6.604   6.012  0.9038 -0.2409  0.5958
   12MOL   H284 3606   0.175   6.972   5.864 -0.9328 -2.3127  0.2308
   12MOL   H285 3607   0.188   7.048   6.028 -0.5365 -3.2284  0.4834
   12MOL   H286 3608   0.097   7.109   5.888  1.2287  0.3017 -0.0929
   12MOL   C287 3609   7.730   6.800   6.168  0.1807  0.3236  0.0279
   12MOL   C288 3610   7.857   6.757   6.256  0.2654  0.6253 -0.3241
   12MOL   C289 3611   7.826   6.780   6.402 -0.7924 -0.5109 -0.3767
   12MOL   C290 3612   0.015   6.608   6.246  0.0657  0.3904 -0.1988
   12MOL   O291 3613   0.120   6.562   6.203 -0.4635 -0.3579 -0.2169
   12MOL   O292 3614   7.788   6.528   6.277  0.0912  0.1470  0.4758
   12MOL   C293 3615   7.795   6.389   6.244 -0.0739  0.7495  0.7139
   12MOL   H294 3616   7.649   6.743   6.215  1.3316 -0.7168  0.7735
   12MOL   H295 3617   7.720   6.905   6.193  2.0373 -0.1711  3.0352
   12MOL   H296 3618   7.724   6.758   6.433 -0.4402  1.7077  2.5750
   12MOL   H297 3619   0.021   6.730   6.466  0.5254  2.4065  0.5045
   12MOL   H298 3620   7.839   6.887   6.419 -2.0278 -0.0545 -2.1435
   12MOL   H299 3621   7.692   6.352   6.248  0.2733 -1.1240 -3.8719
   12MOL   H300 3622   7.870   6.331   6.297  0.2151 -1.6992 -2.2288
   12MOL   H301 3623   7.831   6.383   6.141 -0.3212 -2.5694  0.7612
   12MOL   H302 3624   0.061   6.822   6.225 -0.1763  1.4864  0.2760
   13MOL     C1 3625   0.707   1.303   0.246  0.5154 -0.5746  0.0527
   13MOL     C2 3626   0.572   1.238   0.278 -0.5967 -0.5894  0.0249
   13MOL     C3 3627   0.485   1.213   0.149 -0.1204 -0.4784 -0.4100
   13MOL     C4 3628   0.608   1.099   0.346  0.6633  0.1837  0.8588
   13MOL     O5 3629   0.604   1.089   0.467 -0.0831  0.7431  0.1295
   13MOL     O6 3630   0.655   1.009   0.257  0.3297 -0.4722  0.0713
   13MOL     C7 3631   0.715   0.891   0.306  0.2106 -0.0640 -0.6674
   13MOL     H8 3632   0.703   1.390   0.180 -1.6604  0.8169  1.9316
   13MOL     H9 3633   0.756   1.341   0.337  0.7533  0.1355 -0.3641
   13MOL    H10 3634   0.396   1.158   0.179  0.0015  1.1981  3.3663
   13MOL    H11 3635   0.457   1.302   0.093 -0.7528 -0.4992 -0.1333
   13MOL    H12 3636   0.529   1.145   0.077 -0.9482 -1.8654  0.3672
   13MOL    H13 3637   0.802   0.905   0.370  0.1655 -1.6274 -0.2491
   13MOL    H14 3638   0.749   0.818   0.233 -1.3793 -3.0006  1.4078
   13MOL    H15 3639   0.633   0.846   0.364  2.5856 -0.7266  2.2980
   13MOL    H16 3640   0.771   1.233   0.194  1.5200  0.8816 -0.7224
   13MOL    C17 3641   0.501   1.337   0.380  0.2067  0.1190  0.1957
   13MOL    C18 3642   0.349   1.366   0.397  0.1983  0.4190 -0.2411
   13MOL    C19 3643   0.284   1.426   0.267  0.3965  0.6285 -0.5113
   13MOL    C20 3644   0.261   1.239   0.416  0.0648  0.3913 -0.7232
   13MOL    O21 3645   0.303   1.121   0.423  0.3203 -0.6648 -0.5646
   13MOL    O22 3646   0.128   1.262   0.436 -0.2966 -0.7250  0.0258
   13MOL    C23 3647   0.040   1.156   0.459  0.0124  0.3354  0.7558
   13MOL    H24 3648   0.555   1.430   0.361  0.8671 -0.2747  0.1100
   13MOL    H25 3649   0.535   1.312   0.481 -0.1858 -0.0452  0.2867
   13MOL    H26 3650   0.205   1.496   0.292  1.6025  1.6370  0.5597
   13MOL    H27 3651   0.356   1.479   0.204 -0.3804 -0.5157 -2.4020
   13MOL    H28 3652   0.235   1.351   0.205 -0.1629 -0.1817  0.8881
   13MOL    H29 3653   7.817   1.192   0.438  0.7378  2.2182  0.4222
   13MOL    H30 3654   0.042   1.126   0.564 -0.3152 -3.3004 -0.2205
   13MOL    H31 3655   0.070   1.066   0.405 -0.8635  0.6158 -0.2103
   13MOL    C32 3656   0.334   1.481   0.511 -0.2979  0.0055 -0.1825
   13MOL    C33 3657   0.325   1.462   0.666 -0.0332 -0.6899  0.2135
   13MOL    C34 3658   0.201   1.377   0.712  0.1386  0.9082  0.2055
   13MOL    C35 3659   0.455   1.401   0.716 -0.3685 -0.5370 -0.4524
   13MOL    O36 3660   0.459   1.284   0.770 -0.0066 -0.1985  0.1058
   13MOL    O37 3661   0.555   1.480   0.696  0.7508  0.4129 -0.0150
   13MOL    C38 3662   0.684   1.451   0.770  0.4154  0.1703  0.1054
   13MOL    H39 3663   0.245   1.536   0.482  0.2058  0.8060 -0.2101
   13MOL    H40 3664   0.407   1.559   0.494  0.1410  0.2121  2.5021
   13MOL    H41 3665   0.118   1.400   0.645 -0.3940  1.7100  1.1271
   13MOL    H42 3666   0.216   1.269   0.707 -0.1705  0.8398  0.8334
   13MOL    H43 3667   0.172   1.378   0.817 -0.6394 -1.8599  0.0596
   13MOL    H44 3668   0.767   1.510   0.730  1.1143  0.5432  2.0696
   13MOL    H45 3669   0.705   1.347   0.746  1.2178  0.5960 -1.0768
   13MOL    H46 3670   0.666   1.466   0.876 -3.3679 -2.9477  0.0097
   13MOL    C47 3671   0.299   1.614   0.711 -0.1354 -0.2903  0.1298
   13MOL    C48 3672   0.260   1.660   0.856  0.3785 -0.5165  0.8103
   13MOL    C49 3673   0.103   1.661   0.844  0.6369  0.1720  0.2136
   13MOL    C50 3674   0.312   1.566   0.958  1.0055  0.3899  0.4093
   13MOL    O51 3675   0.237   1.495   1.024 -0.0974  0.0555 -0.2701
   13MOL    O52 3676   0.445   1.564   0.980 -0.2148 -0.2054  0.5959
   13MOL    C53 3677   0.498   1.496   1.087 -0.9488  0.5690 -1.0406
   13MOL    H54 3678   0.230   1.666   0.645 -0.5352 -0.4221  0.4454
   13MOL    H55 3679   0.390   1.669   0.684 -1.6637  1.6228 -1.2543
   13MOL    H56 3680   0.062   1.762   0.848 -1.8186 -0.8207  1.3916
   13MOL    H57 3681   0.070   1.608   0.754 -1.1915  3.6535 -1.2498
   13MOL    H58 3682   0.045   1.618   0.926 -0.0955 -1.0833 -0.9277
   13MOL    H59 3683   0.461   1.532   1.183 -1.5222  0.0595 -1.0673
   13MOL    H60 3684   0.606   1.509   1.083 -0.9404  0.3098 -1.7255
   13MOL    H61 3685   0.453   1.397   1.084  0.4310 -0.0652 -0.8761
   13MOL    C62 3686   0.327   1.795   0.886 -0.6354  0.2350 -0.7574
   13MOL    C63 3687   0.299   1.884   1.020  0.4684 -0.4430 -0.1401
   13MOL    C64 3688   0.168   1.855   1.099  0.3894 -0.5761  0.4715
   13MOL    C65 3689   0.422   1.858   1.119  0.4883 -0.4860  0.0578
   13MOL    O66 3690   0.409   1.789   1.229  0.0195 -0.8038  0.0760
   13MOL    O67 3691   0.537   1.915   1.075 -0.6401 -0.5442 -0.0900
   13MOL    C68 3692   0.664   1.882   1.137 -0.3717  0.7489  0.2793
   13MOL    H69 3693   0.310   1.865   0.803  1.2615 -0.1003 -1.4682
   13MOL    H70 3694   0.434   1.799   0.866 -0.4986  1.5542  0.1161
   13MOL    H71 3695   0.081   1.900   1.052  0.2893 -0.0271  1.1640
   13MOL    H72 3696   0.138   1.752   1.083  0.2367 -0.3007 -1.1054
   13MOL    H73 3697   0.167   1.887   1.204  0.1701  0.3330  0.1974
   13MOL    H74 3698   0.739   1.921   1.069 -0.9657  0.2543 -0.6638
   13MOL    H75 3699   0.672   1.774   1.147  1.5894  0.8673  0.1826
   13MOL    H76 3700   0.664   1.924   1.238  1.0261  0.1563  0.5259
   13MOL    C77 3701   0.296   2.034   0.971 -0.5793 -0.3374  0.1442
   13MOL    C78 3702   0.281   2.165   1.065 -0.2740  0.8492 -0.0262
   13MOL    C79 3703   0.389   2.165   1.180  0.2609  0.2126  0.1543
   13MOL    C80 3704   0.305   2.288   0.974 -0.2286  0.2462  0.6478
   13MOL    O81 3705   0.245   2.296   0.868  0.4096  0.1248 -0.4822
   13MOL    O82 3706   0.375   2.383   1.025  0.4413  0.0689  0.1815
   13MOL    C83 3707   0.358   2.516   0.996 -0.3665 -0.0160  0.4180
   13MOL    H84 3708   0.205   2.050   0.914  0.7525  0.7259 -1.7073
   13MOL    H85 3709   0.369   2.055   0.893  0.6277  0.2451  1.4103
   13MOL    H86 3710   0.492   2.146   1.150  0.8497  0.0828  2.2309
   13MOL    H87 3711   0.389   2.254   1.242 -0.2017  1.5914 -1.7579
   13MOL    H88 3712   0.364   2.077   1.240  0.2435 -0.3440 -0.6580
   13MOL    H89 3713   0.297   2.558   1.076 -0.2578  0.5229  0.2178
   13MOL    H90 3714   0.297   2.525   0.907  0.3288  1.2341  0.0549
   13MOL    H91 3715   0.445   2.576   0.969 -0.7788 -0.4865 -2.0179
   13MOL    C92 3716   0.135   2.176   1.134  0.2492  0.7157 -0.5849
   13MOL    C93 3717   0.058   2.297   1.193  0.2055 -0.1367 -0.0229
   13MOL    C94 3718   0.155   2.360   1.301 -0.4110  0.1587  0.5708
   13MOL    C95 3719   0.019   2.398   1.081  0.1489 -0.5151  0.3423
   13MOL    O96 3720   0.054   2.514   1.073 -1.0874  0.2694 -0.3427
   13MOL    O97 3721   7.816   2.344   0.977 -0.2600 -0.1950 -0.9899
   13MOL    C98 3722   7.787   2.426   0.869  0.9364  0.7555  0.0779
   13MOL    H99 3723   0.143   2.110   1.221 -2.3521  1.4909  0.2915
   13MOL   H100 3724   0.061   2.121   1.076  0.2487  0.4605 -0.3430
   13MOL   H101 3725   0.182   2.291   1.381  2.1446 -0.9585 -1.1828
   13MOL   H102 3726   0.251   2.392   1.259 -0.8182  0.1006 -0.4103
   13MOL   H103 3727   0.117   2.450   1.348 -1.0850  0.5351 -0.6623
   13MOL   H104 3728   7.731   2.368   0.796 -0.6389  1.2810  0.8190
   13MOL   H105 3729   7.871   2.479   0.824 -0.0226  1.1222 -1.3187
   13MOL   H106 3730   7.720   2.508   0.896 -1.7221 -1.2822 -0.1022
   13MOL   C107 3731   7.803   2.242   1.261  0.1424 -1.0178  0.2472
   13MOL   C108 3732   7.680   2.331   1.318 -0.0524 -0.6348 -0.3197
   13MOL   C109 3733   7.605   2.241   1.417 -0.6838 -0.2013  0.0973
   13MOL   C110 3734   7.739   2.452   1.398 -0.1928 -0.5945  0.6675
   13MOL   O111 3735   7.751   2.450   1.523 -0.8291  0.3900  0.7954
   13MOL   O112 3736   7.774   2.548   1.320  0.1484 -0.6161  0.4916
   13MOL   C113 3737   7.850   2.658   1.368 -0.0224  0.3294 -0.2084
   13MOL   H114 3738   7.847   2.195   1.349 -1.3362 -1.9822  0.4882
   13MOL   H115 3739   7.760   2.156   1.209 -1.8334 -1.7814  3.0019
   13MOL   H116 3740   7.674   2.182   1.477 -0.8348 -1.4105 -0.9003
   13MOL   H117 3741   7.528   2.286   1.481 -0.7426 -0.2313  0.0492
   13MOL   H118 3742   7.553   2.163   1.361 -3.5216 -0.0104  2.3439
   13MOL   H119 3743   7.793   2.740   1.412 -0.1426 -0.2941  0.7989
   13MOL   H120 3744   0.037   2.701   1.292 -1.9970  0.6654 -1.7626
   13MOL   H121 3745   0.040   2.636   1.450 -1.0872  1.9983  1.1501
   13MOL   C122 3746   7.591   2.390   1.195  0.0448 -0.1181  0.0599
   13MOL   C123 3747   7.448   2.447   1.208 -0.4155  0.2380  0.7143
   13MOL   C124 3748   7.424   2.523   1.075 -0.1582  0.3165  0.7407
   13MOL   C125 3749   7.332   2.332   1.215  0.1501  0.3375 -0.0273
   13MOL   O126 3750   7.256   2.302   1.121  0.0654 -0.1308 -0.4646
   13MOL   O127 3751   7.316   2.266   1.328 -0.5221 -0.5621 -0.0874
   13MOL   C128 3752   7.234   2.152   1.333 -0.4037 -0.2242 -0.5303
   13MOL   H129 3753   7.591   2.308   1.124  0.2649 -0.8665  0.9089
   13MOL   H130 3754   7.655   2.456   1.136  1.3110 -1.4567 -0.1032
   13MOL   H131 3755   7.469   2.462   0.997 -4.1352 -1.8165 -0.0051
   13MOL   H132 3756   7.318   2.539   1.055 -0.7352 -1.2982  2.3982
   13MOL   H133 3757   7.464   2.625   1.071 -0.5310  0.4554  0.5244
   13MOL   H134 3758   7.265   2.082   1.256  1.9739  0.9355 -0.6675
   13MOL   H135 3759   7.128   2.179   1.332 -0.6157 -1.0621 -1.0770
   13MOL   H136 3760   7.251   2.087   1.419 -0.6752 -0.2068 -0.4617
   13MOL   C137 3761   7.442   2.546   1.325  0.2418 -1.0961 -0.0887
   13MOL   C138 3762   7.314   2.616   1.387 -0.0161 -0.4062 -0.0737
   13MOL   C139 3763   7.217   2.663   1.278 -0.6140  0.0514  0.1815
   13MOL   C140 3764   7.237   2.509   1.472 -0.4710  0.3686 -0.0715
   13MOL   O141 3765   7.125   2.467   1.460  0.0773  0.4919  0.7216
   13MOL   O142 3766   7.310   2.463   1.579 -0.4644 -0.1115 -0.3557
   13MOL   C143 3767   7.263   2.363   1.678 -0.0543 -0.0066 -0.6896
   13MOL   H144 3768   7.500   2.632   1.291 -1.2151 -0.1739 -0.2844
   13MOL   H145 3769   7.497   2.508   1.410  0.1543 -1.6889 -0.2938
   13MOL   H146 3770   7.260   2.741   1.214  2.1348 -0.1906  1.6613
   13MOL   H147 3771   7.189   2.583   1.211 -0.0683  0.3958 -0.4704
   13MOL   H148 3772   7.130   2.699   1.332 -0.2775 -0.7047  1.2440
   13MOL   H149 3773   7.227   2.430   1.757  1.4233  0.3604 -0.3184
   13MOL   H150 3774   7.339   2.291   1.709  0.0367 -0.7892 -2.6862
   13MOL   H151 3775   7.173   2.314   1.639  0.4763 -3.0398  1.6883
   13MOL   C152 3776   7.362   2.733   1.482  0.0287 -0.3449 -0.0733
   13MOL   C153 3777   7.270   2.856   1.523 -0.0039 -0.0941 -0.3557
   13MOL   C154 3778   7.240   2.945   1.406 -0.0745 -0.3322  0.1568
   13MOL   C155 3779   7.141   2.810   1.592  0.0317  1.1373 -0.3640
   13MOL   O156 3780   7.030   2.838   1.540 -0.2353  0.2154 -0.6635
   13MOL   O157 3781   7.164   2.732   1.692 -0.7731 -0.2044  0.8062
   13MOL   C158 3782   7.055   2.666   1.756 -0.1195 -0.7887 -0.9861
   13MOL   H159 3783   7.443   2.783   1.429 -0.4636  0.5800  0.0212
   13MOL   H160 3784   7.405   2.685   1.569 -0.0458  1.3079  0.9041
   13MOL   H161 3785   7.331   2.954   1.347  0.9916 -1.4499  1.5928
   13MOL   H162 3786   7.162   2.908   1.341 -1.0011  0.9692  0.5228
   13MOL   H163 3787   7.212   3.046   1.436 -0.1688  0.1809 -1.6342
   13MOL   H164 3788   7.080   2.616   1.849 -2.2401  1.2667  0.7268
   13MOL   H165 3789   6.999   2.590   1.702 -4.4491  1.1378  0.5870
   13MOL   H166 3790   6.993   2.747   1.793  2.3782  0.7158  0.0287
   13MOL   C167 3791   7.348   2.933   1.631 -0.2464  0.2970  0.1619
   13MOL   C168 3792   7.499   2.985   1.639  0.0855 -0.1490  0.3533
   13MOL   C169 3793   7.596   2.866   1.679  0.3182 -0.4309 -0.7965
   13MOL   C170 3794   7.536   3.046   1.503 -0.5208  0.1182 -1.0404
   13MOL   O171 3795   7.480   3.139   1.457 -0.0234  0.0408 -0.2379
   13MOL   O172 3796   7.630   2.977   1.433  0.0953  0.3996  0.3935
   13MOL   C173 3797   7.632   3.018   1.290  0.7002  0.1547 -0.0165
   13MOL   H174 3798   7.321   2.886   1.726  0.5261  0.6774  0.5727
   13MOL   H175 3799   7.291   3.023   1.651  1.3498  1.4785 -0.5453
   13MOL   H176 3800   7.606   2.785   1.605 -0.9913 -1.7818  0.4677
   13MOL   H177 3801   7.696   2.903   1.702 -0.6745 -0.3479  3.6594
   13MOL   H178 3802   7.559   2.808   1.764  2.4661  1.1142  1.2296
   13MOL   H179 3803   7.684   2.936   1.239 -0.5158 -1.0420  0.6434
   13MOL   H180 3804   7.687   3.110   1.272 -1.2941  1.7640  1.8799
   13MOL   H181 3805   7.533   3.025   1.245  1.2471 -0.7306 -1.3896
   13MOL   C182 3806   7.495   3.088   1.756  1.2041  0.2496 -0.2176
   13MOL   C183 3807   7.624   3.152   1.819 -0.2611  0.1328  0.6995
   13MOL   C184 3808   7.728   3.180   1.712  0.3086 -0.6337 -0.4249
   13MOL   C185 3809   7.567   3.287   1.872  0.1796  0.1995  0.4498
   13MOL   O186 3810   7.594   3.397   1.826 -0.0632  0.1246 -0.4197
   13MOL   O187 3811   7.480   3.270   1.972  0.1951  0.0832 -0.6422
   13MOL   C188 3812   7.446   3.373   2.059 -0.5623 -0.0684  0.3962
   13MOL   H189 3813   7.450   3.028   1.836 -0.9762 -0.1530 -1.6959
   13MOL   H190 3814   7.427   3.168   1.726  0.4496 -1.1819 -2.4846
   13MOL   H191 3815   7.782   3.089   1.685 -0.9832 -1.7944  0.8934
   13MOL   H192 3816   7.685   3.217   1.619 -1.0551 -0.3657  0.3133
   13MOL   H193 3817   7.801   3.247   1.757  1.3661 -1.4573 -0.8782
   13MOL   H194 3818   7.340   3.394   2.044 -0.8476 -1.0842  1.0029
   13MOL   H195 3819   7.518   3.454   2.053 -2.3372  1.5135 -0.2174
   13MOL   H196 3820   7.465   3.326   2.155 -1.9441  0.5121  0.9668
   13MOL   C197 3821   7.682   3.062   1.944  0.5816  0.2991 -0.5156
   13MOL   C198 3822   7.828   3.078   1.996 -0.2943  0.4550 -0.0597
   13MOL   C199 3823   7.834   2.985   2.117 -0.2990 -0.9798 -0.0631
   13MOL   C200 3824   0.059   3.028   1.891  0.8587  0.1039  1.0724
   13MOL   O201 3825   0.145   3.108   1.850 -0.4589  0.3618  0.5998
   13MOL   O202 3826   0.035   2.908   1.825 -0.4025  0.5220  0.0102
   13MOL   C203 3827   0.132   2.871   1.729  0.1974  0.4598  0.0960
   13MOL   H204 3828   7.662   2.959   1.914  1.7084  0.7901 -3.1243
   13MOL   H205 3829   7.610   3.072   2.025  1.0271  0.9748 -0.1967
   13MOL   H206 3830   7.801   2.889   2.077  0.9202 -0.6091 -2.0404
   13MOL   H207 3831   0.059   2.992   2.152  0.9668  0.5825 -3.8235
   13MOL   H208 3832   7.771   3.018   2.200 -1.0896  0.2976 -1.1331
   13MOL   H209 3833   0.218   2.824   1.778  1.9551  2.0171 -1.3987
   13MOL   H210 3834   0.166   2.942   1.653  0.2399  0.5568  0.2056
   13MOL   H211 3835   0.099   2.788   1.667  1.7925  0.8446 -1.3276
   13MOL   C212 3836   7.851   3.227   2.046 -0.4539  0.5228 -0.6712
   13MOL   C213 3837   0.075   3.298   2.141 -0.1136  0.4185 -0.4506
   13MOL   C214 3838   0.220   3.278   2.088 -0.1511 -0.2519  0.6471
   13MOL   C215 3839   0.050   3.450   2.138 -0.1626 -0.2872 -0.0058
   13MOL   O216 3840   0.135   3.532   2.122  0.0229 -0.5579 -0.8110
   13MOL   O217 3841   7.801   3.481   2.173  0.0798  0.0013  0.0571
   13MOL   C218 3842   7.752   3.612   2.151 -0.3331  0.3466  0.1068
   13MOL   H219 3843   7.750   3.250   2.082 -1.0954 -1.1759 -1.3176
   13MOL   H220 3844   7.862   3.282   1.952 -1.9914 -0.9738 -1.7584
   13MOL   H221 3845   0.290   3.334   2.151 -0.1534  0.3069  0.1561
   13MOL   H222 3846   0.237   3.171   2.093  0.2420 -0.2180  0.0691
   13MOL   H223 3847   0.233   3.315   1.987 -2.9788 -0.1899  0.2703
   13MOL   H224 3848   7.645   3.608   2.129 -0.3186  0.7647 -0.0488
   13MOL   H225 3849   7.795   3.657   2.061  2.4383 -1.0447  0.6916
   13MOL   H226 3850   7.784   3.673   2.235  1.6852  1.9588 -1.7651
   13MOL   C227 3851   0.074   3.252   2.290  0.3838  0.5633  0.4933
   13MOL   C228 3852   0.183   3.285   2.401 -0.0173  0.5252  0.6094
   13MOL   C229 3853   0.223   3.432   2.410 -0.2306  0.1038 -0.3235
   13MOL   C230 3854   0.118   3.249   2.532 -0.0370 -0.0764  0.0064
   13MOL   O231 3855   0.098   3.335   2.617 -0.9661  0.2769 -0.7086
   13MOL   O232 3856   0.082   3.121   2.551  0.4802  0.2729  0.3475
   13MOL   C233 3857   0.041   3.078   2.680 -0.3850 -0.0862  0.0491
   13MOL   H234 3858   0.063   3.144   2.296 -4.0977  0.8920  0.2535
   13MOL   H235 3859   7.856   3.290   2.326  0.6571  2.5674 -0.8072
   13MOL   H236 3860   0.131   3.490   2.407  0.0517  0.6123  0.5182
   13MOL   H237 3861   0.276   3.452   2.503  1.4626 -1.7686 -0.8269
   13MOL   H238 3862   0.290   3.473   2.334 -3.2009  0.0765 -3.0472
   13MOL   H239 3863   7.818   3.113   2.704 -0.5645 -1.5487  1.5293
   13MOL   H240 3864   0.107   3.120   2.756 -0.8234 -1.2811  1.1100
   13MOL   H241 3865   0.043   2.970   2.693 -0.9681  0.0291  1.2236
   13MOL   C242 3866   0.306   3.184   2.386 -0.6274  0.0414  0.0501
   13MOL   C243 3867   0.457   3.210   2.435 -0.1367 -0.2136  0.0938
   13MOL   C244 3868   0.533   3.071   2.413 -0.2541 -0.3339 -0.5610
   13MOL   C245 3869   0.527   3.313   2.342 -0.0493 -0.2285 -0.4697
   13MOL   O246 3870   0.558   3.425   2.385 -0.0979  1.0676 -0.7036
   13MOL   O247 3871   0.557   3.267   2.224  0.0727 -0.4303  0.6922
   13MOL   C248 3872   0.624   3.344   2.127  0.1788 -0.4601  0.1879
   13MOL   H249 3873   0.325   3.150   2.285 -1.0125 -1.6712  0.5415
   13MOL   H250 3874   0.276   3.085   2.418  1.6549 -0.4146  0.9296
   13MOL   H251 3875   0.639   3.084   2.435 -0.2755 -0.2653 -0.4992
   13MOL   H252 3876   0.507   3.000   2.491  3.1146 -1.1478 -0.0910
   13MOL   H253 3877   0.531   3.023   2.315 -0.0627 -1.5829  0.0343
   13MOL   H254 3878   0.561   3.399   2.056 -0.8436  1.4971  2.5098
   13MOL   H255 3879   0.688   3.273   2.076 -0.7656 -1.7189  0.7399
   13MOL   H256 3880   0.686   3.420   2.174 -0.3051  2.1692 -3.2249
   13MOL   C257 3881   0.457   3.265   2.589 -0.0071  0.2726  0.5488
   13MOL   C258 3882   0.550   3.231   2.713 -0.0705 -0.3223  0.3349
   13MOL   C259 3883   0.497   3.322   2.827  0.1398  0.2179  0.1965
   13MOL   C260 3884   0.519   3.081   2.750 -0.4869  0.2694  0.4102
   13MOL   O261 3885   0.611   2.998   2.751  0.2533 -0.2688 -0.2114
   13MOL   O262 3886   0.394   3.059   2.783 -0.7237 -0.0406 -0.2664
   13MOL   C263 3887   0.358   2.927   2.817  0.5745  0.7951  0.0472
   13MOL   H264 3888   0.354   3.251   2.624  0.2546 -3.5194 -0.0143
   13MOL   H265 3889   0.465   3.373   2.579  2.5742  0.0242 -0.2045
   13MOL   H266 3890   0.537   3.424   2.832 -1.0262  0.7111 -0.3600
   13MOL   H267 3891   0.390   3.343   2.829 -0.0187 -0.3266 -1.7723
   13MOL   H268 3892   0.524   3.281   2.924 -0.1141 -0.1064  0.1285
   13MOL   H269 3893   0.252   2.919   2.840  0.5477 -2.6467 -0.9751
   13MOL   H270 3894   0.412   2.890   2.905 -3.1687 -0.0861  2.0760
   13MOL   H271 3895   0.378   2.848   2.744  0.3917 -1.9741  2.8745
   13MOL   C272 3896   0.702   3.261   2.677 -0.2947  0.7676  0.9132
   13MOL   C273 3897   0.806   3.314   2.789 -0.0050 -0.0460  0.1752
   13MOL   C274 3898   0.781   3.462   2.834  0.3928  0.1974 -0.0659
   13MOL   C275 3899   0.819   3.227   2.915  0.1206 -0.4014 -0.5939
   13MOL   O276 3900   0.781   3.263   3.029  0.4482 -0.5715  0.5338
   13MOL   O277 3901   0.858   3.097   2.885  0.5845 -0.1979 -0.2047
   13MOL   C278 3902   0.831   3.001   2.992 -0.7070 -0.2142 -0.7397
   13MOL   H279 3903   0.707   3.337   2.599 -0.9634  1.5244  1.5913
   13MOL   H280 3904   0.744   3.172   2.630 -1.2456  1.8172 -2.0647
   13MOL   H281 3905   0.742   3.528   2.756  0.8253 -1.8415 -2.0318
   13MOL   H282 3906   0.730   3.478   2.930  0.5036 -0.1559  0.0517
   13MOL   H283 3907   0.879   3.505   2.850  1.3914 -1.5777 -1.3045
   13MOL   H284 3908   0.889   3.020   3.083 -2.1132 -1.7268  0.4987
   13MOL   H285 3909   0.860   2.904   2.952  1.6008  0.8629 -1.8194
   13MOL   H286 3910   0.730   2.996   3.032 -0.3906  4.0866  0.9186
   13MOL   C287 3911   0.942   3.315   2.720 -0.3799 -0.3352  0.6687
   13MOL   C288 3912   0.970   3.415   2.596  0.4218  0.6055  0.0063
   13MOL   C289 3913   1.091   3.505   2.610 -0.7536  0.3462 -0.8005
   13MOL   C290 3914   0.979   3.335   2.467  0.1365 -0.2656 -0.3947
   13MOL   O291 3915   0.894   3.347   2.376 -0.2365  0.9332  0.1270
   13MOL   O292 3916   1.081   3.253   2.459 -0.5364 -0.0061 -0.3992
   13MOL   C293 3917   1.096   3.161   2.357 -0.3550  0.2200  0.3706
   13MOL   H294 3918   0.969   3.214   2.691  1.7885  0.2634  0.4582
   13MOL   H295 3919   1.020   3.324   2.796  0.2519 -3.9410  0.5514
   13MOL   H296 3920   1.103   3.567   2.699 -0.4644 -0.1298 -0.5082
   13MOL   H297 3921   1.181   3.445   2.600 -0.5459  0.3762  0.7807
   13MOL   H298 3922   1.081   3.584   2.535 -1.5575  0.3107 -0.7417
   13MOL   H299 3923   1.011   3.161   2.289  0.2719  1.7291 -0.4369
   13MOL   H300 3924   1.113   3.062   2.400 -0.6466 -0.6261 -1.3930
   13MOL   H301 3925   1.184   3.183   2.296  0.0332 -0.4994  0.6637
   13MOL   H302 3926   0.887   3.481   2.571 -0.8469 -0.1433  2.1404
   14MOL     C1 3927   3.756   1.581   0.897  0.2113 -0.4149 -0.4866
   14MOL     C2 3928   3.888   1.659   0.922  0.2027 -0.1930 -0.6937
   14MOL     C3 3929   3.949   1.602   1.055  0.0548 -0.1948  0.2213
   14MOL     C4 3930   3.997   1.634   0.809 -0.7216  0.1887 -0.7440
   14MOL     O5 3931   3.983   1.556   0.717 -0.6947 -0.4171  0.1227
   14MOL     O6 3932   4.103   1.714   0.822 -0.6656  0.4540  0.5948
   14MOL     C7 3933   4.203   1.710   0.721  0.0831 -0.0353 -0.2343
   14MOL     H8 3934   3.681   1.617   0.968  1.8295 -0.4379  1.2950
   14MOL     H9 3935   3.718   1.579   0.795 -3.1418  1.4284  0.6626
   14MOL    H10 3936   4.029   1.669   1.085  0.8709 -0.9832 -0.1605
   14MOL    H11 3937   3.871   1.604   1.131 -1.5963  1.0758 -1.4705
   14MOL    H12 3938   3.993   1.502   1.053 -1.4905 -0.9607  2.4419
   14MOL    H13 3939   4.278   1.789   0.727  1.5165 -1.4229  0.6039
   14MOL    H14 3940   4.173   1.714   0.617  1.1730  0.7081 -0.5230
   14MOL    H15 3941   4.257   1.617   0.741 -1.6289 -1.3992 -1.7890
   14MOL    H16 3942   3.773   1.475   0.918 -1.3099 -0.6498 -0.4091
   14MOL    C17 3943   3.848   1.809   0.957 -0.4071 -0.4108 -0.2300
   14MOL    C18 3944   3.756   1.904   0.868  0.2774  0.5498  0.1849
   14MOL    C19 3945   3.782   2.038   0.931 -0.1005 -0.2761 -0.8030
   14MOL    C20 3946   3.809   1.909   0.718  0.6499 -0.2600 -0.3777
   14MOL    O21 3947   3.875   2.003   0.673  0.4237 -0.1759 -0.0919
   14MOL    O22 3948   3.751   1.816   0.636  0.0709  0.2167  0.5880
   14MOL    C23 3949   3.763   1.821   0.494  0.4318  0.7410  0.3152
   14MOL    H24 3950   3.940   1.866   0.960 -1.0290  0.8072 -2.8289
   14MOL    H25 3951   3.816   1.815   1.061 -0.3674 -0.3123 -0.2238
   14MOL    H26 3952   3.883   2.078   0.927 -0.0511 -0.1475  1.6079
   14MOL    H27 3953   3.738   2.108   0.859 -1.1691 -2.7433 -2.6354
   14MOL    H28 3954   3.735   2.064   1.025  1.3898 -0.6053  0.0388
   14MOL    H29 3955   3.669   1.801   0.443  0.5274  2.2570 -0.4801
   14MOL    H30 3956   3.836   1.745   0.467 -0.3238  0.5721 -1.2675
   14MOL    H31 3957   3.809   1.915   0.465 -0.0681  0.5902 -0.9677
   14MOL    C32 3958   3.602   1.872   0.877 -0.2781  0.0814  0.4220
   14MOL    C33 3959   3.483   1.965   0.841  0.2909 -0.3194 -0.4428
   14MOL    C34 3960   3.496   2.007   0.696 -1.3466  0.4589 -0.1040
   14MOL    C35 3961   3.361   1.878   0.860  0.1430  0.6472  0.6762
   14MOL    O36 3962   3.265   1.868   0.782  0.7382 -0.0352 -0.2601
   14MOL    O37 3963   3.357   1.819   0.989  0.1755  0.4381 -0.3344
   14MOL    C38 3964   3.251   1.728   1.016  0.3854 -0.6300  0.3579
   14MOL    H39 3965   3.598   1.851   0.983  2.3176  1.5503  0.8751
   14MOL    H40 3966   3.584   1.782   0.818 -1.9906 -2.1832  4.2701
   14MOL    H41 3967   3.593   2.042   0.661 -1.3445 -1.5611 -2.2625
   14MOL    H42 3968   3.480   1.915   0.639  0.3304 -1.1003  1.8616
   14MOL    H43 3969   3.423   2.078   0.657 -2.4060 -0.8699 -0.5744
   14MOL    H44 3970   3.153   1.747   0.971  0.8570  0.4105 -0.2502
   14MOL    H45 3971   3.237   1.710   1.122  0.4628  3.0573  1.0273
   14MOL    H46 3972   3.275   1.629   0.977  1.3765  0.6139 -2.3176
   14MOL    C47 3973   3.474   2.087   0.937 -0.0099  0.2196  0.7605
   14MOL    C48 3974   3.345   2.179   0.969 -0.6659 -0.4987 -0.5085
   14MOL    C49 3975   3.289   2.213   0.827 -0.2181 -0.6904  0.1656
   14MOL    C50 3976   3.241   2.105   1.061  0.1027 -0.2000 -0.2905
   14MOL    O51 3977   3.275   2.044   1.162 -0.0897 -0.1992  0.5146
   14MOL    O52 3978   3.116   2.112   1.013  0.0749 -0.0882  0.3737
   14MOL    C53 3979   3.018   2.046   1.086  0.1934 -0.6088  0.0182
   14MOL    H54 3980   3.546   2.161   0.901  2.1052 -2.8585 -1.6016
   14MOL    H55 3981   3.513   2.047   1.031  0.7941 -1.5741 -0.3143
   14MOL    H56 3982   3.241   2.127   0.780 -1.1307  0.3824 -0.9036
   14MOL    H57 3983   3.202   2.279   0.827 -1.1177 -1.7625 -3.0124
   14MOL    H58 3984   3.358   2.254   0.753 -2.2442  2.2759 -0.2033
   14MOL    H59 3985   3.059   1.976   1.159  1.5313 -1.4535 -1.5279
   14MOL    H60 3986   2.943   2.004   1.018  0.4582 -0.6611 -0.2419
   14MOL    H61 3987   2.980   2.125   1.151  2.0065 -0.4455  0.9027
   14MOL    C62 3988   3.394   2.311   1.040  0.0393  0.1768  0.2263
   14MOL    C63 3989   3.314   2.422   1.116  0.1081 -0.9613  0.8603
   14MOL    C64 3990   3.184   2.448   1.027 -0.0263  0.1617 -0.1981
   14MOL    C65 3991   3.273   2.367   1.258 -0.2047 -0.0588  0.3927
   14MOL    O66 3992   3.155   2.372   1.301 -0.1943  0.4004  0.2826
   14MOL    O67 3993   3.378   2.310   1.333 -0.5426 -0.4758  1.0467
   14MOL    C68 3994   3.340   2.286   1.471 -0.8776 -0.0529  0.3245
   14MOL    H69 3995   3.447   2.359   0.958 -0.5001 -0.2575 -0.3730
   14MOL    H70 3996   3.476   2.276   1.104 -0.3626 -0.2536  0.5061
   14MOL    H71 3997   3.120   2.360   1.027 -0.7015  0.6450  0.1080
   14MOL    H72 3998   3.129   2.534   1.066 -2.0752  0.1984 -3.0140
   14MOL    H73 3999   3.198   2.485   0.925  2.4275  0.8851  0.3724
   14MOL    H74 4000   3.276   2.198   1.470 -0.6677 -0.2329  1.7887
   14MOL    H75 4001   3.295   2.364   1.533 -0.7128 -1.5392  2.3572
   14MOL    H76 4002   3.426   2.236   1.516 -1.0471 -0.4414  0.2182
   14MOL    C77 4003   3.386   2.560   1.126 -0.3962  0.9102 -0.0958
   14MOL    C78 4004   3.506   2.605   1.219  0.3196  0.1314 -0.3988
   14MOL    C79 4005   3.452   2.631   1.372  0.2396  0.3006  0.2498
   14MOL    C80 4006   3.619   2.501   1.234 -0.0547  0.5833  0.2394
   14MOL    O81 4007   3.651   2.444   1.342 -0.1315 -0.4108 -0.1352
   14MOL    O82 4008   3.675   2.467   1.112  1.0810  0.2527  0.6286
   14MOL    C83 4009   3.762   2.362   1.098  0.8791  0.1271  0.0718
   14MOL    H84 4010   3.308   2.636   1.139  1.1237  2.2295  1.5888
   14MOL    H85 4011   3.417   2.576   1.023 -1.7714  2.7741 -0.2526
   14MOL    H86 4012   3.392   2.549   1.410 -1.6378  1.2834 -0.5177
   14MOL    H87 4013   3.519   2.663   1.452  1.9999 -0.4212 -0.8950
   14MOL    H88 4014   3.379   2.711   1.356  1.4487  1.0948 -1.5436
   14MOL    H89 4015   3.715   2.271   1.135  1.6776 -0.0474  0.6825
   14MOL    H90 4016   3.847   2.399   1.155  0.9366  0.3926 -0.1860
   14MOL    H91 4017   3.794   2.350   0.994 -0.3624 -1.2407 -0.1656
   14MOL    C92 4018   3.562   2.736   1.155 -0.4888 -0.4321 -0.1406
   14MOL    C93 4019   3.695   2.809   1.204 -0.4504 -0.6244 -0.6175
   14MOL    C94 4020   3.698   2.812   1.355 -0.4406 -0.3926  0.2143
   14MOL    C95 4021   3.821   2.738   1.144 -0.2273 -0.3633 -0.3836
   14MOL    O96 4022   3.905   2.697   1.225 -0.6619  0.2841 -0.5072
   14MOL    O97 4023   3.834   2.740   1.003 -0.2969  0.1832 -0.2002
   14MOL    C98 4024   3.949   2.694   0.932 -0.0553  0.1432 -0.5676
   14MOL    H99 4025   3.471   2.793   1.176 -2.2595 -2.6373 -1.6909
   14MOL   H100 4026   3.578   2.721   1.049  0.6096  0.0011 -0.0374
   14MOL   H101 4027   3.622   2.872   1.405 -0.0914  1.4912 -1.4270
   14MOL   H102 4028   3.702   2.710   1.393  1.2251 -0.8347 -1.0928
   14MOL   H103 4029   3.782   2.868   1.396 -0.7601  0.0200  0.3110
   14MOL   H104 4030   3.948   2.735   0.831  3.5235 -3.4224 -2.2020
   14MOL   H105 4031   3.947   2.585   0.935  1.2594  0.1240 -0.2194
   14MOL   H106 4032   4.044   2.714   0.980 -0.0545  1.3249 -1.0519
   14MOL   C107 4033   3.717   2.958   1.148  0.0749 -0.4599  0.4332
   14MOL   C108 4034   3.637   3.085   1.187  0.3406 -0.7940 -0.5368
   14MOL   C109 4035   3.491   3.058   1.224 -0.5537 -0.6062 -0.3645
   14MOL   C110 4036   3.716   3.135   1.311 -0.6185 -0.0406 -0.0323
   14MOL   O111 4037   3.668   3.126   1.422 -0.4746  0.5188  0.0476
   14MOL   O112 4038   3.843   3.170   1.283 -0.3446  0.4106  0.1923
   14MOL   C113 4039   3.924   3.168   1.397 -0.3552 -0.4893  0.3291
   14MOL   H114 4040   3.681   2.938   1.047  0.8916 -0.3536  0.1201
   14MOL   H115 4041   3.823   2.981   1.136 -0.0409  1.0700  2.1188
   14MOL   H116 4042   3.442   3.005   1.143 -1.6246 -1.2216  0.6754
   14MOL   H117 4043   3.487   3.006   1.319  0.9925  0.8772  0.5435
   14MOL   H118 4044   3.433   3.150   1.229 -0.2564 -0.1880 -3.6425
   14MOL   H119 4045   4.025   3.202   1.372  0.0133 -2.0834 -0.4461
   14MOL   H120 4046   3.934   3.065   1.433  4.0283  0.3466  1.9425
   14MOL   H121 4047   3.878   3.224   1.479 -1.9867 -1.7167  0.2681
   14MOL   C122 4048   3.662   3.203   1.083 -0.0984 -0.4208  0.4795
   14MOL   C123 4049   3.599   3.352   1.085  0.3967 -0.5512 -0.3631
   14MOL   C124 4050   3.589   3.404   1.236 -0.0627 -0.0544  0.8051
   14MOL   C125 4051   3.707   3.441   1.005  0.3511 -0.8414  0.2020
   14MOL   O126 4052   3.780   3.519   1.063  0.3176 -0.0189  0.4874
   14MOL   O127 4053   3.712   3.406   0.874 -0.0583 -0.1252  0.4529
   14MOL   C128 4054   3.789   3.490   0.788  0.1093  0.2824 -0.2515
   14MOL   H129 4055   3.650   3.159   0.984  0.8048 -1.0887  0.6666
   14MOL   H130 4056   3.770   3.217   1.076 -0.1969  0.7466  1.2418
   14MOL   H131 4057   3.556   3.507   1.241 -0.2283 -0.0296 -0.7422
   14MOL   H132 4058   3.520   3.350   1.302 -2.5769  0.8544 -1.0436
   14MOL   H133 4059   3.689   3.396   1.279 -0.1472 -4.4948  0.4949
   14MOL   H134 4060   3.789   3.446   0.688  1.2897  1.2838 -0.7173
   14MOL   H135 4061   3.883   3.529   0.827  0.9891 -3.3544  1.4444
   14MOL   H136 4062   3.727   3.578   0.768  0.2173 -0.2144 -3.0706
   14MOL   C137 4063   3.466   3.354   1.014 -0.0902 -0.4391 -0.4178
   14MOL   C138 4064   3.375   3.482   1.004 -0.3565 -0.2956 -0.8392
   14MOL   C139 4065   3.443   3.627   0.973  0.7427 -0.0979 -0.8929
   14MOL   C140 4066   3.286   3.447   0.882 -0.0400  0.7519  0.2467
   14MOL   O141 4067   3.180   3.379   0.891  0.0090  0.2747 -0.0963
   14MOL   O142 4068   3.340   3.488   0.765  0.1566 -0.4959  0.1549
   14MOL   C143 4069   3.278   3.466   0.635  0.2008  0.2877 -0.6487
   14MOL   H144 4070   3.400   3.271   1.038  0.2320 -0.9742 -1.3305
   14MOL   H145 4071   3.484   3.328   0.909  1.0314  1.9089 -0.8393
   14MOL   H146 4072   3.376   3.702   0.932  0.3908 -0.4330 -0.9360
   14MOL   H147 4073   3.495   3.671   1.059 -1.2309 -1.0615  0.8524
   14MOL   H148 4074   3.523   3.625   0.899  3.0996 -1.0012  1.5848
   14MOL   H149 4075   3.303   3.367   0.598  1.8108 -0.1744  1.6394
   14MOL   H150 4076   3.306   3.541   0.560  1.4551 -0.3033 -0.7707
   14MOL   H151 4077   3.171   3.464   0.658  0.5611 -1.7174  0.9285
   14MOL   C152 4078   3.292   3.489   1.135  0.0440 -0.6499 -0.2880
   14MOL   C153 4079   3.206   3.613   1.183 -0.7620  0.0980  0.4753
   14MOL   C154 4080   3.303   3.705   1.269  0.3683  0.2165 -0.7015
   14MOL   C155 4081   3.156   3.701   1.066  0.3886  0.3911  0.4939
   14MOL   O156 4082   3.172   3.823   1.055  0.9901  0.0654 -0.1249
   14MOL   O157 4083   3.085   3.637   0.983 -0.2518 -0.2011  0.0772
   14MOL   C158 4084   3.015   3.704   0.878 -0.3299  0.1924  0.3416
   14MOL   H159 4085   3.342   3.445   1.221  0.6513  1.7059  0.6017
   14MOL   H160 4086   3.226   3.402   1.133 -0.2523 -0.5383  2.5937
   14MOL   H161 4087   3.236   3.776   1.318 -0.7184  1.9215 -4.4703
   14MOL   H162 4088   3.357   3.651   1.347  0.3554  0.4612 -0.5209
   14MOL   H163 4089   3.365   3.776   1.214 -0.2076  0.7488 -0.6642
   14MOL   H164 4090   2.948   3.629   0.836  0.1480  0.7090 -1.3775
   14MOL   H165 4091   3.081   3.730   0.795 -0.6135 -0.4871 -0.1005
   14MOL   H166 4092   2.960   3.789   0.919  0.4634 -0.0627  1.9679
   14MOL   C167 4093   3.095   3.567   1.291 -0.2709  0.0345 -0.3715
   14MOL   C168 4094   2.941   3.585   1.268  0.4068  0.8161  0.2561
   14MOL   C169 4095   2.914   3.740   1.259 -0.1518  0.6771 -0.0216
   14MOL   C170 4096   2.891   3.496   1.151 -0.4984 -0.4881 -0.0741
   14MOL   O171 4097   2.803   3.527   1.072  0.4640  0.5160  0.4601
   14MOL   O172 4098   2.954   3.385   1.139 -0.6325 -0.2212 -0.2753
   14MOL   C173 4099   2.902   3.296   1.042 -0.3488  0.0335 -0.6041
   14MOL   H174 4100   3.114   3.610   1.389 -0.6770 -1.1530  0.2369
   14MOL   H175 4101   3.115   3.460   1.300 -1.2593 -0.1925 -0.7972
   14MOL   H176 4102   2.875   3.764   1.161 -0.9666 -0.8187 -0.0662
   14MOL   H177 4103   2.838   3.778   1.328 -1.1303  1.3928 -1.4816
   14MOL   H178 4104   3.007   3.792   1.283  0.5336 -1.0339  1.0698
   14MOL   H179 4105   2.816   3.243   1.083  1.2460 -0.6460  2.0370
   14MOL   H180 4106   2.984   3.234   1.007  0.7846  1.6991 -0.9399
   14MOL   H181 4107   2.857   3.343   0.955 -0.1794 -2.6757 -2.1931
   14MOL   C182 4108   2.881   3.530   1.407  0.4663 -0.3885  0.4594
   14MOL   C183 4109   2.731   3.502   1.433  0.1153 -0.2760  0.1382
   14MOL   C184 4110   2.637   3.611   1.365  0.1207  0.3514 -0.2773
   14MOL   C185 4111   2.672   3.365   1.389 -0.0012  0.1242  0.4516
   14MOL   O186 4112   2.550   3.343   1.395  0.0424  0.5104 -0.3124
   14MOL   O187 4113   2.756   3.279   1.345  0.2009  0.9099 -0.3417
   14MOL   C188 4114   2.721   3.137   1.329  0.6912 -0.0276  0.3221
   14MOL   H189 4115   2.924   3.595   1.484 -1.2043 -0.2366  1.2924
   14MOL   H190 4116   2.939   3.439   1.425 -0.5434 -0.7807  1.8051
   14MOL   H191 4117   2.662   3.622   1.259  2.0049  0.2572  0.1448
   14MOL   H192 4118   2.532   3.582   1.369  0.6837 -1.6832  0.0453
   14MOL   H193 4119   2.639   3.709   1.412  0.8407 -0.0133  0.4610
   14MOL   H194 4120   2.617   3.106   1.330  0.5646  0.3893  1.7796
   14MOL   H195 4121   2.752   3.103   1.428 -0.4770  0.7047  0.9408
   14MOL   H196 4122   2.776   3.089   1.248 -0.3452  0.1981 -0.5269
   14MOL   C197 4123   2.693   3.521   1.590  0.0643 -0.1177 -0.1200
   14MOL   C198 4124   2.744   3.420   1.708  0.7250 -0.6795 -0.3156
   14MOL   C199 4125   2.660   3.294   1.716 -0.5556 -0.5356  0.0149
   14MOL   C200 4126   2.893   3.385   1.688  0.0071  1.0449  0.0918
   14MOL   O201 4127   2.930   3.284   1.629  1.3698  0.0347  0.4402
   14MOL   O202 4128   2.981   3.481   1.721  0.3995 -0.8151  0.1853
   14MOL   C203 4129   3.122   3.476   1.685 -0.5387 -0.3806  0.3671
   14MOL   H204 4130   2.585   3.529   1.595  0.0308 -0.1461 -0.7484
   14MOL   H205 4131   2.725   3.622   1.615  1.8433 -0.3814 -1.2131
   14MOL   H206 4132   2.686   3.218   1.790 -0.6605  0.4390  1.0511
   14MOL   H207 4133   2.560   3.334   1.731  0.5862  2.8137 -0.8688
   14MOL   H208 4134   2.652   3.239   1.622  2.9500 -2.3901  0.7053
   14MOL   H209 4135   3.159   3.383   1.727 -1.0683 -0.8115 -0.1276
   14MOL   H210 4136   3.183   3.560   1.720 -1.6199  0.8735 -0.6972
   14MOL   H211 4137   3.131   3.474   1.576 -2.5367  1.2312  0.1428
   14MOL   C212 4138   2.724   3.496   1.846 -0.6319  0.2791  0.0025
   14MOL   C213 4139   2.726   3.443   1.996  0.0531 -0.0233  0.1105
   14MOL   C214 4140   2.605   3.346   2.018  0.1500  0.4687 -0.1070
   14MOL   C215 4141   2.855   3.361   2.026  0.0834  0.3779 -0.2132
   14MOL   O216 4142   2.858   3.244   2.057  0.7166  0.0716 -0.3045
   14MOL   O217 4143   2.968   3.432   2.006 -0.3392 -0.3686  0.4207
   14MOL   C218 4144   3.097   3.364   2.012 -0.3385 -0.0551 -0.5510
   14MOL   H219 4145   2.632   3.554   1.843  1.2166  3.2275 -3.5328
   14MOL   H220 4146   2.780   3.589   1.835 -1.0937  0.3696 -1.6356
   14MOL   H221 4147   2.626   3.244   1.988 -0.9569  0.3735 -0.5905
   14MOL   H222 4148   2.564   3.351   2.119 -0.8675 -1.5188 -0.4085
   14MOL   H223 4149   2.518   3.375   1.958  0.6560 -1.1013 -1.6331
   14MOL   H224 4150   3.176   3.406   1.950 -0.7140 -0.7709 -1.5366
   14MOL   H225 4151   3.093   3.262   1.973  2.6876 -0.5893  0.3934
   14MOL   H226 4152   3.138   3.349   2.112  0.9178  1.2507 -0.8521
   14MOL   C227 4153   2.715   3.563   2.082  0.0939 -0.1620  0.1569
   14MOL   C228 4154   2.733   3.584   2.239  0.7007 -0.1320  0.0266
   14MOL   C229 4155   2.641   3.704   2.267 -0.2587 -0.1687  0.6685
   14MOL   C230 4156   2.681   3.472   2.327 -0.2864  0.1800  0.4931
   14MOL   O231 4157   2.603   3.496   2.421 -0.2650  0.1978 -0.0738
   14MOL   O232 4158   2.734   3.358   2.298  0.5746  0.0882  0.7274
   14MOL   C233 4159   2.712   3.244   2.376  0.6164 -0.4331 -0.1750
   14MOL   H234 4160   2.619   3.607   2.052 -0.4450 -1.0477  0.5545
   14MOL   H235 4161   2.778   3.641   2.039  2.6000 -1.4774  1.3682
   14MOL   H236 4162   2.660   3.800   2.219  2.2276  0.2878  2.4821
   14MOL   H237 4163   2.538   3.677   2.242 -0.4292 -1.2097  2.3619
   14MOL   H238 4164   2.651   3.737   2.370  1.2768  0.3006  0.3829
   14MOL   H239 4165   2.764   3.164   2.324  0.1322 -2.1681  1.9132
   14MOL   H240 4166   2.608   3.221   2.397  0.7578  0.6071  1.8350
   14MOL   H241 4167   2.763   3.257   2.472  0.1274 -0.5153  0.0963
   14MOL   C242 4168   2.887   3.610   2.263  0.2632  0.1897 -0.2420
   14MOL   C243 4169   2.946   3.697   2.375  0.9195  0.7163 -1.3078
   14MOL   C244 4170   3.095   3.687   2.360 -0.6141 -0.1015  0.2236
   14MOL   C245 4171   2.908   3.845   2.359  0.2912  0.9500  0.4386
   14MOL   O246 4172   2.835   3.900   2.442  0.1234  0.1489  0.4722
   14MOL   O247 4173   2.967   3.895   2.250  0.4465 -0.3790  0.1033
   14MOL   C248 4174   2.936   4.032   2.214 -0.5949 -0.1592  0.2175
   14MOL   H249 4175   2.920   3.651   2.168 -2.2836  0.3707 -1.0725
   14MOL   H250 4176   2.935   3.512   2.267 -1.8759 -1.0003 -2.4780
   14MOL   H251 4177   3.159   3.723   2.440  1.3825  0.0809 -1.4117
   14MOL   H252 4178   3.119   3.581   2.374 -1.8802 -0.3578  0.5961
   14MOL   H253 4179   3.131   3.720   2.263  0.8592  1.4212  1.2856
   14MOL   H254 4180   2.926   4.047   2.106 -0.3635  4.0048  0.6944
   14MOL   H255 4181   3.013   4.102   2.247  0.9604 -1.3745 -0.7345
   14MOL   H256 4182   2.852   4.069   2.272  0.7356  2.7593  0.3989
   14MOL   C257 4183   2.909   3.627   2.513  0.2647 -0.3948 -0.7140
   14MOL   C258 4184   2.995   3.652   2.645  0.1633  0.4897  0.0129
   14MOL   C259 4185   2.898   3.585   2.748 -0.3901 -0.9016 -0.5072
   14MOL   C260 4186   3.130   3.562   2.654  0.1029  0.0549  0.0265
   14MOL   O261 4187   3.140   3.451   2.595 -0.0766 -0.6078  0.4595
   14MOL   O262 4188   3.212   3.606   2.750  0.0861  0.4580 -0.2789
   14MOL   C263 4189   3.324   3.536   2.793  0.0656  0.0875  0.6109
   14MOL   H264 4190   2.912   3.520   2.494  1.7814 -0.3707 -0.6623
   14MOL   H265 4191   2.807   3.652   2.543  0.3155  0.4030 -1.1746
   14MOL   H266 4192   2.851   3.489   2.725 -0.1530 -1.4066  1.0499
   14MOL   H267 4193   2.947   3.574   2.845  0.6994 -0.1027 -0.9626
   14MOL   H268 4194   2.814   3.652   2.765 -1.3307 -1.0379 -4.2668
   14MOL   H269 4195   3.301   3.460   2.868  0.7638 -0.3947  0.3393
   14MOL   H270 4196   3.396   3.594   2.849 -0.3358 -0.0788  1.2980
   14MOL   H271 4197   3.385   3.490   2.715 -0.0791  1.8737 -0.5836
   14MOL   C272 4198   3.015   3.806   2.659  0.3731 -0.2187  0.0398
   14MOL   C273 4199   3.065   3.888   2.781 -0.6963  1.0534 -0.3064
   14MOL   C274 4200   3.009   3.837   2.921 -0.3371  0.5957  0.1297
   14MOL   C275 4201   3.213   3.896   2.782  0.4427  0.4337  0.2621
   14MOL   O276 4202   3.277   3.861   2.682  0.1269 -0.2827  0.5055
   14MOL   O277 4203   3.271   3.945   2.895 -0.0207  0.1576  0.1713
   14MOL   C278 4204   3.410   3.978   2.894 -0.2807 -0.1904  0.5783
   14MOL   H279 4205   2.914   3.842   2.639  0.6996  1.0745  0.6583
   14MOL   H280 4206   3.072   3.845   2.574 -1.9763  0.0332 -1.4477
   14MOL   H281 4207   3.048   3.742   2.956 -0.2380  0.7771  0.5216
   14MOL   H282 4208   3.020   3.917   2.995 -0.1511  1.2390 -0.5855
   14MOL   H283 4209   2.901   3.839   2.905 -0.4804 -1.5648  0.6806
   14MOL   H284 4210   3.463   3.885   2.914  0.9455  0.5031  0.5775
   14MOL   H285 4211   3.452   4.055   2.959 -0.0032 -0.2437  0.4602
   14MOL   H286 4212   3.439   4.001   2.791 -0.9892 -2.2677 -0.1058
   14MOL   C287 4213   3.019   4.040   2.756  0.1599 -0.1291  0.8899
   14MOL   C288 4214   3.092   4.118   2.636 -0.2917  0.8678  0.3425
   14MOL   C289 4215   2.992   4.183   2.542 -0.2260  0.3208 -0.0315
   14MOL   C290 4216   3.183   4.217   2.695 -0.1574 -0.5669 -0.3431
   14MOL   O291 4217   3.178   4.237   2.814 -0.8392 -0.1339  0.5360
   14MOL   O292 4218   3.267   4.277   2.605 -0.9426  0.2385  0.0366
   14MOL   C293 4219   3.368   4.367   2.648  0.1169 -0.1635  0.3590
   14MOL   H294 4220   3.018   4.088   2.853  1.1718  1.4346  0.1607
   14MOL   H295 4221   2.912   4.045   2.733  0.2695  0.0341  0.3905
   14MOL   H296 4222   2.938   4.102   2.492 -0.0407 -0.3809  0.8961
   14MOL   H297 4223   2.920   4.251   2.586 -0.0573  0.6763 -0.3071
   14MOL   H298 4224   3.047   4.233   2.462  0.1535 -0.4657 -0.2762
   14MOL   H299 4225   3.315   4.453   2.688 -1.2042 -0.5378 -0.5777
   14MOL   H300 4226   3.433   4.395   2.565  1.5873  1.3068  1.9613
   14MOL   H301 4227   3.438   4.321   2.717  0.5794  2.1125  1.4710
   14MOL   H302 4228   3.154   4.060   2.569 -1.9414 -0.6077  0.0599
   15MOL     C1 4229   7.579   3.294   3.060 -0.4186  0.2718 -0.7891
   15MOL     C2 4230   7.677   3.305   3.180  0.3595 -0.8953 -0.4191
   15MOL     C3 4231   7.809   3.372   3.130  0.6442  0.1232 -0.1083
   15MOL     C4 4232   7.611   3.382   3.296  0.3553  0.9796  0.2741
   15MOL     O5 4233   7.680   3.454   3.371  0.1274 -0.4421 -0.0322
   15MOL     O6 4234   7.478   3.348   3.322 -0.1001  0.1677  0.3333
   15MOL     C7 4235   7.425   3.419   3.436  0.7529 -0.2383  0.0585
   15MOL     H8 4236   7.621   3.234   2.979  3.0865  2.3991 -0.6867
   15MOL     H9 4237   7.485   3.253   3.096  0.4013  0.5938  1.8616
   15MOL    H10 4238   7.793   3.477   3.102 -1.1561  0.1164  0.8818
   15MOL    H11 4239   7.875   3.391   3.214 -1.1101 -0.9842  1.5462
   15MOL    H12 4240   7.869   3.324   3.053  1.8381  0.5264  0.5581
   15MOL    H13 4241   7.407   3.522   3.405  0.7267 -0.2007  0.1994
   15MOL    H14 4242   7.490   3.432   3.523 -0.2479 -0.6659  0.8859
   15MOL    H15 4243   7.329   3.372   3.459  1.7890 -3.0179 -1.1403
   15MOL    H16 4244   7.561   3.397   3.027  0.9291  1.0230  0.7501
   15MOL    C17 4245   7.710   3.158   3.225 -0.7746 -0.2589  0.1554
   15MOL    C18 4246   7.811   3.101   3.332  0.3662 -0.5558  0.3332
   15MOL    C19 4247   0.076   3.112   3.265 -0.0666  0.5766  0.0840
   15MOL    C20 4248   7.793   3.182   3.464 -0.2961  0.4178 -0.1176
   15MOL    O21 4249   7.679   3.192   3.521 -0.2116  0.1806  0.4440
   15MOL    O22 4250   0.033   3.220   3.508 -0.2086 -0.7559 -0.3602
   15MOL    C23 4251   0.030   3.287   3.629 -0.0110  0.5845 -1.1705
   15MOL    H24 4252   7.722   3.095   3.137  3.9079 -0.9021  1.1395
   15MOL    H25 4253   7.616   3.131   3.274 -0.6947 -0.2154  0.3334
   15MOL    H26 4254   0.152   3.055   3.318  0.6440  2.2938  0.9295
   15MOL    H27 4255   0.080   3.075   3.163 -3.1028 -3.1919  1.1998
   15MOL    H28 4256   0.122   3.211   3.264 -0.9059  0.9573 -1.6030
   15MOL    H29 4257   0.092   3.254   3.712 -0.8266 -0.1436 -0.8392
   15MOL    H30 4258   7.813   3.289   3.684  0.7783  1.3658  0.1835
   15MOL    H31 4259   0.024   3.395   3.613 -4.0042  0.4478 -1.1461
   15MOL    C32 4260   7.769   2.951   3.356  0.0681 -0.7488  0.2313
   15MOL    C33 4261   7.832   2.839   3.443 -0.2125 -0.1171  0.1331
   15MOL    C34 4262   0.059   2.768   3.345  0.1442 -0.3415  0.1415
   15MOL    C35 4263   0.022   2.895   3.574  0.3443  0.5270 -0.0763
   15MOL    O36 4264   0.145   2.903   3.579 -0.4617  0.0334  0.3209
   15MOL    O37 4265   7.822   2.941   3.674  0.5953  0.0379  0.0508
   15MOL    C38 4266   0.005   2.981   3.795 -0.3684  0.2870 -0.7107
   15MOL    H39 4267   7.756   2.916   3.253 -0.3511  4.2112 -1.5259
   15MOL    H40 4268   7.664   2.952   3.386  0.7383  0.9734  2.6205
   15MOL    H41 4269   0.117   2.687   3.388  2.5591  1.1090 -0.2883
   15MOL    H42 4270   0.019   2.738   3.248 -0.9896  0.6635  0.2911
   15MOL    H43 4271   0.137   2.837   3.311  0.3804  0.5881  2.4998
   15MOL    H44 4272   0.074   3.063   3.774 -2.4669  2.0232 -0.8917
   15MOL    H45 4273   0.063   2.902   3.844 -1.0740 -0.8116 -1.6169
   15MOL    H46 4274   7.807   3.026   3.859  0.7867  0.9644  0.2133
   15MOL    C47 4275   7.720   2.741   3.477 -0.3497  0.1586 -0.1879
   15MOL    C48 4276   7.737   2.585   3.519  0.0477  0.4591 -0.0938
   15MOL    C49 4277   7.748   2.506   3.388  0.1132 -0.0359  1.2540
   15MOL    C50 4278   7.852   2.561   3.613  0.2828 -0.4028 -0.3463
   15MOL    O51 4279   0.068   2.480   3.589  0.2607  0.0879 -0.2061
   15MOL    O52 4280   7.847   2.632   3.728  0.6606 -0.2856 -0.4279
   15MOL    C53 4281   0.083   2.621   3.813  0.4963 -0.0741 -0.2193
   15MOL    H54 4282   7.657   2.740   3.387  0.4708 -1.8470 -0.7700
   15MOL    H55 4283   7.643   2.793   3.534  0.0099  0.5371 -0.0529
   15MOL    H56 4284   7.663   2.521   3.321  1.8911  3.5203 -0.3243
   15MOL    H57 4285   7.845   2.517   3.340  0.1652 -0.2566  1.3104
   15MOL    H58 4286   7.746   2.402   3.421  0.0466  0.3377  2.4126
   15MOL    H59 4287   0.089   2.524   3.862 -0.5626 -0.4330 -0.7871
   15MOL    H60 4288   0.076   2.703   3.883  0.9468 -0.4270  0.2429
   15MOL    H61 4289   0.179   2.633   3.762  1.7129 -0.3850  1.9372
   15MOL    C62 4290   7.594   2.552   3.581 -0.3141  0.1321  0.1969
   15MOL    C63 4291   7.543   2.406   3.619  1.2657 -0.1508  0.4199
   15MOL    C64 4292   7.660   2.322   3.676 -0.2030 -0.2644 -0.3771
   15MOL    C65 4293   7.443   2.426   3.735  0.1800  0.5623  0.3834
   15MOL    O66 4294   7.463   2.384   3.848 -0.1275  0.0921 -0.4363
   15MOL    O67 4295   7.338   2.502   3.704 -0.1047  0.2635 -0.2671
   15MOL    C68 4296   7.243   2.521   3.803 -0.2466  0.7039  0.0866
   15MOL    H69 4297   7.521   2.603   3.518 -0.5659 -1.2019 -0.6037
   15MOL    H70 4298   7.598   2.615   3.670  0.3787 -1.4998  1.3513
   15MOL    H71 4299   7.705   2.375   3.760 -1.3826 -1.0571  0.7729
   15MOL    H72 4300   7.634   2.225   3.718  1.9556  0.2894  2.4046
   15MOL    H73 4301   7.746   2.297   3.614  1.4340 -3.0407  2.8888
   15MOL    H74 4302   7.178   2.603   3.769 -0.7636  0.5436  0.6872
   15MOL    H75 4303   7.286   2.549   3.899 -0.1927 -1.5100  0.7280
   15MOL    H76 4304   7.178   2.436   3.823  0.0635  0.8692  1.8659
   15MOL    C77 4305   7.471   2.340   3.481  1.0806  1.4752 -0.1938
   15MOL    C78 4306   7.370   2.216   3.485  0.2428 -0.3093  0.2042
   15MOL    C79 4307   7.427   2.115   3.586 -0.4126 -0.0377 -0.2852
   15MOL    C80 4308   7.230   2.272   3.522 -0.3340  0.1539  0.1424
   15MOL    O81 4309   7.178   2.373   3.470 -0.5897  0.0653  0.0812
   15MOL    O82 4310   7.168   2.187   3.610  0.3848  0.7104 -0.3114
   15MOL    C83 4311   7.042   2.210   3.673 -0.2194 -0.5254  0.7576
   15MOL    H84 4312   7.549   2.314   3.410  1.3937 -2.9508  1.6055
   15MOL    H85 4313   7.422   2.425   3.433 -0.7052  0.0398 -0.9703
   15MOL    H86 4314   7.428   2.152   3.688 -1.1047 -1.3804  0.2290
   15MOL    H87 4315   7.364   2.026   3.587 -1.0154  0.3819 -0.4652
   15MOL    H88 4316   7.527   2.085   3.553 -0.4463  2.5551 -2.8890
   15MOL    H89 4317   7.003   2.307   3.642  1.5060 -0.8801 -2.8532
   15MOL    H90 4318   7.050   2.194   3.780  0.2290  0.5178  0.8843
   15MOL    H91 4319   6.970   2.134   3.642 -0.7665  0.2542  0.0983
   15MOL    C92 4320   7.365   2.157   3.336 -0.0396  0.5318 -0.6483
   15MOL    C93 4321   7.271   2.039   3.281  0.4294 -0.3681  0.1781
   15MOL    C94 4322   7.297   1.908   3.363 -0.3372  0.4895 -0.2474
   15MOL    C95 4323   7.126   2.091   3.286  0.4266  0.1411 -0.2395
   15MOL    O96 4324   7.045   2.033   3.360 -0.2683  0.1009  0.3370
   15MOL    O97 4325   7.112   2.208   3.223 -0.0150 -0.2343 -0.1986
   15MOL    C98 4326   6.989   2.260   3.187  0.2026 -0.3015 -0.7478
   15MOL    H99 4327   7.469   2.133   3.310 -0.7340 -0.5864 -2.5560
   15MOL   H100 4328   7.342   2.247   3.279 -2.0139 -1.2807 -2.7710
   15MOL   H101 4329   7.402   1.894   3.388 -0.0925  0.7497 -1.1406
   15MOL   H102 4330   7.243   1.896   3.457 -2.5362 -0.4566 -1.5893
   15MOL   H103 4331   7.261   1.821   3.308  0.5084  0.6830 -1.1199
   15MOL   H104 4332   6.915   2.241   3.265 -1.0017 -1.4204 -2.1437
   15MOL   H105 4333   6.969   2.225   3.086  0.6063 -0.5108 -0.7566
   15MOL   H106 4334   7.007   2.368   3.184 -0.6335 -0.0819  1.2489
   15MOL   C107 4335   7.312   2.022   3.128  0.2914 -0.2994 -0.1796
   15MOL   C108 4336   7.256   1.919   3.028  0.1717 -0.0417 -0.2728
   15MOL   C109 4337   7.110   1.874   3.062  0.1956 -0.4343  0.0518
   15MOL   C110 4338   7.244   1.978   2.888  0.4492 -0.1339  0.0175
   15MOL   O111 4339   7.290   1.930   2.785  0.5740 -0.1867  0.1176
   15MOL   O112 4340   7.166   2.088   2.885  0.9230  0.0258 -0.6410
   15MOL   C113 4341   7.155   2.151   2.762  0.0295 -0.1893  0.1227
   15MOL   H114 4342   7.420   2.022   3.122  0.3014 -0.0231 -0.0176
   15MOL   H115 4343   7.299   2.121   3.082  0.6229 -0.2574 -0.1844
   15MOL   H116 4344   7.062   1.824   2.979  0.4620  0.4582 -0.6453
   15MOL   H117 4345   7.094   1.795   3.136 -0.0809  0.5129  1.0220
   15MOL   H118 4346   7.043   1.958   3.082  2.0307  1.3168 -1.0655
   15MOL   H119 4347   7.245   2.150   2.699 -0.1631  0.4292 -0.1725
   15MOL   H120 4348   7.120   2.253   2.774 -0.8619 -0.3265 -1.2398
   15MOL   H121 4349   7.079   2.103   2.700  1.5003 -3.2903  0.6512
   15MOL   C122 4350   7.339   1.786   3.026  0.4934 -0.0969 -0.9945
   15MOL   C123 4351   7.499   1.769   3.019 -0.2877 -0.2726  0.1756
   15MOL   C124 4352   7.515   1.623   2.959  0.1566  0.2109  0.4610
   15MOL   C125 4353   7.559   1.877   2.924 -0.1047  0.0609  0.2065
   15MOL   O126 4354   7.594   1.990   2.977 -0.7693  0.5315 -0.4251
   15MOL   O127 4355   7.578   1.840   2.795 -0.1672  0.2535  0.5103
   15MOL   C128 4356   7.636   1.931   2.708 -0.0428  0.3158  0.1099
   15MOL   H129 4357   7.293   1.743   2.938  0.7399  1.1985 -1.7686
   15MOL   H130 4358   7.314   1.720   3.109 -0.4909  0.5312 -0.7854
   15MOL   H131 4359   7.438   1.606   2.884 -1.3152  3.5927  1.0962
   15MOL   H132 4360   7.606   1.615   2.899 -0.7408 -1.4265 -0.7095
   15MOL   H133 4361   7.521   1.540   3.030  0.8670  0.7242  1.0142
   15MOL   H134 4362   7.647   1.890   2.607 -2.2633 -0.2860  0.0672
   15MOL   H135 4363   7.733   1.965   2.743  1.7404 -2.2296 -2.0994
   15MOL   H136 4364   7.564   2.012   2.699 -0.9459 -0.5520 -0.6798
   15MOL   C137 4365   7.557   1.760   3.163  0.3990 -0.4189 -0.6754
   15MOL   C138 4366   7.710   1.755   3.204 -0.3860  0.1447  0.3100
   15MOL   C139 4367   7.791   1.637   3.126  0.0774  0.3065 -0.9813
   15MOL   C140 4368   7.779   1.889   3.180 -0.7271  0.5334 -0.0149
   15MOL   O141 4369   7.870   1.889   3.095  0.6532  0.0453 -0.6007
   15MOL   O142 4370   7.726   1.995   3.248  0.1535  0.1384 -0.1368
   15MOL   C143 4371   7.769   2.127   3.227 -0.0031  0.3333  0.0912
   15MOL   H144 4372   7.506   1.675   3.207  1.3552 -0.1220  1.0427
   15MOL   H145 4373   7.507   1.837   3.222 -0.3373 -0.6937 -0.9392
   15MOL   H146 4374   0.021   1.645   3.111  0.0751 -1.5273 -2.1164
   15MOL   H147 4375   7.769   1.541   3.174  2.3304  1.0468  1.6738
   15MOL   H148 4376   7.762   1.615   3.023 -0.2760 -0.8277 -0.6530
   15MOL   H149 4377   7.841   2.141   3.307 -0.9560  0.3338  0.9688
   15MOL   H150 4378   7.685   2.195   3.243 -0.9388 -1.2090  2.1066
   15MOL   H151 4379   7.809   2.143   3.128  1.0617 -1.0015  0.2902
   15MOL   C152 4380   7.710   1.725   3.352  0.4304  0.3792  0.0427
   15MOL   C153 4381   7.834   1.693   3.448  0.3652  0.3137  0.3392
   15MOL   C154 4382   0.059   1.593   3.389 -0.1786  0.6396  0.6482
   15MOL   C155 4383   0.034   1.824   3.478  0.3311 -0.7946 -0.5574
   15MOL   O156 4384   0.145   1.857   3.431  0.8263 -0.0770  0.5165
   15MOL   O157 4385   7.841   1.909   3.564  0.2546 -0.0984 -0.6570
   15MOL   C158 4386   0.019   2.033   3.589 -0.3084 -1.0677 -0.4197
   15MOL   H159 4387   7.646   1.638   3.369 -0.7061  1.5407  1.9163
   15MOL   H160 4388   7.645   1.790   3.409 -2.8185 -1.9965 -0.8318
   15MOL   H161 4389   0.106   1.639   3.302  0.2805  2.2672  1.7316
   15MOL   H162 4390   0.133   1.574   3.466 -1.3504 -0.7392  1.4583
   15MOL   H163 4391   0.013   1.502   3.350 -0.8802  0.3669  2.0875
   15MOL   H164 4392   0.020   2.109   3.512  0.7656 -0.9034 -0.2499
   15MOL   H165 4393   0.124   2.012   3.614  0.5029 -1.1859 -3.7087
   15MOL   H166 4394   7.835   2.081   3.664 -3.5079 -1.5851 -2.6433
   15MOL   C167 4395   7.776   1.634   3.582 -0.0103 -0.2683 -0.3276
   15MOL   C168 4396   7.848   1.568   3.703 -0.2800  0.0799 -0.4610
   15MOL   C169 4397   0.005   1.419   3.673  0.4537 -0.4174  0.4077
   15MOL   C170 4398   0.103   1.644   3.732 -0.0805 -0.4155  0.8619
   15MOL   O171 4399   0.211   1.601   3.701 -0.6593 -0.2000 -0.7881
   15MOL   O172 4400   0.085   1.757   3.801  0.2068 -0.0960 -0.1819
   15MOL   C173 4401   0.190   1.830   3.852 -0.1387  0.4854  0.7266
   15MOL   H174 4402   7.702   1.558   3.557 -0.1691  0.1747 -1.2164
   15MOL   H175 4403   7.720   1.718   3.624  1.5242 -0.5292  2.4082
   15MOL   H176 4404   7.789   1.372   3.641 -0.1884 -0.6823  2.6286
   15MOL   H177 4405   0.068   1.425   3.584 -0.9154  1.2516 -0.4809
   15MOL   H178 4406   0.052   1.364   3.754 -1.1400  1.9760  3.0402
   15MOL   H179 4407   0.251   1.774   3.924  0.6303  0.0164 -0.2645
   15MOL   H180 4408   0.152   1.928   3.880 -2.3346  0.6389 -2.5446
   15MOL   H181 4409   0.258   1.844   3.768 -0.0995  2.4573  1.0702
   15MOL   C182 4410   7.762   1.565   3.846 -0.9385 -0.1519  0.3513
   15MOL   C183 4411   7.615   1.501   3.872 -0.4957 -0.7788 -0.1777
   15MOL   C184 4412   7.578   1.560   4.003  0.0453  0.6016 -0.4370
   15MOL   C185 4413   7.520   1.546   3.766 -0.4384 -0.4120  0.7428
   15MOL   O186 4414   7.472   1.473   3.682  0.6215 -0.5592  0.1375
   15MOL   O187 4415   7.507   1.681   3.772  0.4347  0.0212 -0.5021
   15MOL   C188 4416   7.426   1.746   3.674 -0.5656  0.3093  0.7273
   15MOL   H189 4417   7.748   1.669   3.877 -3.6619 -0.0815 -0.9794
   15MOL   H190 4418   7.836   1.526   3.915 -0.5229  0.8833  0.4895
   15MOL   H191 4419   7.469   1.555   4.008 -0.0008  1.6574 -0.1580
   15MOL   H192 4420   7.611   1.503   4.090  1.2145  1.4043 -0.3359
   15MOL   H193 4421   7.604   1.665   4.020  0.1625  0.5288 -0.1660
   15MOL   H194 4422   7.491   1.750   3.587 -2.0214  1.1442 -0.3578
   15MOL   H195 4423   7.394   1.847   3.700 -3.7805 -0.2439 -0.7446
   15MOL   H196 4424   7.336   1.688   3.650  0.3379 -0.5945 -0.5300
   15MOL   C197 4425   7.616   1.340   3.885  0.3327  0.2084  0.0628
   15MOL   C198 4426   7.512   1.234   3.948  0.3258  0.0892 -0.1503
   15MOL   C199 4427   7.474   1.271   4.088 -0.9055  0.9774  0.3195
   15MOL   C200 4428   7.381   1.230   3.864 -1.1984 -0.0576 -0.6986
   15MOL   O201 4429   7.273   1.262   3.903  0.0625  0.6951 -0.3472
   15MOL   O202 4430   7.409   1.191   3.738  0.5623 -0.2556 -0.3069
   15MOL   C203 4431   7.299   1.145   3.658  0.0554 -0.8246 -0.1357
   15MOL   H204 4432   7.705   1.337   3.947 -0.2482 -1.4597  0.8338
   15MOL   H205 4433   7.643   1.303   3.786 -2.0115  0.7035 -0.8094
   15MOL   H206 4434   7.400   1.203   4.129 -0.9972  1.2177  0.5586
   15MOL   H207 4435   7.565   1.279   4.149 -1.2462  0.3557  0.9151
   15MOL   H208 4436   7.422   1.366   4.100 -1.5881  0.3209  2.8742
   15MOL   H209 4437   7.319   1.082   3.570 -0.2582 -0.9534 -0.1146
   15MOL   H210 4438   7.230   1.224   3.629 -1.0551 -2.0899 -1.0455
   15MOL   H211 4439   7.244   1.076   3.722 -0.1534 -0.9125 -0.4100
   15MOL   C212 4440   7.579   1.092   3.942 -0.1744  0.4035  0.0381
   15MOL   C213 4441   7.550   0.966   4.037  0.6803 -0.3112  0.5696
   15MOL   C214 4442   7.600   1.006   4.179  0.4837  0.0745 -0.1477
   15MOL   C215 4443   7.395   0.935   4.052  0.2964  0.2216 -0.5020
   15MOL   O216 4444   7.316   0.976   3.969 -0.2192  0.1073  0.5621
   15MOL   O217 4445   7.374   0.864   4.155 -0.1080 -0.1527 -0.4080
   15MOL   C218 4446   7.243   0.821   4.181 -0.3024  0.1160 -0.0114
   15MOL   H219 4447   7.685   1.109   3.963 -0.1577 -1.8890  2.0914
   15MOL   H220 4448   7.571   1.060   3.839 -0.2799 -1.2749  0.5494
   15MOL   H221 4449   7.613   0.926   4.252  1.3056  1.7990  1.6472
   15MOL   H222 4450   7.694   1.061   4.181  0.1858  0.5640  0.5394
   15MOL   H223 4451   7.526   1.073   4.224 -0.3687 -0.7696 -0.2674
   15MOL   H224 4452   7.236   0.792   4.285  0.4220 -2.3073 -0.6207
   15MOL   H225 4453   7.208   0.744   4.112 -1.1452 -0.1671  0.7195
   15MOL   H226 4454   7.183   0.913   4.176 -0.3938  0.0357 -0.4690
   15MOL   C227 4455   7.636   0.842   4.000 -0.7597  1.1117  0.2851
   15MOL   C228 4456   7.631   0.762   3.863  0.0500 -0.8657 -0.7170
   15MOL   C229 4457   7.488   0.720   3.833  0.3583  0.1486 -0.5084
   15MOL   C230 4458   7.680   0.858   3.746  0.1423 -0.1948  0.1408
   15MOL   O231 4459   7.638   0.838   3.632  0.3474 -0.1693 -0.9377
   15MOL   O232 4460   7.768   0.954   3.778  0.0154  0.2143  0.3144
   15MOL   C233 4461   7.814   1.040   3.680  0.2272  0.1250 -0.1957
   15MOL   H234 4462   7.615   0.759   4.067 -0.5007  1.7797  1.2104
   15MOL   H235 4463   7.743   0.863   4.009 -0.5124  0.8847 -1.7634
   15MOL   H236 4464   7.436   0.683   3.921 -0.4392  0.1009 -0.9914
   15MOL   H237 4465   7.422   0.794   3.787 -1.4166 -0.9903  0.1452
   15MOL   H238 4466   7.474   0.647   3.753 -0.7715 -1.2360  0.9219
   15MOL   H239 4467   7.727   1.066   3.619 -0.0485 -0.0842  0.1104
   15MOL   H240 4468   0.019   0.994   3.625  0.1614  1.0338 -1.0839
   15MOL   H241 4469   7.854   1.133   3.719  0.6997  0.7529 -2.1272
   15MOL   C242 4470   7.705   0.622   3.861  0.1867  0.0895 -0.1364
   15MOL   C243 4471   7.858   0.603   3.904 -0.2208  0.8602  0.0297
   15MOL   C244 4472   0.072   0.712   3.852  0.5929  0.2679  0.3336
   15MOL   C245 4473   7.868   0.597   4.061 -0.3553 -0.6222  0.1662
   15MOL   O246 4474   7.811   0.505   4.124  0.5023 -0.0676  0.0169
   15MOL   O247 4475   0.054   0.697   4.118  0.3952  0.0443 -0.0325
   15MOL   C248 4476   0.055   0.703   4.257 -0.5072  0.4147 -0.3429
   15MOL   H249 4477   7.695   0.587   3.758  3.5719 -1.0648 -0.1144
   15MOL   H250 4478   7.646   0.553   3.922 -1.4503  1.0524 -0.6059
   15MOL   H251 4479   0.176   0.683   3.854  0.7251  0.6416 -0.8131
   15MOL   H252 4480   0.046   0.731   3.748  0.2501 -1.4775  0.0898
   15MOL   H253 4481   0.050   0.802   3.910 -0.2332  2.7503 -3.6186
   15MOL   H254 4482   0.084   0.803   4.292  0.3797  0.0543 -0.0236
   15MOL   H255 4483   0.127   0.627   4.287 -0.0940  1.3674  1.1956
   15MOL   H256 4484   7.838   0.681   4.305  0.5042 -1.7953  0.7191
   15MOL   C257 4485   0.026   0.474   3.839  0.2390 -0.0438  0.5717
   15MOL   C258 4486   0.138   0.376   3.882  0.2691  0.4952 -0.2479
   15MOL   C259 4487   0.266   0.446   3.927 -0.0797 -0.1687 -0.1653
   15MOL   C260 4488   0.085   0.279   3.987 -0.0215 -0.0548 -0.9431
   15MOL   O261 4489   7.855   0.227   3.973 -0.1398 -0.8871 -0.6482
   15MOL   O262 4490   0.164   0.258   4.097  0.6426  0.2786 -0.6898
   15MOL   C263 4491   0.107   0.185   4.210  0.8553 -0.3974  0.6473
   15MOL   H264 4492   0.038   0.507   3.735  2.3630  0.3726  0.9271
   15MOL   H265 4493   7.813   0.415   3.828 -1.0951  1.9220  0.9027
   15MOL   H266 4494   0.248   0.529   3.995 -1.9259  0.3526 -1.2717
   15MOL   H267 4495   0.343   0.382   3.971 -0.6401 -1.5816 -1.2103
   15MOL   H268 4496   0.314   0.491   3.840 -0.1184 -2.2078 -1.2866
   15MOL   H269 4497   0.157   0.196   4.306  0.8813 -0.9764  0.6971
   15MOL   H270 4498   0.089   0.079   4.190  1.0518 -0.3057 -0.0623
   15MOL   H271 4499   0.002   0.212   4.218  0.9213  0.4008 -0.9679
   15MOL   C272 4500   0.158   0.286   3.747  0.4622 -0.3180  0.0193
   15MOL   C273 4501   0.243   0.154   3.733  0.0113  0.2084 -0.4182
   15MOL   C274 4502   0.162   0.027   3.771  0.1155  0.6220 -0.3361
   15MOL   C275 4503   0.285   0.142   3.587  0.2680 -0.4797  0.1070
   15MOL   O276 4504   0.401   0.161   3.550 -0.0793  0.0183  0.3604
   15MOL   O277 4505   0.177   0.131   3.506  0.2664  0.1328  0.5398
   15MOL   C278 4506   0.194   0.112   3.368  0.1252 -0.5217 -0.5392
   15MOL   H279 4507   0.207   0.363   3.689 -1.6886  0.8096 -0.3313
   15MOL   H280 4508   0.061   0.278   3.698 -0.6229 -0.7592  2.1490
   15MOL   H281 4509   0.059   0.040   3.739 -1.1400 -1.3358  2.7461
   15MOL   H282 4510   0.195   7.816   3.716  1.1224  1.0416 -0.4326
   15MOL   H283 4511   0.153   0.016   3.879 -1.3236  0.7890 -0.4253
   15MOL   H284 4512   0.196   0.205   3.313  0.3417  1.3415  2.4853
   15MOL   H285 4513   0.112   0.043   3.346 -1.2288  0.4943  1.1270
   15MOL   H286 4514   0.278   0.045   3.350  0.2965 -0.0913 -1.3481
   15MOL   C287 4515   0.377   0.167   3.827  0.7205 -0.7148 -0.0987
   15MOL   C288 4516   0.472   0.046   3.834  0.4109  0.6263  0.2092
   15MOL   C289 4517   0.610   0.073   3.895  0.5102  0.2713  0.4699
   15MOL   C290 4518   0.419   7.800   3.898 -0.2168 -0.3263  0.5636
   15MOL   O291 4519   0.425   7.696   3.832  0.0002  0.6360  0.3835
   15MOL   O292 4520   0.364   7.819   4.011  0.0986  0.7075 -0.0889
   15MOL   C293 4521   0.291   7.711   4.064  0.7089 -0.6242 -0.3238
   15MOL   H294 4522   0.339   0.176   3.929 -1.4533  2.3492 -1.0961
   15MOL   H295 4523   0.425   0.260   3.795 -1.5274 -0.0553 -1.7067
   15MOL   H296 4524   0.686   0.008   3.852 -0.9971  0.2639 -2.2924
   15MOL   H297 4525   0.643   0.170   3.858 -2.1312  0.0904 -2.5469
   15MOL   H298 4526   0.617   0.068   4.004 -1.7777 -0.9520  0.6051
   15MOL   H299 4527   0.268   7.729   4.170  1.9543  0.0388 -0.1574
   15MOL   H300 4528   0.361   7.628   4.061  2.1182  0.3877  2.6412
   15MOL   H301 4529   0.194   7.713   4.015 -0.4725 -2.1285  1.8951
   15MOL   H302 4530   0.487   0.018   3.730  1.5213 -2.5877  1.1656
   16MOL     C1 4531   4.233   6.822   0.686  0.3455 -0.0957 -0.3345
   16MOL     C2 4532   4.091   6.802   0.732 -0.2719 -0.4784 -0.0361
   16MOL     C3 4533   4.081   6.821   0.882  0.2546 -0.4447 -0.0574
   16MOL     C4 4534   4.011   6.931   0.679  0.0346 -0.7314 -0.3803
   16MOL     O5 4535   4.052   7.024   0.613  0.5989  0.6145 -0.0288
   16MOL     O6 4536   3.888   6.926   0.723  0.5501 -0.1730 -0.1108
   16MOL     C7 4537   3.801   7.036   0.702  0.3438 -0.0426  0.5699
   16MOL     H8 4538   4.276   6.916   0.720 -0.8234 -0.4412  2.2663
   16MOL     H9 4539   4.298   6.755   0.742  1.5487  0.8142 -0.6348
   16MOL    H10 4540   4.153   6.760   0.937 -1.5263 -1.0557  1.6826
   16MOL    H11 4541   4.084   6.925   0.913 -1.0862 -0.9642  1.8971
   16MOL    H12 4542   3.984   6.784   0.916 -0.4068  0.9942 -0.3422
   16MOL    H13 4543   3.811   7.064   0.597 -0.5384  2.3933  1.0896
   16MOL    H14 4544   3.833   7.121   0.763 -1.4999  0.9387  0.1752
   16MOL    H15 4545   3.697   7.013   0.724  0.3658  2.3117  3.5538
   16MOL    H16 4546   4.248   6.811   0.579  0.9458 -0.7039 -0.1943
   16MOL    C17 4547   4.018   6.667   0.690 -0.1476 -1.0477 -0.7438
   16MOL    C18 4548   4.022   6.618   0.540  0.6456 -0.1177  0.1732
   16MOL    C19 4549   3.999   6.729   0.428  0.2956 -0.2126  0.1074
   16MOL    C20 4550   4.152   6.538   0.511  0.2225  0.3722 -0.1286
   16MOL    O21 4551   4.238   6.528   0.595  0.1740 -0.5885 -0.0419
   16MOL    O22 4552   4.166   6.484   0.388  0.3482 -0.0402 -0.1255
   16MOL    C23 4553   4.287   6.414   0.360  0.6401 -0.8643 -0.6411
   16MOL    H24 4554   3.917   6.674   0.729  1.2288  1.2954  2.6952
   16MOL    H25 4555   4.056   6.590   0.758  0.1425  1.0249  1.4916
   16MOL    H26 4556   3.968   6.689   0.331 -0.1784 -0.1430  0.2265
   16MOL    H27 4557   3.908   6.785   0.450  0.6222  0.2566  0.2567
   16MOL    H28 4558   4.076   6.806   0.424 -1.3427  1.6051  1.8918
   16MOL    H29 4559   4.324   6.356   0.444 -1.6655 -0.5567  0.6396
   16MOL    H30 4560   4.369   6.477   0.327  1.0606  0.0850  2.0998
   16MOL    H31 4561   4.280   6.348   0.273  0.2868 -2.0054  0.2472
   16MOL    C32 4562   3.895   6.524   0.515  0.0642 -0.2273 -0.2300
   16MOL    C33 4563   3.861   6.383   0.590  0.1143 -0.2104  0.7064
   16MOL    C34 4564   3.972   6.284   0.570 -0.9097  0.4475  0.3137
   16MOL    C35 4565   3.829   6.419   0.738  0.2772 -0.5500 -0.4533
   16MOL    O36 4566   3.907   6.377   0.826  0.0341 -0.2933  0.2675
   16MOL    O37 4567   3.735   6.514   0.752 -0.4270  0.1057  0.0449
   16MOL    C38 4568   3.710   6.573   0.879  0.6969  0.0961  0.2578
   16MOL    H39 4569   3.885   6.505   0.408 -2.0374  0.0800 -0.1046
   16MOL    H40 4570   3.808   6.589   0.524 -0.3274 -0.6916 -0.6125
   16MOL    H41 4571   3.949   6.184   0.609 -1.5484  1.5769  2.9690
   16MOL    H42 4572   3.982   6.276   0.462 -2.1249  1.0758  0.1508
   16MOL    H43 4573   4.071   6.305   0.611 -0.9944  2.8809 -0.6613
   16MOL    H44 4574   3.618   6.631   0.885 -0.3078 -1.2502 -1.7333
   16MOL    H45 4575   3.793   6.638   0.907  2.2464 -0.9813 -1.8123
   16MOL    H46 4576   3.698   6.493   0.952  1.2415  0.6922  1.0147
   16MOL    C47 4577   3.740   6.316   0.520 -0.2945 -0.1042  0.3476
   16MOL    C48 4578   3.691   6.166   0.561 -0.1212  0.0572 -0.3555
   16MOL    C49 4579   3.545   6.174   0.515 -0.0445 -0.5266  0.3619
   16MOL    C50 4580   3.768   6.063   0.469  0.6561  0.6542  0.2404
   16MOL    O51 4581   3.836   5.969   0.515  0.0463 -0.0543 -0.2398
   16MOL    O52 4582   3.732   6.084   0.341  0.2033 -0.1780 -0.1980
   16MOL    C53 4583   3.768   5.982   0.253 -0.6076  0.1562  0.9444
   16MOL    H54 4584   3.762   6.323   0.414  3.0008  0.4749  1.0112
   16MOL    H55 4585   3.663   6.392   0.531  0.3639  0.4515  1.2077
   16MOL    H56 4586   3.523   6.231   0.425 -2.8822 -1.1461  0.6235
   16MOL    H57 4587   3.519   6.075   0.478 -1.6168 -0.6219  1.6603
   16MOL    H58 4588   3.482   6.218   0.591  0.5760  0.0654  0.5359
   16MOL    H59 4589   3.876   5.965   0.253 -0.5525  0.3998 -0.4886
   16MOL    H60 4590   3.737   6.006   0.151 -0.6435 -0.9411  0.6973
   16MOL    H61 4591   3.722   5.888   0.282  2.4123 -0.8629  2.6723
   16MOL    C62 4592   3.701   6.135   0.717 -0.4715  0.6980 -0.0801
   16MOL    C63 4593   3.672   5.999   0.790 -0.1594 -0.1177  0.4712
   16MOL    C64 4594   3.563   5.918   0.715 -0.5082  0.7228  0.6821
   16MOL    C65 4595   3.799   5.915   0.800  0.1763 -0.4147  0.1570
   16MOL    O66 4596   3.790   5.791   0.798 -0.3490  0.4618 -0.1924
   16MOL    O67 4597   3.912   5.989   0.826 -0.2578  0.0212  0.1765
   16MOL    C68 4598   4.032   5.926   0.845 -0.0516  0.1994  0.0072
   16MOL    H69 4599   3.637   6.214   0.758  0.4928  0.6640  1.5369
   16MOL    H70 4600   3.796   6.164   0.761 -1.4473 -1.1901  3.5207
   16MOL    H71 4601   3.602   5.880   0.621  1.3158 -2.4242  2.6390
   16MOL    H72 4602   3.539   5.829   0.773 -0.5099  0.0052 -0.4108
   16MOL    H73 4603   3.471   5.970   0.687 -1.0550 -1.1861 -1.2105
   16MOL    H74 4604   4.077   5.899   0.750 -0.3207 -0.1256 -0.0266
   16MOL    H75 4605   4.016   5.835   0.902  0.1497  0.4589  0.4873
   16MOL    H76 4606   4.105   5.982   0.905 -0.1458  0.4726 -0.1346
   16MOL    C77 4607   3.641   6.044   0.942  0.0733 -0.1802  0.3460
   16MOL    C78 4608   3.494   6.048   0.994  0.6061  0.0532  0.0930
   16MOL    C79 4609   3.403   6.146   0.907 -0.0686 -0.0882  0.6436
   16MOL    C80 4610   3.439   5.904   0.997  0.3111  0.5721  0.1753
   16MOL    O81 4611   3.331   5.871   0.942  0.2698 -0.6504 -0.0972
   16MOL    O82 4612   3.504   5.832   1.088 -0.4647 -0.2737  0.0705
   16MOL    C83 4613   3.456   5.698   1.117  0.3330  0.2917 -0.1888
   16MOL    H84 4614   3.691   6.138   0.967  1.3443 -1.6462  3.7902
   16MOL    H85 4615   3.691   5.975   1.010  0.5403  0.9627  1.1876
   16MOL    H86 4616   3.413   6.247   0.946  0.8082  0.1968 -0.2967
   16MOL    H87 4617   3.431   6.148   0.801  5.3018 -0.7576  1.9003
   16MOL    H88 4618   3.296   6.125   0.916 -0.1351  0.2435  0.6604
   16MOL    H89 4619   3.397   5.650   1.038 -0.0135 -0.8377  0.7503
   16MOL    H90 4620   3.380   5.709   1.194  2.2311 -1.0408  1.9194
   16MOL    H91 4621   3.528   5.633   1.166  0.4940  0.0716 -0.7144
   16MOL    C92 4622   3.505   6.110   1.136 -0.3240  0.5173 -0.0519
   16MOL    C93 4623   3.387   6.134   1.235  0.2931  0.1270  0.1689
   16MOL    C94 4624   3.258   6.189   1.169 -0.3993  0.7082 -0.5374
   16MOL    C95 4625   3.353   6.006   1.309  0.3622 -0.4090 -0.4040
   16MOL    O96 4626   3.240   5.957   1.301  0.1000 -0.1558 -0.8829
   16MOL    O97 4627   3.448   5.959   1.389  0.0925  0.0925 -0.6491
   16MOL    C98 4628   3.425   5.838   1.456  0.5144 -0.0640  0.5551
   16MOL    H99 4629   3.560   6.204   1.128 -0.6349  0.9335  2.2819
   16MOL   H100 4630   3.587   6.056   1.184  2.2328  3.4034 -0.9582
   16MOL   H101 4631   3.216   6.118   1.098  2.3197 -1.3755 -0.1618
   16MOL   H102 4632   3.175   6.212   1.236  0.3998  0.6577  0.4840
   16MOL   H103 4633   3.270   6.283   1.114 -2.5285  1.2407 -0.1305
   16MOL   H104 4634   3.404   5.851   1.562  1.2001 -1.0524  0.8097
   16MOL   H105 4635   3.512   5.774   1.446  0.6932 -0.2068  2.8414
   16MOL   H106 4636   3.346   5.785   1.402 -0.4113  0.5308  1.2899
   16MOL   C107 4637   3.437   6.233   1.347 -0.3214 -0.6055 -0.0493
   16MOL   C108 4638   3.407   6.389   1.350  0.0223 -0.3512 -0.5806
   16MOL   C109 4639   3.466   6.458   1.223 -0.5379  0.7067 -0.2291
   16MOL   C110 4640   3.257   6.429   1.372  0.0448 -0.1301  0.3373
   16MOL   O111 4641   3.207   6.520   1.315  0.4002  0.8215  0.7763
   16MOL   O112 4642   3.200   6.350   1.468  0.2023 -0.1451  0.0182
   16MOL   C113 4643   3.071   6.376   1.517  0.2281  0.2058  0.0755
   16MOL   H114 4644   3.545   6.226   1.360 -0.1878  0.9543 -0.2557
   16MOL   H115 4645   3.393   6.195   1.440 -0.8748 -0.0996 -0.1000
   16MOL   H116 4646   3.423   6.416   1.132  0.2613  1.1703 -0.8208
   16MOL   H117 4647   3.461   6.567   1.231 -0.7440  0.8008 -1.5395
   16MOL   H118 4648   3.573   6.443   1.207 -0.6886 -0.4800 -0.1946
   16MOL   H119 4649   3.032   6.309   1.592 -1.7399  1.9381  0.6608
   16MOL   H120 4650   3.001   6.362   1.434  2.4910 -1.7178 -1.5734
   16MOL   H121 4651   3.053   6.474   1.561 -1.0587  1.4348 -3.0155
   16MOL   C122 4652   3.479   6.444   1.477 -0.4491 -0.1291 -0.7970
   16MOL   C123 4653   3.620   6.414   1.534 -0.3280  0.2169  0.2486
   16MOL   C124 4654   3.640   6.525   1.643 -0.4862  0.5944 -0.0006
   16MOL   C125 4655   3.621   6.274   1.603  0.1548 -0.8281  0.6034
   16MOL   O126 4656   3.567   6.249   1.706 -0.1092 -0.0878 -0.0139
   16MOL   O127 4657   3.681   6.178   1.527  0.6229 -0.4153  0.5246
   16MOL   C128 4658   3.685   6.037   1.556 -0.3633  0.2884  0.0022
   16MOL   H129 4659   3.414   6.416   1.559  0.5472 -0.7621 -0.2096
   16MOL   H130 4660   3.464   6.551   1.471  0.7627  0.2540  2.1702
   16MOL   H131 4661   3.666   6.623   1.602  1.2649 -0.0682 -0.5541
   16MOL   H132 4662   3.551   6.541   1.703  0.6819  2.5976  1.2323
   16MOL   H133 4663   3.714   6.503   1.720  0.0551 -1.2026 -0.9990
   16MOL   H134 4664   3.584   6.018   1.591 -0.0281  0.2727  0.9855
   16MOL   H135 4665   3.767   6.023   1.627 -1.3426  4.0624  1.9961
   16MOL   H136 4666   3.704   5.977   1.467  1.0144  0.8818 -0.1095
   16MOL   C137 4667   3.735   6.426   1.425 -0.9229 -0.6453  0.1843
   16MOL   C138 4668   3.893   6.453   1.468  0.0991  0.5300  0.1557
   16MOL   C139 4669   3.968   6.431   1.340 -0.2100  0.2470 -0.4137
   16MOL   C140 4670   3.895   6.605   1.500 -0.3915 -0.2383  0.5143
   16MOL   O141 4671   3.856   6.687   1.425 -0.2567 -0.3300  0.2436
   16MOL   O142 4672   3.943   6.634   1.630 -0.2268  0.1973 -0.2935
   16MOL   C143 4673   3.937   6.758   1.695 -0.2508  0.8123  0.2894
   16MOL   H144 4674   3.701   6.508   1.361  0.5954 -0.5901 -0.5582
   16MOL   H145 4675   3.719   6.344   1.355  1.1388 -1.2108  0.3689
   16MOL   H146 4676   4.074   6.450   1.358 -0.8950  1.4740  2.4160
   16MOL   H147 4677   3.971   6.326   1.309 -1.8941  0.2254 -0.5371
   16MOL   H148 4678   3.943   6.496   1.257  0.1306  1.1934  0.2214
   16MOL   H149 4679   3.834   6.783   1.722  0.1556  1.6698  1.0759
   16MOL   H150 4680   3.984   6.837   1.637  0.5132  1.7793  2.1657
   16MOL   H151 4681   3.993   6.756   1.789 -0.3457 -2.2069  0.3309
   16MOL   C152 4682   3.940   6.364   1.581 -0.4071 -0.1217  0.1991
   16MOL   C153 4683   4.085   6.343   1.645  0.3118 -0.5767 -0.2607
   16MOL   C154 4684   4.167   6.250   1.552 -0.0155  0.5615  0.3223
   16MOL   C155 4685   4.172   6.472   1.673 -0.0870  1.0256 -0.5190
   16MOL   O156 4686   4.200   6.505   1.789  0.3726 -0.1579  0.9662
   16MOL   O157 4687   4.212   6.541   1.563  0.2069  0.1096  0.1946
   16MOL   C158 4688   4.294   6.655   1.586 -0.4735  0.8752  0.7687
   16MOL   H159 4689   3.910   6.262   1.555 -0.6317 -0.0412  0.1371
   16MOL   H160 4690   3.872   6.372   1.666  2.0209 -0.0906  2.1845
   16MOL   H161 4691   4.114   6.155   1.556 -1.5472  1.4508  3.3681
   16MOL   H162 4692   4.171   6.269   1.445  3.8684  0.0879  0.3093
   16MOL   H163 4693   4.271   6.230   1.576 -0.5431  0.7952  2.9831
   16MOL   H164 4694   4.314   6.711   1.494 -0.6022 -0.9536 -0.4087
   16MOL   H165 4695   4.392   6.611   1.604  0.2949  0.6603 -3.3851
   16MOL   H166 4696   4.265   6.727   1.663 -2.1165 -1.9442  2.8486
   16MOL   C167 4697   4.079   6.258   1.783  0.9632  0.1697 -0.2847
   16MOL   C168 4698   3.984   6.289   1.907 -0.1506 -0.2673  0.2492
   16MOL   C169 4699   3.846   6.228   1.873  0.1402 -0.2423 -0.0465
   16MOL   C170 4700   4.054   6.206   2.022  0.4284  0.3606  0.0711
   16MOL   O171 4701   4.150   6.253   2.088 -0.5122 -0.0441  0.1016
   16MOL   O172 4702   4.018   6.074   2.042  0.1951  0.1701  0.3632
   16MOL   C173 4703   4.092   5.982   2.124 -0.6836 -0.5326 -0.2620
   16MOL   H174 4704   4.183   6.272   1.813  0.1675  0.9824  2.2143
   16MOL   H175 4705   4.066   6.153   1.759 -2.1663  0.3563  0.4234
   16MOL   H176 4706   3.853   6.135   1.817  3.2312  0.1111 -0.3500
   16MOL   H177 4707   3.795   6.192   1.962 -0.3420  0.2948 -0.1059
   16MOL   H178 4708   3.782   6.298   1.819 -0.4799 -0.8342 -0.0784
   16MOL   H179 4709   4.080   6.018   2.227 -0.9324 -0.3815 -0.3454
   16MOL   H180 4710   4.196   5.979   2.091 -0.1515 -0.2094  1.3214
   16MOL   H181 4711   4.042   5.885   2.126 -0.1020 -0.8523  2.9386
   16MOL   C182 4712   3.978   6.442   1.947  0.7329 -0.2654 -0.4697
   16MOL   C183 4713   3.877   6.489   2.062  0.8783 -0.1715 -0.2949
   16MOL   C184 4714   3.730   6.486   2.011 -0.1685  0.5088 -0.1465
   16MOL   C185 4715   3.885   6.406   2.197 -0.2066 -0.8227  0.5954
   16MOL   O186 4716   3.783   6.341   2.236  0.0238  0.1182  0.4025
   16MOL   O187 4717   4.003   6.411   2.255  0.0403  0.5388 -0.1293
   16MOL   C188 4718   4.015   6.349   2.383 -0.1395  0.5255 -0.1222
   16MOL   H189 4719   3.957   6.506   1.861  0.6245  0.5685  0.1743
   16MOL   H190 4720   4.077   6.470   1.982  0.5363  1.6050 -1.3584
   16MOL   H191 4721   3.674   6.394   1.995 -0.0365  0.0876  1.6852
   16MOL   H192 4722   3.670   6.524   2.093  1.1036  1.5509  0.3070
   16MOL   H193 4723   3.716   6.548   1.922  0.9199 -0.0997 -0.7505
   16MOL   H194 4724   3.985   6.425   2.455  0.6159 -2.1082  3.1145
   16MOL   H195 4725   4.114   6.311   2.407  0.6480  2.6003 -0.0133
   16MOL   H196 4726   3.944   6.267   2.390 -1.0275  1.0783 -2.2534
   16MOL   C197 4727   3.918   6.642   2.097 -0.0792  0.0352  0.1968
   16MOL   C198 4728   3.827   6.765   2.147 -0.4308  0.4663  0.7764
   16MOL   C199 4729   3.914   6.886   2.121  0.2278  0.0464 -0.1944
   16MOL   C200 4730   3.707   6.788   2.052 -0.6819 -0.3929  0.0875
   16MOL   O201 4731   3.715   6.849   1.943  0.9587  0.8237  0.3921
   16MOL   O202 4732   3.593   6.749   2.102 -0.5258  0.0721  0.1145
   16MOL   C203 4733   3.472   6.779   2.033  0.4761  0.8281 -0.1463
   16MOL   H204 4734   3.956   6.679   2.002  2.0515 -0.1279  0.9659
   16MOL   H205 4735   4.009   6.637   2.157 -0.0215  0.2951  0.1279
   16MOL   H206 4736   4.003   6.887   2.184  0.6907 -2.8690 -0.7192
   16MOL   H207 4737   3.953   6.893   2.020  0.4164  0.9391 -0.0636
   16MOL   H208 4738   3.867   6.983   2.133  1.9390  0.6861  1.6549
   16MOL   H209 4739   3.475   6.886   2.012  1.6554  1.4010  2.7458
   16MOL   H210 4740   3.387   6.758   2.098 -0.0478 -0.2675 -1.1842
   16MOL   H211 4741   3.445   6.720   1.946 -1.0293 -1.8849  2.0711
   16MOL   C212 4742   3.788   6.745   2.303 -0.0555 -0.2149  0.5527
   16MOL   C213 4743   3.747   6.863   2.393 -0.1248  0.5285 -0.0365
   16MOL   C214 4744   3.876   6.932   2.453 -0.1638  0.1192 -0.1947
   16MOL   C215 4745   3.665   6.975   2.320  0.2015  0.1705  0.3556
   16MOL   O216 4746   3.717   7.078   2.278  0.5652  0.0735 -0.2650
   16MOL   O217 4747   3.531   6.953   2.324  0.2393  0.6776  1.0556
   16MOL   C218 4748   3.452   7.057   2.267  0.0707  0.0563  0.1391
   16MOL   H219 4749   3.875   6.694   2.346 -0.4173  0.7111  2.4151
   16MOL   H220 4750   3.717   6.663   2.314  0.8787 -0.7803  2.6085
   16MOL   H221 4751   3.842   7.008   2.523  1.6390  1.4161 -0.6841
   16MOL   H222 4752   3.939   6.857   2.502 -0.7525  0.7371  1.5449
   16MOL   H223 4753   3.933   6.982   2.375  1.1763  1.2132  1.4513
   16MOL   H224 4754   3.350   7.023   2.249  1.2693 -3.2294 -0.7347
   16MOL   H225 4755   3.487   7.097   2.172  0.3511  0.6513  0.4893
   16MOL   H226 4756   3.441   7.142   2.334 -0.1371 -0.1493  0.3679
   16MOL   C227 4757   3.676   6.791   2.512  0.4368 -0.2911  0.7661
   16MOL   C228 4758   3.642   6.849   2.662  0.0442  0.2652 -0.3068
   16MOL   C229 4759   3.549   6.740   2.729  0.0441  0.1101 -0.2979
   16MOL   C230 4760   3.770   6.866   2.745  0.7727 -0.3500 -0.0213
   16MOL   O231 4761   3.809   6.975   2.795 -0.4222  0.0608  0.3727
   16MOL   O232 4762   3.834   6.750   2.760 -0.6720 -0.3228 -0.2952
   16MOL   C233 4763   3.972   6.759   2.798  0.0676  0.9285  0.4403
   16MOL   H234 4764   3.734   6.703   2.539 -0.3717 -0.7448  1.0457
   16MOL   H235 4765   3.583   6.753   2.470  1.1417 -2.2923  0.9875
   16MOL   H236 4766   3.533   6.754   2.835  1.3508  0.7920 -0.1852
   16MOL   H237 4767   3.457   6.722   2.673  0.5898 -0.5395 -1.0031
   16MOL   H238 4768   3.605   6.647   2.717 -0.3577 -0.1741  0.0121
   16MOL   H239 4769   4.016   6.853   2.764  0.3452  0.6592  0.0481
   16MOL   H240 4770   4.025   6.675   2.754 -1.0738  1.4786 -2.0659
   16MOL   H241 4771   3.980   6.755   2.907  0.2624 -1.0869  0.3750
   16MOL   C242 4772   3.554   6.981   2.641  0.3110 -0.4162 -0.2639
   16MOL   C243 4773   3.500   7.073   2.753  0.5303 -0.0244  0.5576
   16MOL   C244 4774   3.465   6.997   2.879  0.9501 -0.4248 -0.0640
   16MOL   C245 4775   3.605   7.184   2.787  0.2003  0.1075  0.1819
   16MOL   O246 4776   3.640   7.219   2.901  0.2612  0.3601 -0.2362
   16MOL   O247 4777   3.642   7.248   2.671  0.6259  0.1637  0.2172
   16MOL   C248 4778   3.746   7.351   2.671  0.1950 -0.5071 -0.2807
   16MOL   H249 4779   3.470   6.943   2.582 -0.8898  0.2008  1.0449
   16MOL   H250 4780   3.613   7.041   2.573 -0.4165  0.0486 -0.4893
   16MOL   H251 4781   3.405   7.058   2.946 -1.2254 -2.3368 -0.2109
   16MOL   H252 4782   3.400   6.910   2.868  1.6186 -0.3792 -6.1561
   16MOL   H253 4783   3.554   6.961   2.929  0.4313 -0.1192  1.0922
   16MOL   H254 4784   3.747   7.407   2.578 -0.8667  1.6826  0.9986
   16MOL   H255 4785   3.841   7.298   2.659 -0.3319 -1.0054 -2.5128
   16MOL   H256 4786   3.722   7.413   2.757 -3.7969 -0.2186 -1.5028
   16MOL   C257 4787   3.380   7.159   2.691 -0.6854 -0.4880 -0.2488
   16MOL   C258 4788   3.221   7.124   2.722 -0.3180 -0.3055  0.0619
   16MOL   C259 4789   3.190   6.973   2.693  0.1248  0.0135 -0.1621
   16MOL   C260 4790   3.189   7.158   2.872 -0.8582 -0.1435 -0.2403
   16MOL   O261 4791   3.101   7.103   2.932  0.0672 -0.6661  0.0861
   16MOL   O262 4792   3.255   7.260   2.920  0.4074  0.1511  0.2307
   16MOL   C263 4793   3.203   7.330   3.028 -0.0338 -0.2007 -0.5053
   16MOL   H264 4794   3.390   7.162   2.582 -0.9908  1.2063 -0.2403
   16MOL   H265 4795   3.403   7.265   2.697  1.5122 -0.7644 -2.8317
   16MOL   H266 4796   3.120   6.929   2.763  0.9113 -0.7203  0.1728
   16MOL   H267 4797   3.148   6.963   2.592 -1.8735  0.3556  0.6158
   16MOL   H268 4798   3.272   6.901   2.694 -0.3463 -0.5769 -1.5619
   16MOL   H269 4799   3.256   7.425   3.025 -0.7435  0.1919 -0.9498
   16MOL   H270 4800   3.221   7.292   3.128  0.8726  3.0269  0.6045
   16MOL   H271 4801   3.096   7.344   3.013  0.1716 -0.2995 -2.1187
   16MOL   C272 4802   3.136   7.209   2.623  0.2942  0.5568 -0.7804
   16MOL   C273 4803   2.979   7.228   2.641  0.0368  0.6700 -0.1073
   16MOL   C274 4804   2.897   7.098   2.688  0.0027 -0.2998 -0.3556
   16MOL   C275 4805   2.943   7.340   2.739  0.0298 -0.3588  0.7830
   16MOL   O276 4806   3.019   7.435   2.760  0.3358  0.0812 -0.0802
   16MOL   O277 4807   2.836   7.314   2.812  0.0421 -0.1804 -0.2641
   16MOL   C278 4808   2.827   7.391   2.925  0.3262 -0.8866 -0.3338
   16MOL   H279 4809   3.154   7.170   2.523 -2.0630 -0.6581 -0.7665
   16MOL   H280 4810   3.169   7.313   2.622  2.3340 -0.0750 -0.5762
   16MOL   H281 4811   2.925   7.012   2.627 -1.1402  1.4679 -3.4612
   16MOL   H282 4812   2.920   7.063   2.789 -1.1313 -2.1645 -0.7290
   16MOL   H283 4813   2.790   7.113   2.679 -0.2193 -0.8678  1.1185
   16MOL   H284 4814   2.759   7.350   2.999  0.0017  0.2598  0.0077
   16MOL   H285 4815   2.805   7.493   2.895  0.6665 -0.5325  0.5830
   16MOL   H286 4816   2.926   7.392   2.971 -0.4715 -1.4065  1.4553
   16MOL   C287 4817   2.928   7.275   2.501 -0.4008  0.0122  0.0734
   16MOL   C288 4818   2.795   7.364   2.488 -0.0825 -0.3929  0.6030
   16MOL   C289 4819   2.805   7.469   2.374  0.1293 -0.0270  0.4353
   16MOL   C290 4820   2.664   7.281   2.474 -0.4257  0.7095 -0.3590
   16MOL   O291 4821   2.564   7.296   2.543 -0.3940  0.2510 -0.4189
   16MOL   O292 4822   2.681   7.186   2.384  0.2334  0.4610 -0.2419
   16MOL   C293 4823   2.588   7.089   2.364 -0.0208 -0.7030  0.2343
   16MOL   H294 4824   2.908   7.191   2.434  2.2446  0.4816 -1.3522
   16MOL   H295 4825   3.011   7.326   2.452 -0.5239  0.3489  0.2149
   16MOL   H296 4826   2.889   7.534   2.400  1.2378 -1.8049  1.4107
   16MOL   H297 4827   2.818   7.427   2.274 -1.8220 -3.3151  1.4654
   16MOL   H298 4828   2.716   7.531   2.373  0.9195  1.2467  3.1616
   16MOL   H299 4829   2.606   7.029   2.274 -1.2908 -2.1346  0.9030
   16MOL   H300 4830   2.489   7.133   2.357  0.2667  0.0187  0.6785
   16MOL   H301 4831   2.587   7.020   2.448  2.2796  1.0452  1.7754
   16MOL   H302 4832   2.778   7.424   2.577 -0.2632  1.1624 -0.4591
   17MOL     C1 4833   0.651   7.321   1.364 -0.6501 -0.6268  0.3781
   17MOL     C2 4834   0.605   7.253   1.222 -0.0637 -0.9793 -0.1079
   17MOL     C3 4835   0.466   7.317   1.188 -0.4308 -0.5043 -0.3998
   17MOL     C4 4836   0.703   7.291   1.114 -0.2772  0.3409  0.7733
   17MOL     O5 4837   0.821   7.312   1.142  0.0714  0.0172 -0.4308
   17MOL     O6 4838   0.661   7.288   0.988 -0.0146  0.0471 -0.5945
   17MOL     C7 4839   0.748   7.287   0.877  0.7223 -0.0051 -0.4361
   17MOL     H8 4840   0.661   7.429   1.352 -0.7624 -0.8099 -1.6955
   17MOL     H9 4841   0.571   7.318   1.438 -1.1286 -0.0249 -0.1035
   17MOL    H10 4842   0.426   7.276   1.096 -1.2809  0.1075 -0.3047
   17MOL    H11 4843   0.387   7.298   1.261  0.4828  2.0216  1.3009
   17MOL    H12 4844   0.489   7.421   1.164  0.5396 -0.9969 -1.6292
   17MOL    H13 4845   0.744   7.389   0.839  3.2486 -0.1642 -1.1705
   17MOL    H14 4846   0.706   7.235   0.790 -0.2610 -2.8649  1.6664
   17MOL    H15 4847   0.848   7.250   0.900  0.6986  0.1242 -0.1206
   17MOL    H16 4848   0.741   7.284   1.411 -0.0359  0.3975  0.0293
   17MOL    C17 4849   0.580   7.100   1.246  0.0496  0.3295  0.2031
   17MOL    C18 4850   0.561   6.983   1.140  0.1880  0.1104 -0.2794
   17MOL    C19 4851   0.691   6.964   1.062 -0.5423  0.2474 -0.7803
   17MOL    C20 4852   0.525   6.857   1.225 -0.1797  0.6864 -0.2554
   17MOL    O21 4853   0.421   6.855   1.285  0.6848  0.3776  0.0995
   17MOL    O22 4854   0.612   6.751   1.211 -0.8370 -0.6367 -0.5459
   17MOL    C23 4855   0.577   6.620   1.246 -0.5211 -0.3996 -0.6659
   17MOL    H24 4856   0.501   7.105   1.320 -1.1204 -0.8308 -0.9418
   17MOL    H25 4857   0.668   7.074   1.305 -0.7143 -0.4351  1.0138
   17MOL    H26 4858   0.699   6.866   1.016  0.5046 -0.2791  0.5056
   17MOL    H27 4859   0.682   7.037   0.981  2.0276  0.7344 -0.6654
   17MOL    H28 4860   0.782   6.976   1.121 -0.4218  0.5033 -1.0186
   17MOL    H29 4861   0.560   6.563   1.155  1.5775 -0.4272 -1.0519
   17MOL    H30 4862   0.488   6.618   1.309 -1.0983  2.2938 -1.3140
   17MOL    H31 4863   0.655   6.565   1.298 -1.2219 -0.5100  0.3042
   17MOL    C32 4864   0.440   7.008   1.041 -0.4681  0.6586 -0.0716
   17MOL    C33 4865   0.378   6.903   0.937  0.3680  0.6644 -0.1492
   17MOL    C34 4866   0.480   6.797   0.890 -0.1718  0.1690 -0.1677
   17MOL    C35 4867   0.251   6.833   1.003  0.3188 -0.3976  0.5648
   17MOL    O36 4868   0.244   6.712   1.012  0.3741 -0.4074  0.2943
   17MOL    O37 4869   0.152   6.918   1.047  0.2613 -0.3702 -0.5051
   17MOL    C38 4870   0.047   6.859   1.123 -0.1341 -0.1165 -0.2649
   17MOL    H39 4871   0.461   7.104   0.993  0.4732  1.3910  1.7437
   17MOL    H40 4872   0.355   7.030   1.104  0.6444  1.1421  1.2910
   17MOL    H41 4873   0.430   6.707   0.854  2.4737 -2.6164  2.7774
   17MOL    H42 4874   0.558   6.833   0.823 -1.6367  0.8567 -1.5286
   17MOL    H43 4875   0.539   6.758   0.973 -0.9364 -0.6094  0.0250
   17MOL    H44 4876   0.006   6.771   1.074  0.4754 -0.6817  0.2281
   17MOL    H45 4877   7.848   6.927   1.161 -2.2675 -3.2120  1.2039
   17MOL    H46 4878   0.103   6.825   1.211 -0.0066 -2.9071 -1.3702
   17MOL    C47 4879   0.325   6.984   0.812  0.4032 -0.4777  0.7622
   17MOL    C48 4880   0.271   6.931   0.672 -0.9112  0.0107  0.1714
   17MOL    C49 4881   0.385   6.845   0.598 -0.3461  0.6835  0.3380
   17MOL    C50 4882   0.148   6.838   0.687  0.2175 -0.3273  0.6235
   17MOL    O51 4883   0.044   6.864   0.629  0.5284  0.6616 -0.1872
   17MOL    O52 4884   0.168   6.718   0.751 -0.0884 -0.3771 -0.1499
   17MOL    C53 4885   0.068   6.613   0.766  0.5251  0.2736 -0.2927
   17MOL    H54 4886   0.410   7.042   0.775 -1.2086  0.7478 -1.0742
   17MOL    H55 4887   0.260   7.060   0.856 -1.0762 -1.2943 -0.0075
   17MOL    H56 4888   0.402   6.750   0.649 -4.3564  1.0492  2.5993
   17MOL    H57 4889   0.354   6.809   0.500  1.3444 -2.4738  0.8732
   17MOL    H58 4890   0.481   6.894   0.590 -0.1503  0.0736 -1.1724
   17MOL    H59 4891   7.862   6.605   0.697  0.3775  1.2038 -0.2227
   17MOL    H60 4892   0.016   6.644   0.856 -2.8905 -1.8578 -1.4211
   17MOL    H61 4893   0.109   6.514   0.788 -0.6302 -0.5438 -1.7628
   17MOL    C62 4894   0.253   7.053   0.576 -0.0729 -0.3221  0.1390
   17MOL    C63 4895   0.184   7.193   0.611  0.1744  0.2898 -0.1147
   17MOL    C64 4896   0.177   7.237   0.454 -0.2223  0.1062  0.0695
   17MOL    C65 4897   0.043   7.179   0.673  0.2896  0.8851  0.3241
   17MOL    O66 4898   7.827   7.242   0.615  0.0852 -0.2568  0.1506
   17MOL    O67 4899   0.041   7.122   0.796  0.3891  0.3579  0.3923
   17MOL    C68 4900   7.806   7.102   0.864  0.3099 -0.0055 -0.0996
   17MOL    H69 4901   0.210   7.012   0.484 -1.5466  1.5858 -0.0412
   17MOL    H70 4902   0.356   7.078   0.550 -0.4482  0.0063 -1.0848
   17MOL    H71 4903   0.131   7.335   0.439 -0.3346 -0.1273 -1.1631
   17MOL    H72 4904   0.268   7.217   0.397 -0.6147  1.5858 -1.1155
   17MOL    H73 4905   0.105   7.174   0.402  0.5425 -2.0203  1.5272
   17MOL    H74 4906   7.761   7.017   0.814  2.6771 -0.0235 -2.2839
   17MOL    H75 4907   7.745   7.192   0.863  1.1042  0.6473  3.0838
   17MOL    H76 4908   7.829   7.083   0.969 -0.2358 -1.9791 -0.3155
   17MOL    C77 4909   0.289   7.291   0.689  0.0061 -0.3695 -0.0887
   17MOL    C78 4910   0.255   7.441   0.732  0.0774  0.3984 -0.2354
   17MOL    C79 4911   0.392   7.491   0.776  0.4123  0.4013 -0.2960
   17MOL    C80 4912   0.202   7.532   0.611  0.1055  0.5659  0.4998
   17MOL    O81 4913   0.278   7.590   0.536  0.3513 -0.4198 -0.5310
   17MOL    O82 4914   0.065   7.524   0.585 -0.4186  0.3219  0.2122
   17MOL    C83 4915   0.016   7.581   0.465 -0.0037  0.3712  0.4698
   17MOL    H84 4916   0.362   7.294   0.608 -0.4269  0.3995 -0.4564
   17MOL    H85 4917   0.339   7.230   0.764 -1.0661 -2.5531 -1.0874
   17MOL    H86 4918   0.433   7.449   0.868  1.3750  1.8062 -0.0542
   17MOL    H87 4919   0.469   7.485   0.699  0.0709 -2.1085 -0.4860
   17MOL    H88 4920   0.390   7.600   0.779  2.0998  0.4510 -0.0955
   17MOL    H89 4921   0.070   7.674   0.449 -0.5809  1.1450  2.8005
   17MOL    H90 4922   7.786   7.597   0.467 -0.0667 -0.0915  1.0775
   17MOL    H91 4923   0.037   7.524   0.375 -2.0590 -1.3058  1.0047
   17MOL    C92 4924   0.161   7.444   0.858  0.8728  0.5360  0.9852
   17MOL    C93 4925   0.136   7.567   0.957 -0.0360  0.0130  0.0220
   17MOL    C94 4926   0.268   7.587   1.043  0.2103  0.1418  0.1618
   17MOL    C95 4927   0.116   7.699   0.883  0.3296 -0.6489 -0.1551
   17MOL    O96 4928   0.210   7.774   0.867  0.0692  0.7716  0.4068
   17MOL    O97 4929   7.867   7.702   0.831 -0.3644  0.0223 -0.0643
   17MOL    C98 4930   7.837   7.798   0.736  0.2528  0.3094  0.5081
   17MOL    H99 4931   0.195   7.361   0.920 -0.5909  0.2825  1.4576
   17MOL   H100 4932   0.065   7.399   0.832  1.7450 -1.8335  1.6987
   17MOL   H101 4933   0.262   7.672   1.111  1.2276 -1.0634  1.8141
   17MOL   H102 4934   0.274   7.500   1.110 -0.6506 -0.0427  0.0113
   17MOL   H103 4935   0.362   7.609   0.994 -0.0000 -0.3132 -0.4511
   17MOL   H104 4936   7.807   0.013   0.786 -1.8599 -0.2612  0.3592
   17MOL   H105 4937   7.748   7.769   0.679  0.9781  0.9639 -0.9754
   17MOL   H106 4938   0.038   7.814   0.662  0.4842 -0.2498  0.6343
   17MOL   C107 4939   0.014   7.550   1.052  0.3703  0.1949  0.1596
   17MOL   C108 4940   0.009   7.461   1.176  0.6441  0.6264  0.1778
   17MOL   C109 4941   0.067   7.315   1.144 -0.7864  0.7255 -0.0636
   17MOL   C110 4942   0.069   7.524   1.304 -0.1405 -0.5492 -0.3575
   17MOL   O111 4943   0.108   7.643   1.302  0.1175  0.1592  0.1810
   17MOL   O112 4944   0.074   7.452   1.414  0.3543  1.1373 -0.1696
   17MOL   C113 4945   0.140   7.502   1.523 -0.4017 -0.6539 -0.6079
   17MOL   H114 4946   7.811   7.514   0.987 -1.3631  0.2851  2.2158
   17MOL   H115 4947   7.860   7.646   1.091 -1.4400 -0.8763  1.4102
   17MOL   H116 4948   0.013   7.263   1.064 -1.4682  0.3614  0.6308
   17MOL   H117 4949   0.175   7.307   1.126 -0.6376 -1.8828  1.6348
   17MOL   H118 4950   0.056   7.247   1.228  0.2241  2.3948  1.4448
   17MOL   H119 4951   0.104   7.597   1.563  2.2646 -0.2896  1.0392
   17MOL   H120 4952   0.242   7.513   1.486 -0.6966  1.4242 -0.8475
   17MOL   H121 4953   0.142   7.431   1.606  2.5513 -0.3432 -0.3725
   17MOL   C122 4954   7.734   7.428   1.208 -0.4798 -0.6174  0.0901
   17MOL   C123 4955   7.623   7.544   1.224 -1.0967  0.4012 -0.8812
   17MOL   C124 4956   7.666   7.657   1.332 -0.1910 -0.3550 -0.5436
   17MOL   C125 4957   7.588   7.611   1.085 -0.4412 -0.5255  0.8937
   17MOL   O126 4958   7.598   7.735   1.069  0.2278  0.0666  0.0273
   17MOL   O127 4959   7.558   7.520   0.988  0.0530 -0.1355 -0.6127
   17MOL   C128 4960   7.543   7.565   0.853 -0.3570  0.4561 -0.5519
   17MOL   H129 4961   7.734   7.359   1.292 -0.0448  1.4261  1.8192
   17MOL   H130 4962   7.697   7.375   1.120 -3.1028  0.7908  0.2683
   17MOL   H131 4963   7.583   7.723   1.356  1.5070  1.9925 -0.9609
   17MOL   H132 4964   7.696   7.608   1.425  0.5323  1.1465  0.0322
   17MOL   H133 4965   7.751   7.718   1.300  1.3290 -0.9637  2.1591
   17MOL   H134 4966   7.484   7.655   0.838  0.5249  0.6290 -3.2451
   17MOL   H135 4967   7.519   7.487   0.781 -1.2653 -0.4052  0.6664
   17MOL   H136 4968   7.644   7.593   0.821  0.2407 -1.6630 -0.6335
   17MOL   C137 4969   7.495   7.474   1.276 -0.4483 -0.6174  0.2796
   17MOL   C138 4970   7.365   7.537   1.349  0.0972 -0.2879 -0.2609
   17MOL   C139 4971   7.406   7.552   1.498  1.0013 -0.3620  0.5478
   17MOL   C140 4972   7.302   7.665   1.289  0.0737 -0.3736  0.8624
   17MOL   O141 4973   7.295   7.772   1.352 -0.3527 -0.1063  0.2047
   17MOL   O142 4974   7.267   7.648   1.157  0.0921  0.3268  0.5136
   17MOL   C143 4975   7.196   7.753   1.091  0.3420  0.0166 -0.1707
   17MOL   H144 4976   7.526   7.405   1.355 -0.7546 -0.0053  0.9368
   17MOL   H145 4977   7.464   7.423   1.184  0.7574 -2.3162  0.7905
   17MOL   H146 4978   7.423   7.453   1.538 -1.0401 -0.0436  2.3029
   17MOL   H147 4979   7.493   7.613   1.519  0.2307  0.4842  1.3153
   17MOL   H148 4980   7.329   7.597   1.561 -1.5721 -2.1108 -1.2313
   17MOL   H149 4981   7.090   7.729   1.093  0.3051  0.2437  1.4923
   17MOL   H150 4982   7.208   7.749   0.983 -1.0411  0.7494 -0.3642
   17MOL   H151 4983   7.204   7.853   1.134  2.0869  0.3417 -1.1581
   17MOL   C152 4984   7.260   7.418   1.326  0.1464  0.2620 -0.6532
   17MOL   C153 4985   7.103   7.417   1.385 -0.6331  0.0229  0.0651
   17MOL   C154 4986   7.033   7.544   1.335  0.2253 -0.1374  0.5723
   17MOL   C155 4987   7.039   7.291   1.323 -0.3693  0.1488 -0.2480
   17MOL   O156 4988   6.926   7.283   1.277 -0.0480  0.1199  0.2432
   17MOL   O157 4989   7.122   7.186   1.341  0.7065  0.1211 -0.0248
   17MOL   C158 4990   7.073   7.060   1.307 -0.3129  1.0205 -0.0886
   17MOL   H159 4991   7.310   7.330   1.365  2.0247  1.8587  0.6058
   17MOL   H160 4992   7.257   7.408   1.218 -0.0354  0.1094 -0.6337
   17MOL   H161 4993   7.052   7.546   1.228 -1.6319  1.9227  0.2388
   17MOL   H162 4994   6.924   7.533   1.330  0.1684 -0.2328  1.7519
   17MOL   H163 4995   7.059   7.634   1.391  1.2696  0.1820 -0.4224
   17MOL   H164 4996   7.070   7.052   1.198  0.0031 -0.5774  0.0005
   17MOL   H165 4997   6.973   7.040   1.344 -0.7746 -1.3259 -2.4367
   17MOL   H166 4998   7.129   6.977   1.350 -0.4680  1.1767  0.4166
   17MOL   C167 4999   7.105   7.409   1.543  0.2761 -0.5868  0.5078
   17MOL   C168 5000   6.981   7.372   1.637  0.8645 -0.2565  0.0504
   17MOL   C169 5001   6.840   7.419   1.576 -0.3815 -0.7653 -0.1940
   17MOL   C170 5002   6.970   7.217   1.646  0.4069 -0.0985  0.0986
   17MOL   O171 5003   7.065   7.142   1.622  0.3336  0.0088  0.3962
   17MOL   O172 5004   6.849   7.172   1.682  0.0362  0.3319 -0.0933
   17MOL   C173 5005   6.829   7.034   1.687 -0.0201 -0.2076  0.0649
   17MOL   H174 5006   7.144   7.504   1.578  1.3482 -1.5513  2.0382
   17MOL   H175 5007   7.188   7.343   1.568 -0.0513 -1.0928  0.2768
   17MOL   H176 5008   6.756   7.410   1.644  0.1451 -0.1671  0.5485
   17MOL   H177 5009   6.854   7.521   1.542  2.8676 -0.7828  0.8865
   17MOL   H178 5010   6.808   7.357   1.492  0.0250 -2.9685  1.2171
   17MOL   H179 5011   6.722   7.018   1.696  0.3263 -3.0128 -0.4242
   17MOL   H180 5012   6.880   6.995   1.775  1.5583  1.4131 -0.0955
   17MOL   H181 5013   6.864   6.989   1.594  1.7128  0.3312  0.4346
   17MOL   C182 5014   6.991   7.441   1.780  0.1020 -0.0432  0.4088
   17MOL   C183 5015   7.091   7.411   1.895 -0.1777  0.5277  0.3766
   17MOL   C184 5016   7.042   7.293   1.976 -0.1279  0.9243 -0.1805
   17MOL   C185 5017   7.234   7.365   1.837  0.0932 -0.2246 -0.0442
   17MOL   O186 5018   7.314   7.451   1.809  0.5619  0.2034  1.2549
   17MOL   O187 5019   7.248   7.232   1.827  0.4896 -0.1762 -0.1943
   17MOL   C188 5020   7.337   7.176   1.740  0.4325 -0.8212  0.3181
   17MOL   H189 5021   6.897   7.412   1.827 -0.4137 -1.5931 -1.4974
   17MOL   H190 5022   6.986   7.548   1.761  1.5808  0.2628  1.6613
   17MOL   H191 5023   7.046   7.200   1.918  0.2194  1.7822 -1.5528
   17MOL   H192 5024   7.109   7.276   2.060 -2.3480 -2.2284  1.0583
   17MOL   H193 5025   6.940   7.309   2.010 -0.0959 -1.1664  1.0009
   17MOL   H194 5026   7.433   7.191   1.789  1.1895 -3.4604 -0.2960
   17MOL   H195 5027   7.323   7.209   1.637  0.2384 -0.9499  0.3034
   17MOL   H196 5028   7.337   7.068   1.751 -3.0448 -0.8652  0.6101
   17MOL   C197 5029   7.118   7.535   1.988  0.1768  0.7035 -0.7456
   17MOL   C198 5030   7.013   7.601   2.086  0.9703  0.2808 -0.0575
   17MOL   C199 5031   6.875   7.623   2.022  0.0044 -0.2596  0.0829
   17MOL   C200 5032   7.001   7.503   2.202  0.1910 -0.1267 -0.9577
   17MOL   O201 5033   7.100   7.442   2.246 -0.3127 -0.4592 -0.0310
   17MOL   O202 5034   6.870   7.471   2.232 -0.0752  0.4071 -0.0665
   17MOL   C203 5035   6.853   7.378   2.339  0.3498 -0.9357  0.2092
   17MOL   H204 5036   7.148   7.611   1.916  0.6409  0.9019 -0.3483
   17MOL   H205 5037   7.209   7.519   2.046 -0.1744 -0.6123 -0.5510
   17MOL   H206 5038   6.879   7.694   1.939 -3.3454 -2.5169 -2.1670
   17MOL   H207 5039   6.827   7.533   1.984  0.0241  0.1472 -0.9182
   17MOL   H208 5040   6.801   7.657   2.094 -1.0999 -0.4944 -0.9139
   17MOL   H209 5041   6.875   7.426   2.434 -1.2007  0.1396  0.0447
   17MOL   H210 5042   6.909   7.286   2.323  0.5918 -0.7109 -0.2523
   17MOL   H211 5043   6.750   7.343   2.339  0.6191 -1.7393  0.3045
   17MOL   C212 5044   7.072   7.739   2.131 -0.4104 -0.0456  0.4616
   17MOL   C213 5045   7.027   7.820   2.258 -0.5128  0.4269 -0.5655
   17MOL   C214 5046   6.874   7.842   2.265  0.0051 -0.0867  0.3403
   17MOL   C215 5047   7.085   7.749   2.386  0.4347 -0.3719 -0.1402
   17MOL   O216 5048   7.012   7.682   2.461  0.3915  0.0313  0.4187
   17MOL   O217 5049   7.214   7.765   2.399  0.3085 -0.6462 -0.0434
   17MOL   C218 5050   7.286   7.674   2.470  0.5356  0.4291 -0.0441
   17MOL   H219 5051   7.052   7.796   2.040 -0.7625  0.9579  1.1578
   17MOL   H220 5052   7.177   7.720   2.153  0.0413  1.4265 -0.3612
   17MOL   H221 5053   6.857   0.021   2.357 -1.2949  3.0899 -1.7721
   17MOL   H222 5054   6.819   0.025   2.193 -1.9079 -0.5579  1.3619
   17MOL   H223 5055   6.821   7.748   2.281 -0.2842  0.0278  0.0498
   17MOL   H224 5056   7.394   7.685   2.463  0.5634  1.0170  1.0993
   17MOL   H225 5057   7.248   7.575   2.445 -0.2219 -0.0647  2.7882
   17MOL   H226 5058   7.259   7.679   2.576  1.2004  0.0332  0.1433
   17MOL   C227 5059   7.096   0.083   2.238 -0.5597 -0.1185 -0.3365
   17MOL   C228 5060   7.049   0.211   2.166  0.2958 -0.0099 -0.2223
   17MOL   C229 5061   6.950   0.285   2.261 -0.4678 -0.2827 -1.1045
   17MOL   C230 5062   7.172   0.306   2.163 -0.1283 -0.4646  0.3717
   17MOL   O231 5063   7.181   0.401   2.235  0.0855 -0.2341  0.6242
   17MOL   O232 5064   7.270   0.256   2.097 -0.4488 -0.0259  0.1929
   17MOL   C233 5065   7.401   0.292   2.108  0.2592  0.4883  0.2033
   17MOL   H234 5066   7.197   0.059   2.206  0.2934  2.4790  0.3355
   17MOL   H235 5067   7.121   0.113   2.340  1.0846 -1.2815 -0.3823
   17MOL   H236 5068   6.922   0.384   2.227 -0.8911 -0.4122 -1.1324
   17MOL   H237 5069   6.858   0.232   2.285 -0.9427  0.8777 -0.3148
   17MOL   H238 5070   6.998   0.299   2.358 -3.2393  1.3227  0.1115
   17MOL   H239 5071   7.443   0.280   2.208 -1.8123  1.1395  1.1790
   17MOL   H240 5072   7.407   0.398   2.084  1.2871  0.1646 -1.0107
   17MOL   H241 5073   7.458   0.238   2.032 -1.8008  0.4578 -1.3600
   17MOL   C242 5074   6.993   0.186   2.024  0.4486  0.7808  0.5259
   17MOL   C243 5075   6.921   0.299   1.934 -0.0254  0.0953  0.8078
   17MOL   C244 5076   6.776   0.318   1.992  0.6872  0.1446  0.4654
   17MOL   C245 5077   6.997   0.436   1.931  0.1795  0.5133 -0.5934
   17MOL   O246 5078   6.953   0.532   1.994  0.0621 -0.4592 -0.7686
   17MOL   O247 5079   7.110   0.433   1.864 -0.0002  0.3420 -0.2827
   17MOL   C248 5080   7.186   0.548   1.880 -0.5765  0.0634 -0.2505
   17MOL   H249 5081   6.944   0.089   2.013  2.8272 -0.2097 -1.9365
   17MOL   H250 5082   7.080   0.143   1.974 -0.7762 -1.1720 -0.0007
   17MOL   H251 5083   6.725   0.222   1.999  1.5972 -0.2123  2.7083
   17MOL   H252 5084   6.766   0.356   2.094  0.9383  0.2831  0.4378
   17MOL   H253 5085   6.716   0.390   1.935 -0.3276  0.5179  1.9496
   17MOL   H254 5086   7.257   0.564   1.799  0.1351  0.1880  0.3904
   17MOL   H255 5087   7.238   0.526   1.973 -0.7570 -2.4331 -0.7165
   17MOL   H256 5088   7.138   0.641   1.910  1.4819  0.4029  2.1604
   17MOL   C257 5089   6.923   0.238   1.784 -0.2415 -0.1755  0.6146
   17MOL   C258 5090   6.823   0.277   1.672  0.3584  0.0577  0.5836
   17MOL   C259 5091   6.690   0.192   1.686  1.1216  0.0792 -0.5115
   17MOL   C260 5092   6.779   0.431   1.674  0.2709  0.1716 -0.3601
   17MOL   O261 5093   6.655   0.459   1.674  0.9134 -0.5782 -0.0737
   17MOL   O262 5094   6.883   0.514   1.656 -0.1902 -0.3326  0.2455
   17MOL   C263 5095   6.874   0.645   1.676  0.1874 -0.6797  0.4589
   17MOL   H264 5096   6.908   0.130   1.794  0.4319 -0.3601 -0.2988
   17MOL   H265 5097   7.018   0.249   1.731  0.6701 -0.6311  2.1040
   17MOL   H266 5098   6.689   0.084   1.698  3.0651  0.1860  0.8479
   17MOL   H267 5099   6.633   0.228   1.772  0.8606 -1.3055 -0.0993
   17MOL   H268 5100   6.617   0.207   1.607  0.6646 -1.4604 -0.3963
   17MOL   H269 5101   6.832   0.695   1.588 -1.7469 -2.7998  0.1241
   17MOL   H270 5102   6.975   0.684   1.687 -0.8222  1.9210  0.9825
   17MOL   H271 5103   6.814   0.667   1.764 -0.9185 -0.3581 -0.3572
   17MOL   C272 5104   6.887   0.262   1.531  0.0334 -0.0163 -0.6957
   17MOL   C273 5105   6.902   0.122   1.458 -0.0743  0.8877  0.1053
   17MOL   C274 5106   7.022   0.142   1.363  0.5363 -0.7758 -0.4241
   17MOL   C275 5107   6.940   0.006   1.556 -0.5700 -0.3443 -0.7912
   17MOL   O276 5108   6.857   7.797   1.586  0.1457  0.6159  0.2118
   17MOL   O277 5109   7.063   0.010   1.598  0.1092  0.2759  0.6094
   17MOL   C278 5110   7.106   7.769   1.664  0.8303 -0.3984  0.3766
   17MOL   H279 5111   6.983   0.314   1.535 -0.5391  1.0811 -1.0450
   17MOL   H280 5112   6.846   0.330   1.456 -0.7390 -0.3919 -0.6208
   17MOL   H281 5113   6.989   0.199   1.276 -0.5686 -1.8201 -0.7045
   17MOL   H282 5114   7.109   0.188   1.409  0.1241 -0.3957 -0.0189
   17MOL   H283 5115   7.059   0.046   1.328  2.0254 -0.4240  0.1709
   17MOL   H284 5116   7.069   7.681   1.611  2.0139 -0.2941 -0.6520
   17MOL   H285 5117   7.074   7.770   1.768 -2.2400  0.8624 -0.5092
   17MOL   H286 5118   7.215   7.773   1.665  0.7777  2.0871 -0.3703
   17MOL   C287 5119   6.772   0.097   1.374  0.0648 -0.4498  0.0594
   17MOL   C288 5120   6.777   7.853   1.279  0.2340 -0.1804  0.5170
   17MOL   C289 5121   6.662   7.746   1.298  0.0931  0.4690  0.0528
   17MOL   C290 5122   6.788   0.026   1.133 -0.7100  0.2595  0.9291
   17MOL   O291 5123   6.898   0.038   1.079  0.0957 -0.1054  0.0557
   17MOL   O292 5124   6.676   0.048   1.075 -0.3335  0.3414  0.6028
   17MOL   C293 5125   6.661   0.045   0.933 -0.8066 -0.6557 -0.4203
   17MOL   H294 5126   6.740   0.183   1.315 -0.5203  0.9547  2.3737
   17MOL   H295 5127   6.698   0.088   1.454  0.5736  1.0036  0.7212
   17MOL   H296 5128   6.677   7.661   1.231  0.5618  1.9595 -1.7975
   17MOL   H297 5129   6.660   7.711   1.400 -0.6554 -0.5326 -0.2968
   17MOL   H298 5130   6.562   7.788   1.279 -0.3593  0.1755  1.7014
   17MOL   H299 5131   6.685   7.826   0.889  4.1652 -0.4625  1.4713
   17MOL   H300 5132   6.735   0.106   0.882 -0.1446 -0.6827  0.4892
   17MOL   H301 5133   6.561   0.071   0.901 -1.5286 -0.8174  1.6440
   17MOL   H302 5134   6.874   7.803   1.288  0.3146 -0.6989 -2.6475
   18MOL     C1 5135   4.052   3.781   0.935  0.4135 -0.8457 -0.5278
   18MOL     C2 5136   4.139   3.724   1.050  0.3301 -0.3151 -0.0047
   18MOL     C3 5137   4.068   3.754   1.190  0.3943 -0.0583 -0.3634
   18MOL     C4 5138   4.141   3.575   1.031 -0.2694 -0.7776  0.3612
   18MOL     O5 5139   4.137   3.525   0.918 -0.8980  0.2944 -0.5532
   18MOL     O6 5140   4.162   3.512   1.141  0.4272 -0.1778  0.3229
   18MOL     C7 5141   4.136   3.375   1.130  0.7628  0.4714  0.1765
   18MOL     H8 5142   4.037   3.888   0.944  1.3302 -0.8207  0.9359
   18MOL     H9 5143   4.090   3.784   0.833 -3.2580 -1.7094 -1.9993
   18MOL    H10 5144   4.137   3.734   1.272 -0.9960 -1.5732  0.4878
   18MOL    H11 5145   4.034   3.858   1.190  0.9070  0.1687  2.7800
   18MOL    H12 5146   3.983   3.687   1.203  0.2894  0.6760  3.6904
   18MOL    H13 5147   4.182   3.320   1.212 -1.0896 -0.5409  0.5676
   18MOL    H14 5148   4.178   3.322   1.045 -0.1319  1.0865 -0.6586
   18MOL    H15 5149   4.028   3.361   1.137  0.9712 -0.6894  1.1085
   18MOL    H16 5150   3.954   3.735   0.944 -0.5285  1.4429  1.5921
   18MOL    C17 5151   4.281   3.789   1.064  0.3992 -0.4530 -0.3580
   18MOL    C18 5152   4.396   3.780   0.949 -0.2551 -0.1751 -0.6574
   18MOL    C19 5153   4.419   3.638   0.894  0.4968  1.0181  0.0395
   18MOL    C20 5154   4.347   3.880   0.834  1.0606  0.6405  0.4097
   18MOL    O21 5155   4.326   3.836   0.718  0.3376  0.2708 -0.1960
   18MOL    O22 5156   4.326   4.001   0.880 -0.2884 -0.2177 -0.5190
   18MOL    C23 5157   4.283   4.094   0.785  0.0098 -0.3567  0.5474
   18MOL    H24 5158   4.310   3.737   1.155 -0.4852 -0.6513 -0.1848
   18MOL    H25 5159   4.276   3.893   1.098  3.3723 -0.3032 -0.2587
   18MOL    H26 5160   4.343   3.598   0.827  0.0420  0.2079  1.0207
   18MOL    H27 5161   4.507   3.643   0.829  1.4281 -1.2538  1.0608
   18MOL    H28 5162   4.428   3.562   0.972 -0.9372 -0.2875 -1.0249
   18MOL    H29 5163   4.346   4.096   0.696 -0.4984  2.3181  0.2106
   18MOL    H30 5164   4.296   4.196   0.823  2.2100  0.6152 -2.5417
   18MOL    H31 5165   4.178   4.078   0.763  0.2746 -1.0953 -0.2226
   18MOL    C32 5166   4.530   3.827   1.021  0.0803 -0.1491  0.2493
   18MOL    C33 5167   4.677   3.832   0.963  0.5212  0.1033  0.6391
   18MOL    C34 5168   4.730   3.687   0.963  0.1168 -0.2582  0.0816
   18MOL    C35 5169   4.671   3.882   0.821 -0.7499  0.1200  0.1213
   18MOL    O36 5170   4.708   3.815   0.722 -0.0003 -0.2201  0.0103
   18MOL    O37 5171   4.628   4.009   0.819  0.4374 -0.0767 -0.3256
   18MOL    C38 5172   4.625   4.085   0.693 -0.2276  0.4701  0.2050
   18MOL    H39 5173   4.534   3.778   1.118  0.2969 -1.0737 -0.2233
   18MOL    H40 5174   4.513   3.929   1.055 -1.6878 -0.9832  1.9657
   18MOL    H41 5175   4.661   3.604   0.953 -0.0640 -0.0480 -0.4366
   18MOL    H42 5176   4.807   3.668   0.888 -0.3293 -1.9673  0.0325
   18MOL    H43 5177   4.770   3.654   1.059  1.8472 -1.8686 -1.1466
   18MOL    H44 5178   4.544   4.156   0.704 -0.8352  0.0656 -1.5637
   18MOL    H45 5179   4.610   4.014   0.612 -2.0253 -0.3385  1.2061
   18MOL    H46 5180   4.714   4.145   0.675  1.1941 -0.6834  2.9796
   18MOL    C47 5181   4.767   3.924   1.047 -0.2206  0.5170 -0.0052
   18MOL    C48 5182   4.926   3.956   1.037  0.7629 -0.3136  0.3168
   18MOL    C49 5183   5.006   3.829   1.009  0.3477 -0.1108  0.1826
   18MOL    C50 5184   4.945   4.054   0.920 -0.3662  0.1790 -0.0050
   18MOL    O51 5185   5.014   4.028   0.821  0.6530  1.0111 -0.0220
   18MOL    O52 5186   4.890   4.178   0.945  0.3779  0.1602  0.6500
   18MOL    C53 5187   4.917   4.287   0.849  0.7323  0.3797  0.4439
   18MOL    H54 5188   4.752   3.881   1.146  2.5972 -1.1388 -0.2375
   18MOL    H55 5189   4.710   4.017   1.048  0.7959  1.1519 -0.0405
   18MOL    H56 5190   4.984   3.780   0.913 -0.1593 -1.3975  0.9361
   18MOL    H57 5191   5.113   3.838   0.994  0.1110  1.5441 -0.6167
   18MOL    H58 5192   5.001   3.762   1.095  0.2475  0.9139  0.9813
   18MOL    H59 5193   4.827   4.346   0.838  0.2969 -0.3668 -0.0505
   18MOL    H60 5194   4.960   4.275   0.750  0.8891  1.1077  0.4220
   18MOL    H61 5195   4.975   4.353   0.913  1.0427  0.0309  0.5304
   18MOL    C62 5196   4.967   4.025   1.176 -0.3762  0.3700  0.2296
   18MOL    C63 5197   5.120   4.044   1.230 -0.4403  0.3625  0.1268
   18MOL    C64 5198   5.161   3.911   1.304 -0.2077  0.4945 -0.0415
   18MOL    C65 5199   5.216   4.070   1.105  0.6442  0.1056 -0.1260
   18MOL    O66 5200   5.291   3.981   1.067  0.2356  0.1427 -0.6526
   18MOL    O67 5201   5.206   4.190   1.064 -0.6147  0.1771  0.2692
   18MOL    C68 5202   5.255   4.234   0.941 -0.0091  0.1845  0.0747
   18MOL    H69 5203   4.917   3.973   1.258 -0.6555 -0.5182 -0.4891
   18MOL    H70 5204   4.918   4.122   1.179 -0.1037  0.4635  2.8153
   18MOL    H71 5205   5.267   3.899   1.324 -0.0258 -0.0813 -1.2711
   18MOL    H72 5206   5.102   3.881   1.391 -0.1319  1.8683  0.4900
   18MOL    H73 5207   5.149   3.823   1.240  1.0159  1.8796 -2.2196
   18MOL    H74 5208   5.190   4.309   0.896 -0.1417 -0.6174 -1.0881
   18MOL    H75 5209   5.260   4.143   0.882 -0.5585  1.1199 -1.4447
   18MOL    H76 5210   5.349   4.287   0.956 -0.6481  1.8286 -1.5147
   18MOL    C77 5211   5.105   4.170   1.329 -0.4663  0.5207  0.2733
   18MOL    C78 5212   5.214   4.225   1.432 -0.4105  0.2624 -0.3442
   18MOL    C79 5213   5.346   4.238   1.354 -0.7077  0.4498 -0.2320
   18MOL    C80 5214   5.175   4.362   1.480  0.5726 -0.6326 -0.3993
   18MOL    O81 5215   5.062   4.413   1.463  0.1359 -0.1889 -0.1937
   18MOL    O82 5216   5.284   4.435   1.529  0.1328  0.0763  0.2214
   18MOL    C83 5217   5.262   4.559   1.588  0.5196  0.4173 -0.3229
   18MOL    H84 5218   5.008   4.152   1.375 -0.6859 -1.4983 -0.9139
   18MOL    H85 5219   5.089   4.250   1.257  1.3397  0.8807  0.2562
   18MOL    H86 5220   5.431   4.274   1.413  0.5857  2.2492 -3.0953
   18MOL    H87 5221   5.379   4.150   1.299  1.3404  1.6581 -1.0301
   18MOL    H88 5222   5.330   4.307   1.271 -1.0845  0.0318 -0.5074
   18MOL    H89 5223   5.162   4.579   1.626  0.4549 -1.5492  0.6010
   18MOL    H90 5224   5.280   4.634   1.511 -0.6919 -0.9048 -1.9581
   18MOL    H91 5225   5.331   4.573   1.671 -0.2927  1.7535  0.1357
   18MOL    C92 5226   5.241   4.134   1.556 -0.9074  0.5449  0.2390
   18MOL    C93 5227   5.140   4.124   1.679 -0.4257 -0.2520  0.3421
   18MOL    C94 5228   4.994   4.098   1.628 -0.7242  0.1015  0.0215
   18MOL    C95 5229   5.182   4.000   1.766  0.0817 -0.3889  0.3040
   18MOL    O96 5230   5.094   3.922   1.800 -0.3207 -0.5824 -0.0227
   18MOL    O97 5231   5.321   3.991   1.789 -0.1256  0.1354 -0.0428
   18MOL    C98 5232   5.378   3.878   1.857 -0.0375  0.4523 -0.1483
   18MOL    H99 5233   5.339   4.168   1.592 -0.1449 -0.6079 -0.6928
   18MOL   H100 5234   5.260   4.034   1.517 -0.0184  0.3967  1.0052
   18MOL   H101 5235   4.955   4.192   1.590  0.4716  0.0955 -1.2798
   18MOL   H102 5236   4.989   4.027   1.545 -0.1022 -0.1650  0.2053
   18MOL   H103 5237   4.921   4.063   1.700  1.5093 -1.8165  1.4291
   18MOL   H104 5238   5.347   3.900   1.959  2.2642  1.0163  0.4545
   18MOL   H105 5239   5.486   3.882   1.847  0.1250 -0.4907  1.1764
   18MOL   H106 5240   5.331   3.781   1.838 -0.5565  0.9263 -1.3548
   18MOL   C107 5241   5.145   4.258   1.766  0.3344 -0.7376 -0.3035
   18MOL   C108 5242   5.088   4.281   1.919  0.0799  0.4222 -0.6835
   18MOL   C109 5243   5.174   4.184   2.009  0.7703  0.4834  0.4924
   18MOL   C110 5244   5.121   4.428   1.958 -0.1813 -0.4333 -0.5182
   18MOL   O111 5245   5.118   4.518   1.876 -0.3428 -0.1650  0.0181
   18MOL   O112 5246   5.126   4.451   2.086  0.7535  0.6125  0.1180
   18MOL   C113 5247   5.118   4.583   2.137 -0.2602  0.0160 -0.1981
   18MOL   H114 5248   5.090   4.334   1.709 -1.4151 -2.1556 -0.5577
   18MOL   H115 5249   5.242   4.307   1.756  0.6364 -1.3480 -0.3704
   18MOL   H116 5250   5.168   4.204   2.115 -1.3016  0.7295  0.3415
   18MOL   H117 5251   5.146   4.080   1.994  0.9620  0.3222  1.2372
   18MOL   H118 5252   5.279   4.189   1.980  0.8166  1.0026  0.7517
   18MOL   H119 5253   5.037   4.643   2.096  1.6541  1.0527 -2.6130
   18MOL   H120 5254   5.219   4.624   2.125 -0.2075 -0.2120 -0.5099
   18MOL   H121 5255   5.102   4.584   2.245 -0.9509  0.5551 -0.2972
   18MOL   C122 5256   4.934   4.248   1.931 -0.2558 -0.2862  0.4289
   18MOL   C123 5257   4.838   4.276   2.058  0.4363 -0.2026  0.1347
   18MOL   C124 5258   4.901   4.214   2.180  0.5026 -0.1251  0.3069
   18MOL   C125 5259   4.801   4.425   2.083  0.0964  0.7127 -0.1556
   18MOL   O126 5260   4.825   4.517   2.004  0.0194 -0.2442 -0.5287
   18MOL   O127 5261   4.756   4.442   2.208 -0.2967 -0.2740 -0.5826
   18MOL   C128 5262   4.713   4.579   2.253  0.2159  0.4541  0.5604
   18MOL   H129 5263   4.922   4.142   1.908 -1.1426 -0.2448  0.6763
   18MOL   H130 5264   4.888   4.289   1.842 -3.2892 -3.4969  0.4025
   18MOL   H131 5265   4.967   4.133   2.148 -0.7266 -1.4539  1.1249
   18MOL   H132 5266   4.972   4.271   2.240 -1.1950  1.4458  0.8760
   18MOL   H133 5267   4.833   4.175   2.256  0.6327 -1.1246 -0.0829
   18MOL   H134 5268   4.789   4.618   2.320  2.6099 -0.0775 -1.7599
   18MOL   H135 5269   4.619   4.559   2.305 -2.1761  0.3071 -3.6036
   18MOL   H136 5270   4.697   4.652   2.174  0.3737  1.4827  1.4846
   18MOL   C137 5271   4.699   4.198   2.038 -0.3375 -0.1709 -0.6460
   18MOL   C138 5272   4.600   4.204   1.908 -0.2203 -0.6247 -0.0725
   18MOL   C139 5273   4.592   4.355   1.861 -0.2768 -0.5475 -0.4342
   18MOL   C140 5274   4.641   4.114   1.794  0.4831  0.6206 -0.2338
   18MOL   O141 5275   4.647   4.155   1.680 -0.3634 -0.0967  0.0975
   18MOL   O142 5276   4.671   3.989   1.831  0.7271 -0.1832 -0.0862
   18MOL   C143 5277   4.709   3.885   1.743  0.4953 -0.3483 -0.9725
   18MOL   H144 5278   4.640   4.227   2.125  0.8446 -0.2527  0.2000
   18MOL   H145 5279   4.731   4.096   2.055 -1.2499 -0.5144 -0.9728
   18MOL   H146 5280   4.553   4.426   1.934  0.3590  2.2950 -2.7641
   18MOL   H147 5281   4.677   4.389   1.802 -0.4464  0.0845 -0.3256
   18MOL   H148 5282   4.520   4.361   1.780 -0.2685 -1.8684 -0.5440
   18MOL   H149 5283   4.631   3.823   1.700 -1.2874  1.1764  0.0031
   18MOL   H150 5284   4.771   3.820   1.805  2.3995  1.2387 -1.1362
   18MOL   H151 5285   4.773   3.919   1.661  0.8372  0.1495 -0.5085
   18MOL   C152 5286   4.463   4.171   1.969 -0.5941  0.0981 -0.0829
   18MOL   C153 5287   4.329   4.144   1.890 -0.0823  0.2922  0.2164
   18MOL   C154 5288   4.318   4.181   1.742  0.4475 -0.0347 -0.2212
   18MOL   C155 5289   4.298   3.991   1.892 -0.1518 -0.1789 -0.2724
   18MOL   O156 5290   4.384   3.907   1.900 -0.2237  0.0114  0.1258
   18MOL   O157 5291   4.165   3.964   1.891  0.2367 -0.3802  0.2286
   18MOL   C158 5292   4.121   3.831   1.895 -1.1274  0.2400 -0.3249
   18MOL   H159 5293   4.445   4.257   2.034  2.5889 -1.4968  3.1094
   18MOL   H160 5294   4.478   4.087   2.037  0.0146  0.7236  0.5721
   18MOL   H161 5295   4.306   4.288   1.727 -1.4979  0.4168  3.8869
   18MOL   H162 5296   4.407   4.144   1.690 -0.1381  0.3790 -1.5547
   18MOL   H163 5297   4.236   4.128   1.694 -1.6668  1.1247  2.0083
   18MOL   H164 5298   4.014   3.846   1.895 -1.0929  0.8804  3.1032
   18MOL   H165 5299   4.165   3.786   1.984  0.7171  0.6453 -1.0051
   18MOL   H166 5300   4.144   3.767   1.809  0.6872  3.8252 -2.6345
   18MOL   C167 5301   4.214   4.226   1.962 -0.5850 -0.2018 -0.1907
   18MOL   C168 5302   4.179   4.237   2.112  0.2805 -0.9838  0.1079
   18MOL   C169 5303   4.179   4.103   2.182  0.0918 -0.3970  0.0167
   18MOL   C170 5304   4.266   4.340   2.189  0.2075  0.3874 -0.4653
   18MOL   O171 5305   4.330   4.428   2.136 -0.0348 -0.3463 -0.0585
   18MOL   O172 5306   4.273   4.319   2.328 -0.0796  0.4037  0.2102
   18MOL   C173 5307   4.364   4.397   2.404 -0.9610 -0.1431 -0.1358
   18MOL   H174 5308   4.119   4.186   1.928 -0.8164 -0.7441  1.1024
   18MOL   H175 5309   4.223   4.325   1.917 -0.7364 -0.1120 -0.0229
   18MOL   H176 5310   4.143   4.098   2.285 -0.3802 -3.8825 -0.2512
   18MOL   H177 5311   4.131   4.023   2.126  2.0219 -2.0155  0.6048
   18MOL   H178 5312   4.283   4.068   2.185  1.9407  4.5346 -1.4176
   18MOL   H179 5313   4.465   4.360   2.389 -0.5124  1.1931 -0.4881
   18MOL   H180 5314   4.352   4.391   2.512 -0.4727  0.9761 -0.0108
   18MOL   H181 5315   4.352   4.505   2.396 -1.6427 -0.0158  2.3571
   18MOL   C182 5316   4.027   4.269   2.134 -0.2785  0.0063  0.7239
   18MOL   C183 5317   3.942   4.391   2.081 -0.8208  0.0519  0.3194
   18MOL   C184 5318   4.000   4.525   2.139 -0.5589  0.5080  0.2511
   18MOL   C185 5319   3.946   4.400   1.923 -0.4010  0.1032  0.0630
   18MOL   O186 5320   4.037   4.469   1.865  0.3147 -0.3427 -0.2752
   18MOL   O187 5321   3.854   4.332   1.852  0.5157 -0.7945 -0.1263
   18MOL   C188 5322   3.845   4.346   1.716 -0.9569 -0.3877 -0.1758
   18MOL   H189 5323   4.025   4.279   2.243 -1.5139  1.9929  0.5332
   18MOL   H190 5324   3.969   4.178   2.115 -1.1348  0.8462 -0.7292
   18MOL   H191 5325   4.009   4.536   2.247  1.4597 -0.0110  0.1535
   18MOL   H192 5326   4.099   4.536   2.094 -0.7195 -0.3168 -0.3018
   18MOL   H193 5327   3.944   4.610   2.099  1.4828  1.3998 -0.7948
   18MOL   H194 5328   3.741   4.331   1.690 -0.9619 -0.9816  0.2043
   18MOL   H195 5329   3.908   4.275   1.663  1.8721  0.3566  2.0523
   18MOL   H196 5330   3.877   4.446   1.685 -2.2504  0.3152  0.7464
   18MOL   C197 5331   3.795   4.375   2.133  0.1346 -0.0185 -0.0712
   18MOL   C198 5332   3.678   4.486   2.108 -0.5893 -0.3305 -0.4987
   18MOL   C199 5333   3.555   4.397   2.089  0.3596  0.1272 -0.5013
   18MOL   C200 5334   3.656   4.587   2.234  0.1407  0.7479  0.1822
   18MOL   O201 5335   3.544   4.591   2.291 -0.0293  0.1742 -0.4535
   18MOL   O202 5336   3.748   4.676   2.264  0.2930  0.0916 -0.6011
   18MOL   C203 5337   3.713   4.765   2.365  0.5297 -0.3913 -0.5916
   18MOL   H204 5338   3.801   4.378   2.242 -1.9298 -0.8269  0.1030
   18MOL   H205 5339   3.750   4.277   2.115 -1.5376  0.4805  1.1972
   18MOL   H206 5340   3.549   4.322   2.168  0.7877  0.4881 -0.1222
   18MOL   H207 5341   3.464   4.455   2.100 -0.3251 -1.3665  2.3682
   18MOL   H208 5342   3.550   4.338   1.998  0.2862  0.0396 -0.4409
   18MOL   H209 5343   3.790   4.841   2.361  1.6919 -1.4747  0.6536
   18MOL   H210 5344   3.739   4.717   2.459 -0.4164 -0.2576 -0.2577
   18MOL   H211 5345   3.607   4.793   2.362  0.4617 -0.3947  1.0934
   18MOL   C212 5346   3.685   4.570   1.978 -0.1333  0.3574 -1.0899
   18MOL   C213 5347   3.601   4.693   1.932 -0.1100  0.2371 -0.6550
   18MOL   C214 5348   3.457   4.652   1.955  0.2652  0.3928  0.4794
   18MOL   C215 5349   3.631   4.823   2.011 -0.0056  0.0396 -0.2309
   18MOL   O216 5350   3.540   4.875   2.079 -0.2160 -0.2666 -0.7794
   18MOL   O217 5351   3.762   4.852   2.018  0.1931 -0.2713  0.3685
   18MOL   C218 5352   3.812   4.965   2.086 -0.3246  0.1449 -0.3333
   18MOL   H219 5353   3.680   4.500   1.895 -1.5859 -1.1952  0.2622
   18MOL   H220 5354   3.788   4.606   1.980  0.3072 -0.8732 -1.6900
   18MOL   H221 5355   3.437   4.646   2.062  1.9627  1.3507  0.8704
   18MOL   H222 5356   3.387   4.735   1.940 -2.1734 -1.2966  2.2367
   18MOL   H223 5357   3.418   4.568   1.898  0.0082 -0.0334  1.2664
   18MOL   H224 5358   3.913   4.935   2.115 -0.4305 -0.1895 -0.3065
   18MOL   H225 5359   3.767   4.997   2.179  0.0782  0.1567 -0.1435
   18MOL   H226 5360   3.826   5.053   2.023 -0.3741  1.7128  1.8200
   18MOL   C227 5361   3.625   4.704   1.780  0.8231  0.2024  0.5284
   18MOL   C228 5362   3.578   4.815   1.680  0.2747 -0.1309  0.2182
   18MOL   C229 5363   3.639   4.954   1.714  0.2475  0.5640  0.0664
   18MOL   C230 5364   3.634   4.764   1.541  0.6124  0.1747 -0.2374
   18MOL   O231 5365   3.717   4.826   1.477 -0.4730  0.6928  0.1836
   18MOL   O232 5366   3.583   4.650   1.494  0.4399 -0.7076  0.0974
   18MOL   C233 5367   3.614   4.595   1.362 -0.4439  0.0533  0.2346
   18MOL   H234 5368   3.574   4.616   1.741  1.0258  1.0709 -1.7743
   18MOL   H235 5369   3.727   4.668   1.764  0.8558  1.3150 -2.0203
   18MOL   H236 5370   3.738   4.943   1.756 -0.0008 -1.3370  0.2269
   18MOL   H237 5371   3.654   5.007   1.619  0.9914  0.2217 -0.0104
   18MOL   H238 5372   3.575   5.012   1.781  0.2172  0.7991 -0.1654
   18MOL   H239 5373   3.605   4.675   1.288 -1.0901  1.4067  1.7552
   18MOL   H240 5374   3.546   4.516   1.331 -0.8285  0.2381  0.6018
   18MOL   H241 5375   3.713   4.550   1.367 -1.4378 -2.0713  1.4162
   18MOL   C242 5376   3.421   4.827   1.685 -0.1433 -0.7445 -0.2068
   18MOL   C243 5377   3.333   4.897   1.574  0.3865 -0.2773  0.0794
   18MOL   C244 5378   3.403   5.028   1.532 -0.0982 -0.0939 -0.0965
   18MOL   C245 5379   3.319   4.799   1.455 -0.2961 -0.0343  0.0043
   18MOL   O246 5380   3.377   4.822   1.344 -0.3779  0.0290 -0.2173
   18MOL   O247 5381   3.253   4.687   1.492  0.0550  0.1839  0.5106
   18MOL   C248 5382   3.252   4.573   1.404  0.2307  0.1209 -0.4764
   18MOL   H249 5383   3.396   4.886   1.773  1.2915 -0.4959  0.0356
   18MOL   H250 5384   3.374   4.731   1.706  0.1513 -0.7884  0.2438
   18MOL   H251 5385   3.504   5.011   1.496 -0.0948  0.3872 -0.3283
   18MOL   H252 5386   3.354   5.071   1.444 -0.3974  0.9550  0.5746
   18MOL   H253 5387   3.409   5.111   1.603  0.2739 -1.0357  0.9769
   18MOL   H254 5388   3.181   4.501   1.443  0.8128  0.4031  1.1117
   18MOL   H255 5389   3.349   4.527   1.388  0.2164 -1.3722  3.3326
   18MOL   H256 5390   3.219   4.593   1.302  0.4189  2.5430 -0.0972
   18MOL   C257 5391   3.190   4.926   1.634 -0.0295 -0.0618  0.2933
   18MOL   C258 5392   3.076   5.009   1.568  0.3795 -0.0650 -0.5175
   18MOL   C259 5393   3.030   4.938   1.437  0.1332  0.2092 -0.4375
   18MOL   C260 5394   2.958   5.006   1.668  0.5971  0.5867 -0.0691
   18MOL   O261 5395   2.980   5.013   1.787 -0.3271  0.6667 -0.1629
   18MOL   O262 5396   2.838   4.992   1.617 -0.6895 -0.4208 -0.6006
   18MOL   C263 5397   2.727   4.972   1.698  0.4999 -0.0015 -0.2110
   18MOL   H264 5398   3.212   4.966   1.734  1.0880 -2.0211  0.8588
   18MOL   H265 5399   3.152   4.827   1.657 -1.1958  0.9888  3.0859
   18MOL   H266 5400   3.046   4.835   1.468  0.4353  0.1743 -0.7002
   18MOL   H267 5401   2.927   4.943   1.400  0.3798 -0.9271 -1.3217
   18MOL   H268 5402   3.096   4.948   1.350 -0.8740  3.2906 -0.9124
   18MOL   H269 5403   2.727   4.871   1.739 -2.9019 -0.3197 -0.8816
   18MOL   H270 5404   2.640   4.988   1.634 -0.6059  1.4709  1.6095
   18MOL   H271 5405   2.716   5.050   1.773  0.6378 -0.0269 -0.1649
   18MOL   C272 5406   3.109   5.167   1.538 -0.0918 -0.8999  0.3130
   18MOL   C273 5407   2.995   5.277   1.508 -0.5731 -0.2363 -0.2628
   18MOL   C274 5408   2.905   5.244   1.392  0.0283  0.2693  0.0202
   18MOL   C275 5409   2.895   5.304   1.633 -0.0374  1.3390 -0.7229
   18MOL   O276 5410   2.775   5.300   1.629  0.0045 -0.7502 -0.0395
   18MOL   O277 5411   2.958   5.310   1.754  0.4384  0.1374  0.5528
   18MOL   C278 5412   2.890   5.356   1.869 -0.1686  0.4903 -0.0668
   18MOL   H279 5413   3.172   5.172   1.450  0.2130 -1.0064  0.5255
   18MOL   H280 5414   3.179   5.207   1.612  0.7889 -1.4164 -0.2361
   18MOL   H281 5415   2.866   5.329   1.337  1.8880  1.5545  0.6614
   18MOL   H282 5416   2.951   5.195   1.306 -1.4590 -2.0611  0.5058
   18MOL   H283 5417   2.825   5.174   1.418  0.2017  0.5444  1.3540
   18MOL   H284 5418   2.799   5.297   1.887 -0.1276  0.5628  0.3801
   18MOL   H285 5419   2.861   5.456   1.839 -1.0327  0.2924  0.0787
   18MOL   H286 5420   2.945   5.362   1.963 -0.3598  0.7229  0.0287
   18MOL   C287 5421   3.062   5.412   1.477  0.1207  0.1712  0.2571
   18MOL   C288 5422   3.136   5.417   1.341  0.0393 -0.1549  0.2011
   18MOL   C289 5423   3.107   5.542   1.257  0.2823 -0.7135 -0.0186
   18MOL   C290 5424   3.290   5.397   1.355  0.4172 -0.0133  0.6029
   18MOL   O291 5425   3.341   5.294   1.319 -0.1432 -0.0205  0.2375
   18MOL   O292 5426   3.356   5.495   1.409  0.2874  0.0201 -0.0189
   18MOL   C293 5427   3.494   5.491   1.454  0.3463 -0.1570  0.4875
   18MOL   H294 5428   3.126   5.441   1.560 -0.6827  0.1694  0.8807
   18MOL   H295 5429   2.981   5.483   1.465  0.3769  0.2321 -1.1550
   18MOL   H296 5430   3.189   5.547   1.186  0.6033 -0.8572  0.3386
   18MOL   H297 5431   3.009   5.528   1.212 -1.2850 -1.3471  3.4161
   18MOL   H298 5432   3.106   5.630   1.322  1.0698 -1.4053  0.9574
   18MOL   H299 5433   3.515   5.394   1.500 -0.6995 -0.6366 -0.0436
   18MOL   H300 5434   3.513   5.557   1.538 -2.3130  0.7922  0.3860
   18MOL   H301 5435   3.564   5.512   1.373 -0.7080 -0.6397 -0.5589
   18MOL   H302 5436   3.097   5.330   1.289 -2.5281  0.0489  1.7343
   19MOL     C1 5437   1.534   2.890   6.042 -0.1203 -0.0102  0.6607
   19MOL     C2 5438   1.619   2.831   5.927  0.8214  0.0595 -0.7657
   19MOL     C3 5439   1.765   2.865   5.945  0.2356 -0.5918  0.1218
   19MOL     C4 5440   1.618   2.674   5.952  0.2039 -0.2810  0.9219
   19MOL     O5 5441   1.577   2.625   6.058 -1.0828  0.8891  0.0891
   19MOL     O6 5442   1.679   2.606   5.854  0.1496  0.4729  0.5721
   19MOL     C7 5443   1.693   2.464   5.868 -0.5776  0.4633  0.7285
   19MOL     H8 5444   1.526   2.998   6.040  1.1038  0.0916  1.1932
   19MOL     H9 5445   1.428   2.863   6.041  0.0879 -0.9867  2.0775
   19MOL    H10 5446   1.822   2.842   5.856 -0.0098  0.4879 -0.3246
   19MOL    H11 5447   1.790   2.965   5.981 -3.0751  1.3770 -2.7363
   19MOL    H12 5448   1.798   2.807   6.031  0.5767 -0.2624  0.2179
   19MOL    H13 5449   1.674   2.424   5.967 -0.0205  1.1296  1.1131
   19MOL    H14 5450   1.795   2.433   5.846 -0.2236  1.3715  1.0709
   19MOL    H15 5451   1.616   2.420   5.804 -2.6711  2.1385  2.0473
   19MOL    H16 5452   1.577   2.860   6.138 -1.0282 -0.0381  1.0623
   19MOL    C17 5453   1.574   2.868   5.781 -0.3511  0.3062  0.1347
   19MOL    C18 5454   1.425   2.838   5.738  0.4717  0.2190  0.0120
   19MOL    C19 5455   1.379   2.698   5.769  0.2539  0.7644  0.0541
   19MOL    C20 5456   1.330   2.939   5.803  0.0577 -0.8900 -0.0961
   19MOL    O21 5457   1.365   3.039   5.859 -0.2045  0.0033 -0.1823
   19MOL    O22 5458   1.197   2.910   5.776  0.2575 -0.1835  0.7433
   19MOL    C23 5459   1.101   3.000   5.826 -0.1243  0.9920 -0.2630
   19MOL    H24 5460   1.629   2.815   5.703  0.4629  0.5964  0.5007
   19MOL    H25 5461   1.604   2.970   5.753 -1.8423  0.2745 -1.6846
   19MOL    H26 5462   1.354   2.679   5.874  0.5440 -2.1058 -0.3435
   19MOL    H27 5463   1.282   2.675   5.725 -0.3534  2.0516  0.6985
   19MOL    H28 5464   1.441   2.618   5.728  1.3222  1.8423 -0.4694
   19MOL    H29 5465   1.003   2.960   5.851 -0.7159  0.7068 -2.9389
   19MOL    H30 5466   1.090   3.074   5.747  0.0560  2.3946  0.9927
   19MOL    H31 5467   1.127   3.054   5.917 -1.1389 -0.0379  0.6507
   19MOL    C32 5468   1.427   2.840   5.572  0.6801  0.1108 -1.0425
   19MOL    C33 5469   1.474   2.959   5.481  0.1964 -0.3194  0.1896
   19MOL    C34 5470   1.421   3.089   5.543 -0.4597 -0.4021 -0.2048
   19MOL    C35 5471   1.628   2.965   5.459  0.4449  0.0327  0.5679
   19MOL    O36 5472   1.689   3.072   5.443  0.5217  0.1911 -0.3407
   19MOL    O37 5473   1.689   2.847   5.444 -1.0126 -0.1428 -0.0967
   19MOL    C38 5474   1.835   2.843   5.421 -0.3503 -0.6499  0.3996
   19MOL    H39 5475   1.320   2.827   5.552  0.3600  0.7898  0.2020
   19MOL    H40 5476   1.474   2.750   5.533  0.6217  0.3576 -1.6861
   19MOL    H41 5477   1.314   3.078   5.556 -0.7967  0.6553 -1.9135
   19MOL    H42 5478   1.486   3.117   5.626  0.1024 -2.3603  0.0544
   19MOL    H43 5479   1.431   3.181   5.485  0.5155 -0.0383  0.5158
   19MOL    H44 5480   1.876   2.743   5.414  2.9357  0.6026  0.9123
   19MOL    H45 5481   1.882   2.890   5.507 -1.0097 -0.5378  0.6979
   19MOL    H46 5482   1.865   2.885   5.325  0.5867 -1.6095  0.2565
   19MOL    C47 5483   1.402   2.955   5.337 -0.5231 -0.6106  0.3147
   19MOL    C48 5484   1.413   2.838   5.229  0.3634 -0.6132 -0.3624
   19MOL    C49 5485   1.560   2.815   5.192 -0.0259 -0.3848 -0.5051
   19MOL    C50 5486   1.354   2.705   5.280 -1.1339  0.6548  0.5150
   19MOL    O51 5487   1.418   2.602   5.266  0.2765 -0.1789  0.0417
   19MOL    O52 5488   1.236   2.718   5.340  0.1643  0.1542 -0.1279
   19MOL    C53 5489   1.176   2.599   5.388 -0.1507  0.4074 -0.1465
   19MOL    H54 5490   1.447   3.043   5.292 -0.4587 -1.8569 -2.1674
   19MOL    H55 5491   1.300   2.990   5.356  0.1098  1.1527  0.5757
   19MOL    H56 5492   1.611   2.910   5.182  0.6847 -0.6019  0.9481
   19MOL    H57 5493   1.615   2.751   5.261  0.5746  1.7151  0.9901
   19MOL    H58 5494   1.580   2.770   5.094  0.6401 -0.4515 -0.3398
   19MOL    H59 5495   1.094   2.620   5.458  1.7358  1.6906  1.7572
   19MOL    H60 5496   1.245   2.538   5.447 -0.1084  1.5631  1.0427
   19MOL    H61 5497   1.136   2.540   5.305  0.8231  1.5648 -1.4390
   19MOL    C62 5498   1.337   2.902   5.103  0.0807  0.2282  0.2966
   19MOL    C63 5499   1.271   2.813   4.983  0.1515 -0.1423  0.0361
   19MOL    C64 5500   1.362   2.693   4.941 -0.1833  0.0656 -0.0951
   19MOL    C65 5501   1.146   2.749   5.039  0.6064 -0.4791 -0.4118
   19MOL    O66 5502   1.116   2.631   5.019 -0.1674 -0.0167 -0.2922
   19MOL    O67 5503   1.065   2.841   5.099 -0.2951 -0.2269 -0.2016
   19MOL    C68 5504   0.941   2.802   5.157  0.6031 -0.2983 -0.8934
   19MOL    H69 5505   1.407   2.968   5.052 -1.4896  1.8421  0.1807
   19MOL    H70 5506   1.254   2.965   5.136 -0.7016  0.0303 -1.2415
   19MOL    H71 5507   1.317   2.623   4.871  0.9490  0.8469 -1.6225
   19MOL    H72 5508   1.460   2.724   4.906 -0.3949 -0.4440 -1.1470
   19MOL    H73 5509   1.397   2.630   5.023 -1.1255 -1.7940 -1.0933
   19MOL    H74 5510   0.911   2.705   5.117  0.1276 -0.2381 -0.6891
   19MOL    H75 5511   0.855   2.869   5.144 -1.1921 -2.2322  0.6639
   19MOL    H76 5512   0.948   2.794   5.265  1.0736  3.6771 -0.5300
   19MOL    C77 5513   1.231   2.899   4.861 -0.7038  0.0736 -0.1258
   19MOL    C78 5514   1.329   2.959   4.751 -0.1016  0.4988 -0.2502
   19MOL    C79 5515   1.380   2.848   4.662 -0.5230 -0.3211 -0.1793
   19MOL    C80 5516   1.248   3.053   4.652  0.1279  0.1456  0.2860
   19MOL    O81 5517   1.132   3.084   4.664  0.1727 -0.1136  0.2305
   19MOL    O82 5518   1.324   3.100   4.549 -1.3294  0.3973 -0.2057
   19MOL    C83 5519   1.267   3.157   4.436  0.0450 -0.3734  0.2624
   19MOL    H84 5520   1.168   2.981   4.896 -2.5534 -1.9116  1.3338
   19MOL    H85 5521   1.171   2.846   4.787  0.1984 -2.4930  0.9457
   19MOL    H86 5522   1.300   2.797   4.609 -1.5404  1.4140 -0.3601
   19MOL    H87 5523   1.443   2.892   4.584 -0.6182 -0.4841 -0.3480
   19MOL    H88 5524   1.439   2.769   4.707 -0.7334 -0.8933 -0.9038
   19MOL    H89 5525   1.193   3.095   4.387  0.0269 -0.2623  0.1489
   19MOL    H90 5526   1.341   3.177   4.358 -0.8794 -0.4886 -0.6494
   19MOL    H91 5527   1.219   3.252   4.462  0.0343 -0.7207  1.5777
   19MOL    C92 5528   1.445   3.055   4.809 -0.1956  0.0982  0.9491
   19MOL    C93 5529   1.426   3.203   4.872 -0.3675  0.7036  0.6106
   19MOL    C94 5530   1.286   3.223   4.935 -0.0599  0.4602 -0.0478
   19MOL    C95 5531   1.533   3.216   4.984 -0.0969  0.8278 -0.4906
   19MOL    O96 5532   1.637   3.159   4.985 -0.4214  0.0610 -0.0505
   19MOL    O97 5533   1.503   3.308   5.088 -0.5199  0.3687 -0.2564
   19MOL    C98 5534   1.602   3.365   5.171 -0.2876  0.8090  0.5722
   19MOL    H99 5535   1.518   3.058   4.728 -3.7679 -1.5399 -2.5221
   19MOL   H100 5536   1.498   2.991   4.879  1.1701 -0.6632 -0.7492
   19MOL   H101 5537   1.205   3.226   4.862  0.4560  0.4299 -0.6215
   19MOL   H102 5538   1.268   3.149   5.013  0.6061  1.1643  0.7812
   19MOL   H103 5539   1.286   3.321   4.983  1.7304  0.4347  0.0231
   19MOL   H104 5540   1.706   3.350   5.142 -0.1375  1.2748  0.8671
   19MOL   H105 5541   1.591   3.321   5.271  1.9677 -0.3024  0.3732
   19MOL   H106 5542   1.595   3.474   5.174  1.9035  1.0454 -1.2633
   19MOL   C107 5543   1.436   3.310   4.763 -0.5153 -0.1669  0.0554
   19MOL   C108 5544   1.548   3.425   4.741 -0.2257  0.3778  0.6133
   19MOL   C109 5545   1.528   3.532   4.852 -0.2263  0.0490 -0.5088
   19MOL   C110 5546   1.685   3.357   4.737  0.4278  0.3714 -0.2314
   19MOL   O111 5547   1.706   3.256   4.665  0.0583 -0.4536 -0.5239
   19MOL   O112 5548   1.782   3.418   4.804  1.2262 -0.2093  0.0863
   19MOL   C113 5549   1.908   3.365   4.812 -0.1846  0.5314  0.3158
   19MOL   H114 5550   1.340   3.361   4.763 -1.0082 -1.0578 -1.3992
   19MOL   H115 5551   1.436   3.260   4.666 -0.8506  0.7250 -0.4118
   19MOL   H116 5552   1.620   3.545   4.908 -1.1276 -0.0183  1.0034
   19MOL   H117 5553   1.490   3.619   4.799 -1.0933 -1.2052 -2.0194
   19MOL   H118 5554   1.448   3.510   4.923 -1.4278  2.6660 -0.9915
   19MOL   H119 5555   1.981   3.434   4.854 -1.5418  1.3250  1.3906
   19MOL   H120 5556   1.939   3.329   4.714 -1.8172 -1.6065  0.5410
   19MOL   H121 5557   1.915   3.278   4.878  1.2719  0.0926 -0.4013
   19MOL   C122 5558   1.508   3.495   4.604  0.7004 -0.5655  0.0428
   19MOL   C123 5559   1.607   3.584   4.517 -0.1019  0.0172  0.5362
   19MOL   C124 5560   1.707   3.497   4.433  0.5786  0.1762  0.2669
   19MOL   C125 5561   1.517   3.662   4.411 -0.0565  0.4729 -0.2471
   19MOL   O126 5562   1.479   3.780   4.428 -0.1456 -0.1585 -0.1899
   19MOL   O127 5563   1.463   3.588   4.311 -0.3819 -0.6993  0.0277
   19MOL   C128 5564   1.424   3.658   4.187  0.2763  0.6515 -0.0960
   19MOL   H129 5565   1.409   3.538   4.614 -0.2521 -2.2229 -1.9106
   19MOL   H130 5566   1.490   3.423   4.524  2.9114  1.0898 -2.0206
   19MOL   H131 5567   1.746   3.573   4.366 -3.2633 -0.0677 -2.4034
   19MOL   H132 5568   1.792   3.458   4.488  1.4242  0.3170 -0.9195
   19MOL   H133 5569   1.658   3.421   4.371 -0.7377 -0.4885  2.0832
   19MOL   H134 5570   1.516   3.714   4.170  0.2836 -0.0185 -2.5165
   19MOL   H135 5571   1.340   3.724   4.207 -0.2418  0.2651 -0.9369
   19MOL   H136 5572   1.410   3.591   4.102  2.8559 -0.6485  0.4621
   19MOL   C137 5573   1.685   3.686   4.611 -0.2880 -0.3594 -0.1443
   19MOL   C138 5574   1.810   3.779   4.581 -0.1275  0.5448 -0.6724
   19MOL   C139 5575   1.783   3.858   4.457  0.4457  0.2364  0.6520
   19MOL   C140 5576   1.817   3.873   4.705  0.0965  0.1816  0.0071
   19MOL   O141 5577   1.813   3.989   4.690  0.3089 -0.4104 -0.2750
   19MOL   O142 5578   1.827   3.812   4.819  0.4006 -0.3768 -0.7790
   19MOL   C143 5579   1.829   3.877   4.946 -0.4566  0.4130 -0.5546
   19MOL   H144 5580   1.704   3.628   4.702 -2.0740  0.5639  0.8383
   19MOL   H145 5581   1.610   3.757   4.645  1.2852  1.4556 -0.4369
   19MOL   H146 5582   1.784   3.797   4.366  1.7802  0.6199  0.3912
   19MOL   H147 5583   1.685   3.906   4.462  0.3289 -0.0296  0.9439
   19MOL   H148 5584   1.857   3.935   4.434 -0.6689  1.6325  1.6165
   19MOL   H149 5585   1.906   3.954   4.941  0.4495 -0.2122  2.4229
   19MOL   H150 5586   1.835   3.804   5.027  1.1493  0.0341 -0.9890
   19MOL   H151 5587   1.728   3.915   4.960 -0.6938 -1.0027  1.8847
   19MOL   C152 5588   1.937   3.680   4.570 -0.6345  0.0237 -0.5802
   19MOL   C153 5589   2.091   3.724   4.592  0.0422  0.4361  0.0392
   19MOL   C154 5590   2.115   3.853   4.520 -0.1528  0.0118  0.5224
   19MOL   C155 5591   2.121   3.742   4.743  0.6300  0.3030  0.1629
   19MOL   O156 5592   2.066   3.668   4.823 -0.1808  0.0603 -0.3402
   19MOL   O157 5593   2.210   3.838   4.777  0.1317 -0.4787  0.1215
   19MOL   C158 5594   2.245   3.870   4.909 -0.1742  0.0770 -0.3756
   19MOL   H159 5595   1.926   3.631   4.473  1.2716 -1.1495 -0.2279
   19MOL   H160 5596   1.916   3.595   4.634 -2.7310  1.6790  0.9959
   19MOL   H161 5597   2.043   3.926   4.555 -0.4429  0.2556 -0.5418
   19MOL   H162 5598   2.213   3.897   4.537 -0.0651 -0.2272  0.6389
   19MOL   H163 5599   2.112   3.833   4.413  0.6010 -1.0811  0.6980
   19MOL   H164 5600   2.315   3.793   4.942 -1.4929 -2.2834 -2.8780
   19MOL   H165 5601   2.158   3.865   4.974  1.0903  1.8062  1.5039
   19MOL   H166 5602   2.291   3.967   4.926  1.3269 -0.6439 -0.2338
   19MOL   C167 5603   2.172   3.609   4.523  0.0434  0.8709 -0.1628
   19MOL   C168 5604   2.331   3.591   4.527 -0.4768  0.1142 -0.0234
   19MOL   C169 5605   2.405   3.720   4.474  0.2704  0.6344 -0.0139
   19MOL   C170 5606   2.379   3.571   4.667  0.4443 -0.2159 -0.2809
   19MOL   O171 5607   2.474   3.628   4.721  0.0724  0.5748  0.3351
   19MOL   O172 5608   2.298   3.493   4.734 -0.2093 -0.2802 -0.1124
   19MOL   C173 5609   2.327   3.469   4.871  0.3308 -1.0720 -0.2619
   19MOL   H174 5610   2.146   3.579   4.422  2.0010 -2.1908  0.1822
   19MOL   H175 5611   2.135   3.522   4.578 -2.3178  0.7372 -1.8763
   19MOL   H176 5612   2.374   3.768   4.381  0.1574 -1.2912 -0.9948
   19MOL   H177 5613   2.418   3.797   4.551 -0.1321  0.0386  0.6593
   19MOL   H178 5614   2.508   3.690   4.454 -0.1023 -0.7642  0.1149
   19MOL   H179 5615   2.251   3.405   4.916 -0.4738 -1.2700 -1.8766
   19MOL   H180 5616   2.351   3.559   4.928 -0.5079 -2.5190  2.4906
   19MOL   H181 5617   2.416   3.406   4.864 -0.8102 -2.5236 -1.9011
   19MOL   C182 5618   2.381   3.470   4.434 -0.1076 -1.0261  0.2907
   19MOL   C183 5619   2.362   3.316   4.458  0.1497  0.1964  0.2394
   19MOL   C184 5620   2.457   3.257   4.571 -0.4826 -0.9561  0.6376
   19MOL   C185 5621   2.210   3.287   4.478  0.8163  0.0196 -0.0070
   19MOL   O186 5622   2.170   3.236   4.586 -0.0495  0.3729  0.3456
   19MOL   O187 5623   2.138   3.322   4.373 -0.0131  0.1679 -0.0116
   19MOL   C188 5624   1.993   3.315   4.378  0.4821 -0.4167  0.2774
   19MOL   H189 5625   2.483   3.486   4.400 -0.5145  0.1094 -0.3957
   19MOL   H190 5626   2.323   3.489   4.344 -2.1255  0.4041  1.8448
   19MOL   H191 5627   2.543   3.206   4.529 -1.6237 -2.1162 -0.3230
   19MOL   H192 5628   2.510   3.333   4.629  0.9142 -1.0344 -0.5295
   19MOL   H193 5629   2.399   3.197   4.642 -1.5801  0.0985  0.6644
   19MOL   H194 5630   1.954   3.214   4.387  3.6029 -1.9331 -2.2324
   19MOL   H195 5631   1.935   3.374   4.306  2.2898  0.2603 -0.6697
   19MOL   H196 5632   1.984   3.363   4.475  1.2442 -1.4988  0.8826
   19MOL   C197 5633   2.406   3.241   4.321 -0.0119  0.4881 -0.4631
   19MOL   C198 5634   2.416   3.081   4.293  0.4727 -0.4609  0.6935
   19MOL   C199 5635   2.465   3.006   4.423  0.1580  0.3278  0.6678
   19MOL   C200 5636   2.274   3.030   4.257 -0.3876 -0.4425  0.2851
   19MOL   O201 5637   2.222   2.942   4.326 -0.0844  0.4145  0.0445
   19MOL   O202 5638   2.211   3.096   4.155 -0.1022  0.2100 -0.4950
   19MOL   C203 5639   2.074   3.069   4.120 -0.0156 -0.3222 -0.0621
   19MOL   H204 5640   2.507   3.281   4.311 -0.1522  1.3873  1.3815
   19MOL   H205 5641   2.357   3.293   4.239  0.2958  0.5494 -0.6063
   19MOL   H206 5642   2.396   3.024   4.505 -0.8769  1.8747 -0.5176
   19MOL   H207 5643   2.454   2.898   4.420 -2.0635  0.5843 -2.7073
   19MOL   H208 5644   2.568   3.025   4.454  1.3479 -1.0881 -2.2281
   19MOL   H209 5645   2.055   2.987   4.050  2.4558 -0.8808 -0.1145
   19MOL   H210 5646   2.041   3.160   4.070 -1.6756  0.5646  2.5794
   19MOL   H211 5647   2.004   3.070   4.203  1.5447  1.7804  1.2665
   19MOL   C212 5648   2.510   3.074   4.170  0.0313  0.2365 -0.2637
   19MOL   C213 5649   2.537   2.956   4.078  0.5305  0.4624  0.1529
   19MOL   C214 5650   2.538   2.832   4.163 -0.1862  0.4659 -0.2045
   19MOL   C215 5651   2.438   2.940   3.965  0.7311 -0.2916  0.4133
   19MOL   O216 5652   2.341   3.009   3.943  0.0923  0.1547 -0.0265
   19MOL   O217 5653   2.468   2.846   3.880 -0.7490  0.1061 -0.1792
   19MOL   C218 5654   2.378   2.808   3.776 -0.1558 -0.0586 -0.4210
   19MOL   H219 5655   2.602   3.107   4.220 -0.0193 -0.3653  0.2344
   19MOL   H220 5656   2.484   3.154   4.101 -1.6851 -0.9475 -0.9875
   19MOL   H221 5657   2.441   2.794   4.196 -0.0123  2.0563  2.2873
   19MOL   H222 5658   2.568   2.748   4.100  0.7572  0.0607  0.7600
   19MOL   H223 5659   2.612   2.823   4.243  2.2554  0.7380 -2.3533
   19MOL   H224 5660   2.379   2.699   3.780  0.6989 -0.1609 -2.6046
   19MOL   H225 5661   2.425   2.839   3.683  0.0321 -0.7848 -0.5718
   19MOL   H226 5662   2.272   2.831   3.785 -0.5462 -1.7648 -0.5528
   19MOL   C227 5663   2.687   2.966   4.013 -0.5803 -0.0889 -0.2490
   19MOL   C228 5664   2.755   3.091   3.942  0.0418 -0.6917 -0.1620
   19MOL   C229 5665   2.661   3.150   3.831  0.1623 -0.5267 -0.2253
   19MOL   C230 5666   2.780   3.203   4.048  0.2219 -0.1979  0.5960
   19MOL   O231 5667   2.746   3.319   4.028  0.1987  0.0187 -0.3392
   19MOL   O232 5668   2.852   3.164   4.153 -0.3201 -0.0904  0.3719
   19MOL   C233 5669   2.920   3.255   4.233 -0.1152  0.0916 -0.7301
   19MOL   H234 5670   2.695   2.886   3.939 -1.3808 -0.3874 -0.0187
   19MOL   H235 5671   2.752   2.945   4.097  2.1674 -0.3266 -2.3656
   19MOL   H236 5672   2.677   3.254   3.803 -1.7280 -0.2611 -0.3998
   19MOL   H237 5673   2.655   3.093   3.738 -0.1720 -1.3132  0.2746
   19MOL   H238 5674   2.560   3.163   3.872  0.2159  1.0515 -0.5631
   19MOL   H239 5675   2.959   3.345   4.186 -0.4079  2.5107  3.5187
   19MOL   H240 5676   2.997   3.200   4.287 -1.3425  2.2014  3.2840
   19MOL   H241 5677   2.854   3.279   4.316  0.8029 -0.4934  0.1731
   19MOL   C242 5678   2.894   3.043   3.877 -0.1537 -0.6237 -0.4157
   19MOL   C243 5679   3.007   3.121   3.788  0.5686  0.0535 -0.0734
   19MOL   C244 5680   3.133   3.028   3.774 -0.0315  0.0149 -0.3890
   19MOL   C245 5681   2.955   3.154   3.645 -0.2996 -0.3030 -0.6807
   19MOL   O246 5682   2.993   3.087   3.545 -0.2438  0.6353 -0.2720
   19MOL   O247 5683   2.855   3.240   3.644 -0.0697 -0.4131 -0.0295
   19MOL   C248 5684   2.795   3.291   3.519 -0.3092  0.1188 -0.5876
   19MOL   H249 5685   2.857   2.963   3.813  0.9479 -1.3422 -0.1686
   19MOL   H250 5686   2.941   2.979   3.952  0.9812 -0.3629 -0.9028
   19MOL   H251 5687   3.128   2.935   3.718 -0.2879 -0.1296 -0.1301
   19MOL   H252 5688   3.218   3.080   3.730 -0.8489  0.6342 -1.2696
   19MOL   H253 5689   3.171   3.010   3.874  1.0974 -0.3628 -0.8777
   19MOL   H254 5690   2.746   3.204   3.474  1.7931 -1.6764  0.5008
   19MOL   H255 5691   2.876   3.322   3.453  0.0699 -3.5265 -1.9273
   19MOL   H256 5692   2.714   3.362   3.532  1.0552  1.8104 -1.0682
   19MOL   C257 5693   3.040   3.257   3.862 -0.0440 -0.1192  0.2931
   19MOL   C258 5694   3.150   3.359   3.831  0.2456 -0.5516 -0.1103
   19MOL   C259 5695   3.163   3.378   3.677  0.1475 -0.5876 -0.0263
   19MOL   C260 5696   3.095   3.492   3.886 -0.3896  0.3441 -0.2561
   19MOL   O261 5697   3.067   3.576   3.810 -0.1885  0.1750  0.5826
   19MOL   O262 5698   3.083   3.482   4.024 -0.0997  0.0133 -0.5855
   19MOL   C263 5699   3.028   3.597   4.087 -0.1578  0.5561 -0.2061
   19MOL   H264 5700   3.058   3.238   3.968 -0.7985  1.8812  0.7904
   19MOL   H265 5701   2.942   3.303   3.851 -0.2358  0.0435  2.4573
   19MOL   H266 5702   3.063   3.385   3.633  0.0218 -1.7452  0.0478
   19MOL   H267 5703   3.218   3.464   3.640 -2.4000  0.8546 -0.5579
   19MOL   H268 5704   3.207   3.284   3.644  1.1199 -0.0725 -0.1922
   19MOL   H269 5705   3.002   3.578   4.191  0.9565 -1.4250 -0.2759
   19MOL   H270 5706   2.943   3.634   4.030 -0.7051  0.6697  0.6605
   19MOL   H271 5707   3.088   3.686   4.066 -1.0412  1.3611  0.6041
   19MOL   C272 5708   3.289   3.322   3.902  0.2360 -0.3395 -0.3538
   19MOL   C273 5709   3.429   3.392   3.874  0.4729 -0.3049  0.3404
   19MOL   C274 5710   3.516   3.326   3.978 -0.4937 -0.5562 -1.0543
   19MOL   C275 5711   3.475   3.349   3.733  0.2645  0.7405  0.0967
   19MOL   O276 5712   3.503   3.426   3.643 -0.0068  0.3790  0.3471
   19MOL   O277 5713   3.477   3.216   3.715  0.3700  0.2190  0.6722
   19MOL   C278 5714   3.509   3.166   3.589 -0.3600  0.2125 -0.2178
   19MOL   H279 5715   3.315   3.219   3.880  3.0400  0.1764  0.3589
   19MOL   H280 5716   3.277   3.329   4.010  0.9394  0.6425 -0.3343
   19MOL   H281 5717   3.510   3.218   3.983 -3.3124 -0.3642  1.0554
   19MOL   H282 5718   3.621   3.347   3.955  0.0967 -1.3723  0.8678
   19MOL   H283 5719   3.495   3.356   4.080 -3.0324 -0.6356 -1.5231
   19MOL   H284 5720   3.427   3.198   3.525 -1.4701 -1.3026  0.4260
   19MOL   H285 5721   3.511   3.057   3.598  2.0542  0.3328  1.1774
   19MOL   H286 5722   3.607   3.198   3.551 -0.8355  2.1558  0.1634
   19MOL   C287 5723   3.417   3.548   3.890 -0.1213 -0.2782  0.1058
   19MOL   C288 5724   3.554   3.625   3.871  0.2481 -0.3073  0.1363
   19MOL   C289 5725   3.553   3.742   3.770  0.3479  0.0075  0.0181
   19MOL   C290 5726   3.616   3.665   4.004 -0.2081 -0.2404 -0.2133
   19MOL   O291 5727   3.563   3.655   4.117 -0.1120 -0.0039 -0.0715
   19MOL   O292 5728   3.739   3.715   3.984  0.5550 -0.5858 -0.4740
   19MOL   C293 5729   3.807   3.758   4.102 -0.0157  0.1602  0.3194
   19MOL   H294 5730   3.375   3.573   3.987  2.2520  2.3525  0.5325
   19MOL   H295 5731   3.349   3.590   3.817  0.5550  0.5785 -0.0387
   19MOL   H296 5732   3.508   3.724   3.672  1.2549  2.3795 -0.8615
   19MOL   H297 5733   3.495   3.827   3.805 -0.2745 -0.3782 -0.0596
   19MOL   H298 5734   3.652   3.780   3.742  1.6590 -3.8058 -0.8473
   19MOL   H299 5735   3.750   3.832   4.158 -0.8363 -0.8572  0.8634
   19MOL   H300 5736   3.901   3.803   4.071 -1.3238  1.2678 -2.1135
   19MOL   H301 5737   3.838   3.672   4.162 -1.0675  0.7821  1.8006
   19MOL   H302 5738   3.628   3.553   3.837 -1.0081 -0.9830 -1.2603
   20MOL     C1 5739   7.665   0.690   0.351  0.0860  0.2691  0.2183
   20MOL     C2 5740   7.530   0.763   0.355 -0.1181  0.1283 -0.6000
   20MOL     C3 5741   7.564   0.919   0.346  0.4192 -0.1908  0.0405
   20MOL     C4 5742   7.440   0.714   0.240  0.0403 -0.7101  0.0112
   20MOL     O5 5743   7.412   0.788   0.147 -0.0481 -0.1131  0.2634
   20MOL     O6 5744   7.400   0.585   0.254  0.3831 -0.0613  0.0057
   20MOL     C7 5745   7.312   0.529   0.165 -0.0581 -0.6478 -0.3726
   20MOL     H8 5746   7.729   0.728   0.272  0.2933 -1.9102 -0.6854
   20MOL     H9 5747   7.721   0.698   0.445  1.4669 -2.0286 -0.3721
   20MOL    H10 5748   7.485   0.990   0.325  0.1140 -0.9626 -1.5223
   20MOL    H11 5749   7.617   0.953   0.435  1.4926  1.2154 -1.1150
   20MOL    H12 5750   7.636   0.926   0.265  3.4288 -1.3011  2.5025
   20MOL    H13 5751   7.238   0.602   0.135  1.8939  1.1741 -0.9083
   20MOL    H14 5752   7.259   0.446   0.211 -0.9477  0.3606  0.4452
   20MOL    H15 5753   7.376   0.496   0.083  0.0083 -0.6860 -0.3053
   20MOL    H16 5754   7.641   0.585   0.333  1.2430  0.1750 -0.8207
   20MOL    C17 5755   7.464   0.733   0.496  0.1092  0.3173  0.5053
   20MOL    C18 5756   7.342   0.815   0.553 -0.0627 -0.6511  0.0077
   20MOL    C19 5757   7.308   0.728   0.685 -0.1014 -0.0279 -0.0114
   20MOL    C20 5758   7.383   0.956   0.591 -0.6944 -0.8368 -0.7144
   20MOL    O21 5759   7.353   1.052   0.520 -0.4293  0.0691  0.4621
   20MOL    O22 5760   7.460   0.961   0.696 -0.1039  0.1026 -0.3184
   20MOL    C23 5761   7.510   1.085   0.740  0.1480 -0.8444  0.5327
   20MOL    H24 5762   7.534   0.734   0.581  1.7276  2.7681 -0.8069
   20MOL    H25 5763   7.433   0.629   0.489  0.9505  0.0514  0.6096
   20MOL    H26 5764   7.395   0.699   0.743  0.6556  1.1512 -0.5153
   20MOL    H27 5765   7.243   0.775   0.759  0.7744  1.6401 -0.2695
   20MOL    H28 5766   7.271   0.630   0.656 -1.0221  0.3268 -0.0290
   20MOL    H29 5767   7.431   1.155   0.716  1.9388 -0.0852 -3.4978
   20MOL    H30 5768   7.601   1.123   0.694 -1.6480  0.8037 -1.7525
   20MOL    H31 5769   7.517   1.070   0.848 -1.2181  1.1827  0.9272
   20MOL    C32 5770   7.224   0.811   0.451 -0.0536  0.3755 -0.0033
   20MOL    C33 5771   7.074   0.846   0.495  0.1068 -0.4372  0.8318
   20MOL    C34 5772   7.082   0.985   0.556  0.0995 -0.3192 -0.0603
   20MOL    C35 5773   6.999   0.859   0.360  0.0061 -0.0614  0.6419
   20MOL    O36 5774   7.020   0.785   0.265 -0.1122  0.0300  0.4697
   20MOL    O37 5775   6.895   0.954   0.353 -0.0933  0.1936 -0.2311
   20MOL    C38 5776   6.830   0.971   0.227  0.6661 -0.0723  0.0434
   20MOL    H39 5777   7.232   0.712   0.407 -0.0812  1.2916 -2.1575
   20MOL    H40 5778   7.252   0.876   0.368  1.0221  1.0870  0.9020
   20MOL    H41 5779   7.128   1.060   0.490 -1.5590  0.7315 -0.0676
   20MOL    H42 5780   6.986   1.037   0.567 -0.6918 -1.7759 -0.0517
   20MOL    H43 5781   7.119   0.977   0.658  1.6823 -2.4103 -0.7629
   20MOL    H44 5782   6.763   1.056   0.237  2.6925  1.5339  0.3971
   20MOL    H45 5783   6.785   0.875   0.204  0.7248  0.2718 -1.6242
   20MOL    H46 5784   6.891   1.005   0.143 -0.8009 -2.1849 -1.9273
   20MOL    C47 5785   7.016   0.743   0.597  0.7477 -0.1842  0.7743
   20MOL    C48 5786   6.862   0.716   0.629 -0.1297  0.1999  0.2705
   20MOL    C49 5787   6.852   0.610   0.741 -0.4545 -1.4223 -0.2137
   20MOL    C50 5788   6.813   0.850   0.685  0.2648 -0.1518 -0.7841
   20MOL    O51 5789   6.709   0.909   0.642  0.0919 -0.1969 -0.3811
   20MOL    O52 5790   6.884   0.908   0.792  0.1114 -0.1212  0.1777
   20MOL    C53 5791   6.826   1.021   0.853 -0.3005  0.4425  0.4104
   20MOL    H54 5792   7.056   0.769   0.695  0.0803  0.7880  0.7947
   20MOL    H55 5793   7.060   0.649   0.566  1.6136  0.7221 -0.8231
   20MOL    H56 5794   6.748   0.604   0.774 -0.9183  1.1853 -1.1077
   20MOL    H57 5795   6.900   0.516   0.713 -0.4091 -1.8057  1.0810
   20MOL    H58 5796   6.910   0.637   0.830 -0.3626 -0.3452 -0.5980
   20MOL    H59 5797   6.742   0.996   0.918 -1.7845  0.6713 -1.3946
   20MOL    H60 5798   6.796   1.099   0.783  2.3074  2.8150  1.8109
   20MOL    H61 5799   6.891   1.075   0.922 -2.8747  2.8894  1.0139
   20MOL    C62 5800   6.769   0.673   0.508 -0.2580  0.1235 -0.0864
   20MOL    C63 5801   6.776   0.523   0.448  0.1496  0.4286  0.1655
   20MOL    C64 5802   6.918   0.477   0.417 -0.3320  0.3905 -0.7245
   20MOL    C65 5803   6.723   0.416   0.542  1.0765  0.2024 -0.5713
   20MOL    O66 5804   6.763   0.300   0.546 -0.4170 -0.4829  0.3520
   20MOL    O67 5805   6.625   0.457   0.626 -0.0190  0.4614 -0.5146
   20MOL    C68 5806   6.582   0.363   0.729  0.1695 -0.5342  0.5046
   20MOL    H69 5807   6.776   0.744   0.425 -1.3620  0.4807  0.1249
   20MOL    H70 5808   6.666   0.686   0.540  0.0134  2.9595 -0.2288
   20MOL    H71 5809   6.929   0.383   0.364  1.5838  0.4494 -0.4848
   20MOL    H72 5810   6.984   0.554   0.378  2.6581 -1.1370  1.0325
   20MOL    H73 5811   6.964   0.441   0.510 -1.3573 -0.4052 -0.5176
   20MOL    H74 5812   6.669   0.309   0.767  0.3415 -1.3985 -1.0252
   20MOL    H75 5813   6.515   0.287   0.688 -2.0921  2.2031 -1.0610
   20MOL    H76 5814   6.521   0.416   0.801  0.0920  1.6745 -1.1122
   20MOL    C77 5815   6.713   0.516   0.307  0.5738 -0.3035  0.2300
   20MOL    C78 5816   6.557   0.519   0.279  0.0554 -0.2269  0.0307
   20MOL    C79 5817   6.483   0.387   0.315 -0.1143 -0.5189  0.5155
   20MOL    C80 5818   6.480   0.638   0.349 -0.1461 -0.1542 -0.5833
   20MOL    O81 5819   6.370   0.628   0.405 -0.1897 -0.4796  0.5355
   20MOL    O82 5820   6.546   0.755   0.337 -0.3083 -0.3084  0.3657
   20MOL    C83 5821   6.491   0.875   0.383  0.1997 -0.6290 -0.1989
   20MOL    H84 5822   6.743   0.431   0.246  2.6029  0.0983  0.6140
   20MOL    H85 5823   6.747   0.603   0.249 -1.7837  0.9858  0.7308
   20MOL    H86 5824   6.517   0.299   0.260  2.6784  1.2177 -0.6687
   20MOL    H87 5825   6.495   0.363   0.421  0.5311  1.3881  0.8974
   20MOL    H88 5826   6.376   0.397   0.299 -0.0341 -2.6641 -1.6592
   20MOL    H89 5827   6.493   0.887   0.491  0.8233 -0.3741 -0.2325
   20MOL    H90 5828   6.389   0.891   0.350  0.3613 -0.0474 -0.4166
   20MOL    H91 5829   6.554   0.962   0.364 -1.5200  1.2709  2.4699
   20MOL    C92 5830   6.543   0.536   0.119 -0.1267  0.2629 -0.2286
   20MOL    C93 5831   6.415   0.580   0.031  0.4316  0.4911  0.2577
   20MOL    C94 5832   6.287   0.501   0.081 -0.1427 -1.0679  0.0179
   20MOL    C95 5833   6.387   0.733   0.039 -0.2168  0.6583 -0.1473
   20MOL    O96 5834   6.482   0.812   0.043 -0.5069  0.8595 -0.1208
   20MOL    O97 5835   6.265   0.772   0.042  0.0008 -0.7169 -0.8840
   20MOL    C98 5836   6.241   0.909   0.047  0.0914 -0.0284  0.1084
   20MOL    H99 5837   6.579   0.441   0.080  1.4238  0.9552 -0.5229
   20MOL   H100 5838   6.620   0.608   0.090 -0.0117  0.7469  1.2056
   20MOL   H101 5839   6.308   0.395   0.091 -0.5468 -1.1940 -0.4853
   20MOL   H102 5840   6.244   0.536   0.175  2.1083 -0.3769  0.8460
   20MOL   H103 5841   6.207   0.514   0.009 -1.6814  1.5350  2.0686
   20MOL   H104 5842   6.281   0.961   7.838 -0.0543 -2.3314 -1.3666
   20MOL   H105 5843   6.279   0.962   0.135 -0.9077 -0.5031  0.8324
   20MOL   H106 5844   6.133   0.919   0.057  0.0512  0.5640 -0.8370
   20MOL   C107 5845   6.448   0.529   7.760  0.4656 -0.2359 -0.2363
   20MOL   C108 5846   6.378   0.578   7.626  0.1189  0.1761  0.2973
   20MOL   C109 5847   6.223   0.545   7.633  0.4617  0.5195  0.4044
   20MOL   C110 5848   6.392   0.733   7.600  0.0386 -0.3886 -0.3428
   20MOL   O111 5849   6.296   0.805   7.568 -0.3541  0.3404 -0.1388
   20MOL   O112 5850   6.516   0.775   7.604  0.4679  0.0957 -0.2188
   20MOL   C113 5851   6.534   0.917   7.615 -0.5232  0.4565  0.1990
   20MOL   H114 5852   6.440   0.421   7.765 -0.3830 -0.2531 -1.7281
   20MOL   H115 5853   6.554   0.546   7.740  0.2712  0.2757 -0.8598
   20MOL   H116 5854   6.163   0.560   7.543 -0.5182  0.6978  1.0729
   20MOL   H117 5855   6.204   0.445   7.672 -3.5173  0.0080 -2.4869
   20MOL   H118 5856   6.176   0.623   7.693 -1.7564  0.1059 -0.7368
   20MOL   H119 5857   6.454   0.965   7.671 -1.7567  0.8360 -1.8343
   20MOL   H120 5858   6.538   0.959   7.515  0.0679  0.5738  0.2715
   20MOL   H121 5859   6.628   0.949   7.661  1.1316 -2.5278 -1.0092
   20MOL   C122 5860   6.466   0.501   7.523 -0.2606 -0.4209 -0.7686
   20MOL   C123 5861   6.420   0.476   7.372 -0.6584  0.1048 -0.8098
   20MOL   C124 5862   6.330   0.354   7.378 -0.6862 -0.8027 -0.6839
   20MOL   C125 5863   6.353   0.593   7.304 -0.3108 -0.4650  0.7785
   20MOL   O126 5864   6.241   0.577   7.254 -0.0026  0.3659 -0.4981
   20MOL   O127 5865   6.429   0.706   7.301  0.4070  0.5212  0.2858
   20MOL   C128 5866   6.383   0.815   7.228 -0.0134 -0.5145  1.0228
   20MOL   H129 5867   6.482   0.399   7.556  2.2146  0.6488  1.4971
   20MOL   H130 5868   6.561   0.553   7.532 -0.6957  0.1478  0.6479
   20MOL   H131 5869   6.259   0.358   7.461 -0.7176 -0.2000 -0.7358
   20MOL   H132 5870   6.264   0.344   7.292 -2.4012  0.9520  0.3888
   20MOL   H133 5871   6.381   0.258   7.380  0.3502 -0.2444  0.0843
   20MOL   H134 5872   6.384   0.792   7.121  0.8363  3.3846  0.1014
   20MOL   H135 5873   6.461   0.891   7.214 -0.6491  0.0702  0.5690
   20MOL   H136 5874   6.293   0.868   7.259  0.4077  0.5076  0.5478
   20MOL   C137 5875   6.547   0.442   7.296  0.3614 -0.5320  0.4695
   20MOL   C138 5876   6.556   0.416   7.138 -0.2895  0.2149  0.5755
   20MOL   C139 5877   6.425   0.334   7.082 -0.4162  0.0962 -0.8268
   20MOL   C140 5878   6.567   0.550   7.064  0.0683 -0.2324  0.0859
   20MOL   O141 5879   6.499   0.574   6.966 -0.4579  0.1846  0.3049
   20MOL   O142 5880   6.661   0.630   7.112 -0.0563 -0.1683 -0.1539
   20MOL   C143 5881   6.693   0.749   7.047  0.0820  0.6497 -0.0728
   20MOL   H144 5882   6.563   0.341   7.334  0.5232 -1.5068 -2.0862
   20MOL   H145 5883   6.638   0.493   7.328 -0.0996  0.1035  0.7946
   20MOL   H146 5884   6.407   0.239   7.131 -1.7012  0.3929 -0.6976
   20MOL   H147 5885   6.331   0.384   7.107 -0.9280 -0.6006 -1.3307
   20MOL   H148 5886   6.419   0.321   6.974 -0.5311 -0.6247 -0.7320
   20MOL   H149 5887   6.794   0.783   7.070 -0.5201  2.4599 -0.0189
   20MOL   H150 5888   6.623   0.830   7.066  1.3934  1.4217  1.6189
   20MOL   H151 5889   6.688   0.726   6.940 -1.6312 -2.3240  0.6057
   20MOL   C152 5890   6.683   0.330   7.125 -0.3123  0.6033  0.0713
   20MOL   C153 5891   6.754   0.284   6.988 -0.0678  0.7680 -0.1781
   20MOL   C154 5892   6.867   0.190   7.038 -0.2326  0.6455  0.4470
   20MOL   C155 5893   6.656   0.197   6.907 -0.2861  0.7306  0.8006
   20MOL   O156 5894   6.604   0.239   6.801 -0.1867  0.3380  0.1695
   20MOL   O157 5895   6.632   0.080   6.958  0.4351 -0.0101  0.4847
   20MOL   C158 5896   6.561   7.856   6.887  0.1675  0.0733 -0.6018
   20MOL   H159 5897   6.654   0.234   7.167 -1.2302 -0.3257 -2.5923
   20MOL   H160 5898   6.765   0.363   7.190  0.8857 -2.6549  0.3269
   20MOL   H161 5899   6.907   0.121   6.963 -1.2107  1.6431 -1.0350
   20MOL   H162 5900   6.945   0.234   7.099  3.7562 -3.2748 -1.5207
   20MOL   H163 5901   6.840   0.112   7.109 -1.1685 -1.3437 -1.9815
   20MOL   H164 5902   6.456   0.006   6.895 -0.2851 -0.9400 -2.6393
   20MOL   H165 5903   6.575   7.754   6.924  1.1510  0.6043  0.5456
   20MOL   H166 5904   6.582   7.863   6.781 -0.2515 -2.1769 -0.8609
   20MOL   C167 5905   6.825   0.401   6.913  0.2455  0.2291  0.8520
   20MOL   C168 5906   6.930   0.397   6.805  0.3376  0.3500  0.7648
   20MOL   C169 5907   6.886   0.500   6.702 -0.4715 -0.5001 -0.6979
   20MOL   C170 5908   7.063   0.439   6.863  0.1264 -0.3338 -0.1801
   20MOL   O171 5909   7.121   0.535   6.816 -0.4461  0.7095  0.2828
   20MOL   O172 5910   7.104   0.368   6.962 -0.1603  0.0323 -0.8663
   20MOL   C173 5911   7.230   0.404   7.029 -0.0583 -0.7900  0.4860
   20MOL   H174 5912   6.862   0.468   6.991  2.5302 -1.1540  0.9886
   20MOL   H175 5913   6.732   0.445   6.878  0.4547  0.5714  0.7245
   20MOL   H176 5914   6.966   0.530   6.635 -0.2457  2.0500  0.6228
   20MOL   H177 5915   6.804   0.462   6.641 -2.1983 -1.7901  2.2819
   20MOL   H178 5916   6.843   0.591   6.744 -0.0580  0.1568 -1.6799
   20MOL   H179 5917   7.240   0.511   7.046 -3.2673 -0.5385  1.1141
   20MOL   H180 5918   7.317   0.379   6.969  1.1319  1.3683  1.2847
   20MOL   H181 5919   7.250   0.350   7.122  2.1037 -0.9728 -0.0712
   20MOL   C182 5920   6.950   0.263   6.732  0.2987 -0.3791  0.1524
   20MOL   C183 5921   7.043   0.232   6.605 -0.1758 -0.5782 -0.0375
   20MOL   C184 5922   7.180   0.312   6.610  0.1967 -0.2840 -0.6205
   20MOL   C185 5923   7.068   0.080   6.606 -0.1690  0.8019  0.0608
   20MOL   O186 5924   7.179   0.039   6.600 -1.0007  0.1726 -0.1269
   20MOL   O187 5925   6.957   0.011   6.617 -0.3766 -0.0861 -0.7472
   20MOL   C188 5926   6.968   7.744   6.603  0.4953 -0.2518 -0.6445
   20MOL   H189 5927   6.854   0.212   6.725 -0.1263  0.5793 -1.1970
   20MOL   H190 5928   7.003   0.201   6.805 -0.7840  0.4215  1.6561
   20MOL   H191 5929   7.239   0.280   6.524  2.2349 -1.7802  1.2727
   20MOL   H192 5930   7.154   0.418   6.610 -1.5055 -0.6492  2.4882
   20MOL   H193 5931   7.241   0.289   6.698  3.0956  0.6888 -2.2912
   20MOL   H194 5932   7.064   7.700   6.578  0.6165  0.2101 -0.9972
   20MOL   H195 5933   6.903   7.728   6.517 -1.6231  3.3520  0.1963
   20MOL   H196 5934   6.934   7.699   6.696  0.6791 -0.1846 -0.5454
   20MOL   C197 5935   6.959   0.270   6.477  0.4015 -0.1495 -0.4421
   20MOL   C198 5936   7.021   0.277   6.330 -0.3439  1.4658  0.4744
   20MOL   C199 5937   7.136   0.378   6.314  0.0089  0.0222  0.4214
   20MOL   C200 5938   7.059   0.125   6.280 -0.1839 -1.0879 -0.0327
   20MOL   O201 5939   6.987   0.044   6.234 -0.1788 -0.7249 -0.5938
   20MOL   O202 5940   7.192   0.090   6.281  0.4501  0.8400 -0.2208
   20MOL   C203 5941   7.221   7.827   6.271 -0.1177 -0.2528 -0.9947
   20MOL   H204 5942   6.907   0.364   6.494  0.0964 -0.5150  0.6791
   20MOL   H205 5943   6.880   0.195   6.474  1.4921 -1.3109 -0.9183
   20MOL   H206 5944   7.128   0.467   6.375 -1.8265  0.0546  0.1590
   20MOL   H207 5945   7.236   0.336   6.329 -0.3243 -0.8018  0.4150
   20MOL   H208 5946   7.120   0.428   6.219  1.1562 -1.4230 -0.5579
   20MOL   H209 5947   7.320   7.807   6.312 -0.3072 -0.7977 -0.7933
   20MOL   H210 5948   7.220   7.813   6.163  1.3580  0.9587 -1.1933
   20MOL   H211 5949   7.151   7.756   6.316  2.2837 -0.7692  2.1464
   20MOL   C212 5950   6.905   0.309   6.221 -0.7316 -0.1559  0.0789
   20MOL   C213 5951   6.812   0.440   6.217  0.5600 -0.4638 -0.8620
   20MOL   C214 5952   6.883   0.563   6.291  0.3460  0.1847  0.2931
   20MOL   C215 5953   6.798   0.495   6.071 -0.4621 -0.7285  0.1556
   20MOL   O216 5954   6.859   0.452   5.974 -0.2630  1.0100  0.1114
   20MOL   O217 5955   6.723   0.610   6.072 -0.0025  0.1239  0.1980
   20MOL   C218 5956   6.694   0.677   5.947 -0.1428 -0.3498  0.2889
   20MOL   H219 5957   6.848   0.219   6.198  1.1522 -1.8106  1.6966
   20MOL   H220 5958   6.964   0.303   6.130 -1.0394 -1.0605 -0.0747
   20MOL   H221 5959   6.900   0.541   6.396 -1.7038 -0.7791  0.4294
   20MOL   H222 5960   6.969   0.594   6.231 -0.0712  3.6604  1.3530
   20MOL   H223 5961   6.823   0.653   6.279 -0.3820 -0.3274  0.0472
   20MOL   H224 5962   6.658   0.600   5.878 -1.5785 -1.2301  1.9829
   20MOL   H225 5963   6.779   0.737   5.914 -0.2180 -1.1252 -1.3434
   20MOL   H226 5964   6.613   0.748   5.958  0.7618  0.3611  2.8075
   20MOL   C227 5965   6.670   0.430   6.295 -0.2860  0.1482  0.3406
   20MOL   C228 5966   6.545   0.345   6.248 -0.7258 -0.0636 -0.6215
   20MOL   C229 5967   6.523   0.349   6.093  0.4289 -0.2092 -0.5138
   20MOL   C230 5968   6.561   0.189   6.276 -0.8027 -0.6254 -0.1771
   20MOL   O231 5969   6.509   0.099   6.206  0.1838  0.3049 -0.8057
   20MOL   O232 5970   6.626   0.159   6.388  0.1730 -0.2225  0.0255
   20MOL   C233 5971   6.653   0.022   6.418 -0.4615 -0.7092  0.3592
   20MOL   H234 5972   6.638   0.533   6.311 -0.2196  0.5573 -1.9186
   20MOL   H235 5973   6.685   0.396   6.398  1.0743 -1.6071 -0.4016
   20MOL   H236 5974   6.508   0.451   6.058  1.8498  0.6169  1.2281
   20MOL   H237 5975   6.611   0.319   6.036  0.7725 -0.6511  0.2470
   20MOL   H238 5976   6.432   0.295   6.067  0.5406 -1.1344  0.9513
   20MOL   H239 5977   6.669   0.027   6.525 -2.1710 -0.1516  0.6041
   20MOL   H240 5978   6.742   7.848   6.381  2.7859  4.1038  0.8999
   20MOL   H241 5979   6.559   7.849   6.397 -0.8874  0.5104 -0.8358
   20MOL   C242 5980   6.401   0.394   6.303 -0.1195  0.2564 -0.3099
   20MOL   C243 5981   6.379   0.439   6.453  0.5120  0.0148 -0.1475
   20MOL   C244 5982   6.441   0.338   6.554 -0.0889  0.2826  0.2542
   20MOL   C245 5983   6.447   0.576   6.474  0.4888 -0.6810 -0.0986
   20MOL   O246 5984   6.525   0.602   6.562 -0.5327 -0.6988 -0.0053
   20MOL   O247 5985   6.421   0.663   6.368 -0.0961 -0.2928  0.6283
   20MOL   C248 5986   6.464   0.794   6.383 -0.0259 -0.2210 -0.2834
   20MOL   H249 5987   6.337   0.308   6.282  0.0498  0.2958 -0.9905
   20MOL   H250 5988   6.371   0.479   6.242 -0.4766  0.3547 -0.0011
   20MOL   H251 5989   6.400   0.239   6.536 -2.3886  0.6334  3.2237
   20MOL   H252 5990   6.549   0.323   6.554 -0.3017 -1.4892  2.0031
   20MOL   H253 5991   6.426   0.353   6.661 -1.3060  1.4438 -0.0559
   20MOL   H254 5992   6.418   0.858   6.308 -0.5955  0.9056  0.9952
   20MOL   H255 5993   6.571   0.815   6.382  0.1158 -0.9620 -1.1247
   20MOL   H256 5994   6.430   0.822   6.483  2.9387 -1.1413  1.0173
   20MOL   C257 5995   6.225   0.436   6.464  0.2786 -0.0216 -0.3528
   20MOL   C258 5996   6.145   0.527   6.568  0.0528  0.0467 -0.5866
   20MOL   C259 5997   6.210   0.512   6.705 -0.4840  0.1263  0.1495
   20MOL   C260 5998   6.156   0.676   6.533  0.4146 -0.1011  0.1911
   20MOL   O261 5999   6.194   0.759   6.612  0.5667  0.2418 -0.0529
   20MOL   O262 6000   6.130   0.697   6.407  0.4780  0.2915 -0.0354
   20MOL   C263 6001   6.128   0.826   6.350 -0.0078  0.3229  0.1741
   20MOL   H264 6002   6.198   0.331   6.475  2.0546 -0.5484 -0.7825
   20MOL   H265 6003   6.179   0.451   6.366 -3.3810 -2.4162  0.8915
   20MOL   H266 6004   6.165   0.568   6.788 -2.0736 -0.4377 -0.3071
   20MOL   H267 6005   6.212   0.405   6.725  0.5275  0.2057  0.4839
   20MOL   H268 6006   6.313   0.546   6.716 -0.5524  0.4325 -0.1457
   20MOL   H269 6007   6.220   0.874   6.319 -1.1017  0.7105 -2.5836
   20MOL   H270 6008   6.073   0.904   6.403  0.4943  0.0701  1.0849
   20MOL   H271 6009   6.079   0.805   6.255  0.8602 -1.2792  0.0646
   20MOL   C272 6010   5.992   0.487   6.579 -0.8275  0.0565  0.5616
   20MOL   C273 6011   5.893   0.436   6.472 -0.1131 -0.2927 -0.0706
   20MOL   C274 6012   5.934   0.297   6.413  0.4327 -0.6631  0.0514
   20MOL   C275 6013   5.758   0.416   6.555 -0.0734 -0.3890 -0.0249
   20MOL   O276 6014   5.706   0.305   6.557  0.4944 -0.2291 -0.0273
   20MOL   O277 6015   5.716   0.527   6.620 -0.2367 -0.0449 -0.0595
   20MOL   C278 6016   5.598   0.502   6.700 -0.9233 -0.0462 -0.2933
   20MOL   H279 6017   5.947   0.573   6.629 -0.4105  1.3728 -1.2460
   20MOL   H280 6018   5.990   0.411   6.657  0.6789 -0.6706 -0.1014
   20MOL   H281 6019   6.018   0.289   6.345  2.8876 -1.7322  3.0690
   20MOL   H282 6020   5.963   0.226   6.491 -0.2652 -1.7553 -0.6722
   20MOL   H283 6021   5.850   0.251   6.361 -0.6504  2.0247 -0.6926
   20MOL   H284 6022   5.606   0.405   6.750 -0.6591 -0.3746 -0.9584
   20MOL   H285 6023   5.510   0.499   6.635 -2.7274 -0.5957  2.0955
   20MOL   H286 6024   5.576   0.576   6.777  2.4987 -0.4838  1.2240
   20MOL   C287 6025   5.876   0.534   6.354 -0.6810 -0.0464  0.0143
   20MOL   C288 6026   5.786   0.495   6.233  0.2516 -0.0665 -0.2206
   20MOL   C289 6027   5.643   0.442   6.263 -0.3880 -0.1272 -0.3683
   20MOL   C290 6028   5.772   0.617   6.145  0.2700 -0.0169  0.2245
   20MOL   O291 6029   5.674   0.692   6.150  0.8304 -0.5113 -0.5242
   20MOL   O292 6030   5.876   0.631   6.057  0.2707 -0.6319 -0.0681
   20MOL   C293 6031   5.857   0.733   5.954  0.3968 -0.0174 -0.1540
   20MOL   H294 6032   5.976   0.552   6.314 -0.5914 -0.7590 -0.0963
   20MOL   H295 6033   5.854   0.630   6.400  0.5645  0.0816  0.3429
   20MOL   H296 6034   5.593   0.507   6.334 -2.7618 -1.3653 -0.8795
   20MOL   H297 6035   5.577   0.446   6.176 -0.1676  2.3805 -0.4662
   20MOL   H298 6036   5.653   0.340   6.300  0.4099  0.5390  1.2730
   20MOL   H299 6037   5.758   0.765   5.922  0.0181 -0.0485  0.9965
   20MOL   H300 6038   5.914   0.711   5.863  3.0274 -0.1238  1.4758
   20MOL   H301 6039   5.898   0.826   5.994  1.2943  0.4059 -1.9646
   20MOL   H302 6040   5.835   0.420   6.171  0.2577 -0.1815 -0.0768
   21MOL     C1 6041   0.520   0.162   0.718 -0.0609 -0.0794 -0.3788
   21MOL     C2 6042   0.671   0.119   0.717  0.7148  0.3629 -0.2746
   21MOL     C3 6043   0.672   0.026   0.841 -0.8782 -0.0553 -0.3188
   21MOL     C4 6044   0.703   0.025   0.595 -0.5332 -1.1720  0.3889
   21MOL     O5 6045   0.811   0.026   0.534 -0.0238 -0.6312 -0.2362
   21MOL     O6 6046   0.601   7.822   0.564  0.2586  0.1646  0.3480
   21MOL     C7 6047   0.628   7.709   0.478  0.4771 -0.7779 -0.6081
   21MOL     H8 6048   0.505   0.255   0.772  0.4748 -0.3851  0.3051
   21MOL     H9 6049   0.486   0.193   0.619  0.6635 -0.7991 -0.8627
   21MOL    H10 6050   0.601   7.825   0.864  1.0891 -1.6768  0.4516
   21MOL    H11 6051   0.759   7.837   0.839 -0.2123  0.7942 -0.1474
   21MOL    H12 6052   0.684   0.085   0.932 -0.4993 -0.8971  0.1823
   21MOL    H13 6053   0.711   7.725   0.408  2.8487 -2.7009  1.6558
   21MOL    H14 6054   0.540   7.684   0.419  1.3041 -1.9678 -1.3573
   21MOL    H15 6055   0.660   7.618   0.528 -0.4815  0.1542  1.7733
   21MOL    H16 6056   0.451   0.083   0.750 -2.2960  1.2730 -1.7098
   21MOL    C17 6057   0.775   0.230   0.742  0.0098 -0.1426 -0.1902
   21MOL    C18 6058   0.801   0.346   0.641  0.3690 -0.2720  0.0151
   21MOL    C19 6059   0.834   0.300   0.493  0.6198  0.3816 -0.3782
   21MOL    C20 6060   0.671   0.439   0.636  0.2872  0.3391 -0.4852
   21MOL    O21 6061   0.610   0.457   0.531  0.2148  0.1745  0.1714
   21MOL    O22 6062   0.629   0.490   0.756  0.0806 -0.3504 -0.3087
   21MOL    C23 6063   0.526   0.584   0.752 -0.6292  0.3985  1.0108
   21MOL    H24 6064   0.870   0.181   0.762  0.1936  0.4810  0.4703
   21MOL    H25 6065   0.763   0.264   0.845 -2.2658  3.0708 -1.4251
   21MOL    H26 6066   0.918   0.231   0.498 -1.4088 -2.0768  0.7446
   21MOL    H27 6067   0.752   0.260   0.434  3.4739 -1.0050 -3.5470
   21MOL    H28 6068   0.869   0.385   0.434  1.0961 -1.4399 -2.7663
   21MOL    H29 6069   0.539   0.656   0.671  0.2309 -1.7824 -0.8720
   21MOL    H30 6070   0.511   0.637   0.846 -0.2877  0.3131  1.1128
   21MOL    H31 6071   0.434   0.529   0.729 -0.4905  0.0260  1.3470
   21MOL    C32 6072   0.920   0.427   0.689 -1.1099 -0.1542  0.0434
   21MOL    C33 6073   0.953   0.573   0.649 -0.2892  0.2509 -0.1949
   21MOL    C34 6074   1.103   0.598   0.695 -0.0217  0.0027  0.3900
   21MOL    C35 6075   0.953   0.602   0.503  0.2611  0.0973  0.1615
   21MOL    O36 6076   0.851   0.640   0.449  0.1291 -0.0100 -0.2634
   21MOL    O37 6077   1.068   0.560   0.440 -0.1376 -0.1155  1.0608
   21MOL    C38 6078   1.073   0.552   0.299  0.1739  0.1758 -0.4519
   21MOL    H39 6079   1.005   0.360   0.678 -0.0271  0.8710  1.8084
   21MOL    H40 6080   0.925   0.430   0.798  1.7433 -1.5413 -0.0044
   21MOL    H41 6081   1.173   0.522   0.660  1.4415  1.2499  0.5673
   21MOL    H42 6082   1.142   0.695   0.664  1.8659 -1.3618 -1.6845
   21MOL    H43 6083   1.119   0.593   0.803  1.0560  0.3028  0.2470
   21MOL    H44 6084   0.994   0.498   0.248  1.3476 -1.0323 -1.0193
   21MOL    H45 6085   1.164   0.506   0.261 -0.0147 -0.6020  0.0170
   21MOL    H46 6086   1.068   0.648   0.249  0.9311  0.3815 -0.1419
   21MOL    C47 6087   0.863   0.687   0.728 -0.1413 -0.0754 -0.0077
   21MOL    C48 6088   0.895   0.848   0.740 -0.3670  0.9478  0.6118
   21MOL    C49 6089   0.756   0.916   0.765 -0.4175  0.5593 -0.5302
   21MOL    C50 6090   0.977   0.874   0.872  0.0760  0.6848  0.8674
   21MOL    O51 6091   1.037   0.787   0.934  0.2301 -0.3232  0.0750
   21MOL    O52 6092   0.988   1.007   0.916  0.5133  0.3014  0.0035
   21MOL    C53 6093   1.088   1.037   1.019  0.4302  0.0632 -0.1458
   21MOL    H54 6094   0.850   0.644   0.827  0.9080  0.9161  0.5696
   21MOL    H55 6095   0.771   0.684   0.670  1.5197  1.1795 -2.7871
   21MOL    H56 6096   0.711   0.872   0.854  0.4765  1.5134  0.4112
   21MOL    H57 6097   0.762   1.024   0.783  1.7506  0.3864 -0.1097
   21MOL    H58 6098   0.682   0.905   0.686 -2.5739  0.0800  1.4835
   21MOL    H59 6099   1.092   0.960   1.096 -2.1773  1.0675  1.0726
   21MOL    H60 6100   1.057   1.120   1.083 -1.0519  0.1780 -0.9920
   21MOL    H61 6101   1.190   1.065   0.992  0.6148 -0.9015 -0.4569
   21MOL    C62 6102   0.963   0.913   0.612 -0.4493  0.7327  0.0942
   21MOL    C63 6103   1.033   1.062   0.588 -0.3508  0.9272 -0.1333
   21MOL    C64 6104   0.944   1.177   0.634  0.3449  0.0127  0.0683
   21MOL    C65 6105   1.167   1.064   0.658  0.6217 -0.0085  0.5213
   21MOL    O66 6106   1.222   0.965   0.706 -0.5383 -0.5551  0.1119
   21MOL    O67 6107   1.212   1.188   0.675  0.3640 -0.5944 -0.5980
   21MOL    C68 6108   1.331   1.213   0.755 -0.6120  0.4874  0.5311
   21MOL    H69 6109   0.894   0.900   0.528 -1.5777 -1.3689  1.3057
   21MOL    H70 6110   1.039   0.843   0.578 -1.4056 -1.0756  1.6143
   21MOL    H71 6111   0.983   1.278   0.618  0.0518 -0.0053 -0.7619
   21MOL    H72 6112   0.852   1.169   0.577 -0.1290  1.2069  0.6368
   21MOL    H73 6113   0.913   1.175   0.739  4.1171 -1.6730  1.2475
   21MOL    H74 6114   1.408   1.136   0.753 -3.1698 -2.1794 -0.1751
   21MOL    H75 6115   1.314   1.231   0.861 -2.1204 -1.0372  0.5793
   21MOL    H76 6116   1.369   1.302   0.705 -1.5142 -1.2635 -3.5311
   21MOL    C77 6117   1.046   1.077   0.430 -0.6146 -0.4731  0.5631
   21MOL    C78 6118   1.157   1.161   0.362 -0.3211 -0.4445  0.3114
   21MOL    C79 6119   1.125   1.154   0.208 -0.3680 -0.3367  0.1049
   21MOL    C80 6120   1.149   1.312   0.398 -0.4832  0.6244 -0.1010
   21MOL    O81 6121   1.039   1.369   0.412 -0.3689  1.0111 -0.1640
   21MOL    O82 6122   1.269   1.369   0.421 -0.1574  0.1272  0.1323
   21MOL    C83 6123   1.263   1.503   0.469 -0.1632  0.4363  0.3487
   21MOL    H84 6124   0.953   1.112   0.386  0.2903 -0.4325 -1.4039
   21MOL    H85 6125   1.051   0.976   0.388  1.9155 -0.9156  1.7965
   21MOL    H86 6126   1.031   1.205   0.185 -1.0347 -0.1070  3.0300
   21MOL    H87 6127   1.200   1.208   0.150 -1.3315 -1.5038 -2.2935
   21MOL    H88 6128   1.125   1.057   0.158  0.8540 -1.3989  2.0867
   21MOL    H89 6129   1.364   1.545   0.481  0.6957 -1.0525 -1.5067
   21MOL    H90 6130   1.219   1.515   0.568 -0.0185 -2.7785  0.8591
   21MOL    H91 6131   1.213   1.581   0.412  0.3815  0.4476 -0.1146
   21MOL    C92 6132   1.309   1.098   0.377 -0.4998  0.1285 -0.1655
   21MOL    C93 6133   1.367   0.956   0.325 -0.2264 -0.0767  0.2215
   21MOL    C94 6134   1.281   0.846   0.373 -0.1208 -0.0099  0.1281
   21MOL    C95 6135   1.375   0.947   0.167 -0.5739  0.6788 -0.6332
   21MOL    O96 6136   1.350   0.849   0.102 -0.0355  0.4012  0.0320
   21MOL    O97 6137   1.407   1.068   0.109 -0.3590  0.2042 -0.1198
   21MOL    C98 6138   1.454   1.068   7.856 -0.6450  0.4510  1.1840
   21MOL    H99 6139   1.347   1.106   0.480 -0.9340 -0.4130  0.0408
   21MOL   H100 6140   1.369   1.173   0.326 -1.2473 -1.5735 -3.6495
   21MOL   H101 6141   1.238   0.883   0.467  1.0205 -0.2532  0.7530
   21MOL   H102 6142   1.200   0.824   0.304  0.7899 -1.8663 -0.3946
   21MOL   H103 6143   1.319   0.748   0.404 -0.1830 -0.4471 -1.1667
   21MOL   H104 6144   1.548   1.014   7.858 -0.9940 -0.1459  1.8389
   21MOL   H105 6145   1.447   1.165   7.807  0.4265  0.2855  0.6936
   21MOL   H106 6146   1.387   1.008   7.794  1.5023 -0.8613  0.0765
   21MOL   C107 6147   1.506   0.928   0.388  0.0179  0.1974 -0.2535
   21MOL   C108 6148   1.647   0.989   0.352 -0.5948  0.0322 -0.3456
   21MOL   C109 6149   1.685   0.930   0.211 -0.3071  0.0813  0.8771
   21MOL   C110 6150   1.646   1.143   0.361  0.2597 -0.8093 -0.2889
   21MOL   O111 6151   1.675   1.220   0.266  0.4167  0.0175  0.1737
   21MOL   O112 6152   1.604   1.184   0.484 -0.6713 -0.2606 -0.3871
   21MOL   C113 6153   1.601   1.321   0.526 -0.2979 -0.7155  0.7894
   21MOL   H114 6154   1.535   0.827   0.358 -0.2080  0.0021  0.1891
   21MOL   H115 6155   1.495   0.941   0.496 -0.1203 -1.6136 -0.0244
   21MOL   H116 6156   1.771   0.865   0.227 -0.3096 -0.2567 -0.4854
   21MOL   H117 6157   1.613   0.860   0.170 -0.1428  0.7800 -0.6527
   21MOL   H118 6158   1.702   1.008   0.137  0.8334 -2.0405 -1.1442
   21MOL   H119 6159   1.552   1.344   0.621  0.3262 -0.4353  1.0482
   21MOL   H120 6160   1.559   1.386   0.449 -2.0201 -1.7140  0.8723
   21MOL   H121 6161   1.703   1.359   0.538 -0.6744  0.0816  1.5511
   21MOL   C122 6162   1.756   0.946   0.458  0.6336  0.4211  0.1314
   21MOL   C123 6163   1.899   1.009   0.462  0.0167 -0.0873 -0.6139
   21MOL   C124 6164   1.957   1.032   0.321  0.2351  0.8129 -0.3735
   21MOL   C125 6165   1.902   1.143   0.543  0.4152 -0.0296  0.3790
   21MOL   O126 6166   1.939   1.241   0.484 -0.1990  0.0264 -0.1667
   21MOL   O127 6167   1.860   1.135   0.672 -0.8730  0.2259  0.7934
   21MOL   C128 6168   1.903   1.243   0.756 -0.0743 -0.1067 -0.0521
   21MOL   H129 6169   1.759   0.837   0.453 -2.4140  0.3082 -0.5455
   21MOL   H130 6170   1.712   0.955   0.557 -2.0963 -0.2030 -0.9703
   21MOL   H131 6171   1.893   1.093   0.259 -1.5162  0.4057  0.9866
   21MOL   H132 6172   2.055   1.077   0.338 -0.1857  1.7097 -0.3296
   21MOL   H133 6173   1.984   0.947   0.258 -2.3037  0.1449 -0.5982
   21MOL   H134 6174   1.838   1.235   0.843 -0.0853  1.3003  0.0766
   21MOL   H135 6175   1.885   1.336   0.703 -1.5028 -0.1038  0.4144
   21MOL   H136 6176   2.005   1.243   0.794 -0.1497  1.4291  0.1889
   21MOL   C137 6177   2.000   0.908   0.547 -0.0513 -0.6814 -0.1239
   21MOL   C138 6178   2.156   0.912   0.559 -0.2335  0.5233  0.1702
   21MOL   C139 6179   2.201   0.809   0.678 -0.2353  0.1193  0.1158
   21MOL   C140 6180   2.220   0.877   0.420 -0.0820  0.1758  0.2072
   21MOL   O141 6181   2.247   0.952   0.324 -0.1203  0.1779 -0.0638
   21MOL   O142 6182   2.226   0.748   0.407 -0.7329 -0.4752  0.1788
   21MOL   C143 6183   2.254   0.690   0.278 -0.1009  0.0936 -0.2487
   21MOL   H144 6184   1.970   0.814   0.501 -0.7683  0.4137 -1.9607
   21MOL   H145 6185   1.957   0.898   0.647  1.0394 -2.0010  0.2168
   21MOL   H146 6186   2.157   0.710   0.664 -0.1938  0.0322  0.6057
   21MOL   H147 6187   2.309   0.802   0.683 -0.1648 -0.1568 -1.4995
   21MOL   H148 6188   2.159   0.854   0.769 -0.6378 -0.8412  0.4096
   21MOL   H149 6189   2.218   0.588   0.282  0.6150 -0.1072  2.1360
   21MOL   H150 6190   2.361   0.703   0.260  0.1772 -1.2868  0.3982
   21MOL   H151 6191   2.197   0.739   0.199 -2.1786  1.9358  2.2800
   21MOL   C152 6192   2.195   1.058   0.592  0.1502 -0.2798  0.2868
   21MOL   C153 6193   2.337   1.101   0.650  0.1602  0.3642  0.3771
   21MOL   C154 6194   2.460   1.028   0.586 -0.2719  0.2139  0.3624
   21MOL   C155 6195   2.339   1.246   0.593  1.3222  0.0150  0.6677
   21MOL   O156 6196   2.397   1.277   0.487  0.1643 -0.3564  0.0324
   21MOL   O157 6197   2.258   1.334   0.656 -0.3065 -0.0315 -0.3662
   21MOL   C158 6198   2.261   1.469   0.617 -0.3260  0.0946  0.1187
   21MOL   H159 6199   2.124   1.099   0.664 -0.6188  1.1119 -1.2355
   21MOL   H160 6200   2.175   1.106   0.497 -2.5789  0.4869  1.2065
   21MOL   H161 6201   2.481   0.933   0.633 -0.3956 -0.5613 -1.1164
   21MOL   H162 6202   2.458   1.003   0.480  0.7275 -1.0387  0.6394
   21MOL   H163 6203   2.554   1.083   0.587  1.1426 -2.0919 -1.3832
   21MOL   H164 6204   2.256   1.490   0.510  1.3151  1.4636  0.2894
   21MOL   H165 6205   2.345   1.527   0.656  1.0766 -1.6134 -0.2471
   21MOL   H166 6206   2.172   1.515   0.658 -1.8724 -2.6896  0.0276
   21MOL   C167 6207   2.346   1.090   0.811  0.8429  0.2812 -0.0160
   21MOL   C168 6208   2.455   1.161   0.905  0.0095  0.9518 -0.6523
   21MOL   C169 6209   2.583   1.151   0.829  0.7850 -0.1216 -0.4389
   21MOL   C170 6210   2.425   1.303   0.941  0.0124 -0.5304  0.2062
   21MOL   O171 6211   2.311   1.345   0.923 -0.4128 -0.0852 -0.4347
   21MOL   O172 6212   2.528   1.374   0.992  0.0881 -0.0792  0.1592
   21MOL   C173 6213   2.500   1.506   1.024 -0.0446 -0.1485 -0.5781
   21MOL   H174 6214   2.352   0.981   0.813  3.3787  0.3275 -1.6662
   21MOL   H175 6215   2.246   1.120   0.841  1.7015  1.9840  1.2087
   21MOL   H176 6216   2.584   1.211   0.738  0.4927 -0.4691 -0.6701
   21MOL   H177 6217   2.670   1.183   0.888 -0.8332 -1.1144  2.6190
   21MOL   H178 6218   2.598   1.046   0.807 -3.2221 -0.5444 -1.4147
   21MOL   H179 6219   2.414   1.509   1.091  0.7783 -3.2453  0.6978
   21MOL   H180 6220   2.471   1.562   0.935 -0.3057 -0.6702 -0.8208
   21MOL   H181 6221   2.590   1.547   1.071 -0.1857 -1.3714  0.7905
   21MOL   C182 6222   2.476   1.072   1.042 -0.2023 -0.0748  0.0089
   21MOL   C183 6223   2.371   1.016   1.137  0.1354  0.1716  0.4073
   21MOL   C184 6224   2.255   1.125   1.151  0.2467 -0.0913  0.1433
   21MOL   C185 6225   2.309   0.886   1.079 -0.8634  0.0255 -0.7323
   21MOL   O186 6226   2.186   0.873   1.053 -0.2239 -0.1121  0.7516
   21MOL   O187 6227   2.406   0.795   1.052  0.0829 -0.5990  0.0787
   21MOL   C188 6228   2.359   0.669   1.003 -0.2352 -0.3297  0.2262
   21MOL   H189 6229   2.545   1.133   1.100  0.9968  0.5506 -2.0446
   21MOL   H190 6230   2.541   0.991   1.010  0.9064  1.0477 -0.5982
   21MOL   H191 6231   2.206   1.142   1.055  0.7067 -0.3827 -0.1485
   21MOL   H192 6232   2.172   1.092   1.212 -1.3460  1.7746 -0.9628
   21MOL   H193 6233   2.292   1.219   1.192  1.3706 -0.0617 -0.8730
   21MOL   H194 6234   2.323   0.610   1.087 -1.8347 -1.7859 -1.4218
   21MOL   H195 6235   2.424   0.610   0.938 -1.0609  1.1056 -1.9881
   21MOL   H196 6236   2.268   0.674   0.942 -0.6709 -0.1613  0.8908
   21MOL   C197 6237   2.444   0.991   1.273  1.0301 -0.2001 -0.3038
   21MOL   C198 6238   2.378   0.901   1.399  0.0199  0.0329 -0.3566
   21MOL   C199 6239   2.391   0.751   1.373 -0.1496  0.7412 -0.4107
   21MOL   C200 6240   2.473   0.929   1.518 -0.2850  0.2333 -0.5448
   21MOL   O201 6241   2.535   0.842   1.580 -0.3402 -0.2102 -0.2693
   21MOL   O202 6242   2.480   1.061   1.542 -0.1031  0.4187 -0.1450
   21MOL   C203 6243   2.580   1.100   1.635  0.2572 -0.2314  0.2806
   21MOL   H204 6244   2.447   1.094   1.308  0.4396 -0.3899  0.3243
   21MOL   H205 6245   2.540   0.940   1.264 -0.3766 -2.4852 -3.2205
   21MOL   H206 6246   2.313   0.706   1.312 -1.1091 -1.0191  2.0394
   21MOL   H207 6247   2.491   0.729   1.335  0.0265  0.2319  0.3213
   21MOL   H208 6248   2.405   0.690   1.463  0.7606  0.9879 -0.3786
   21MOL   H209 6249   2.560   1.199   1.676  1.2627  1.0245 -2.1213
   21MOL   H210 6250   2.683   1.104   1.602  0.8729 -1.2813  2.0094
   21MOL   H211 6251   2.584   1.033   1.721 -0.6943 -2.0378 -1.0312
   21MOL   C212 6252   2.235   0.932   1.419  0.0325  0.5131 -0.0385
   21MOL   C213 6253   2.137   0.883   1.535 -0.1454 -0.1488 -0.1755
   21MOL   C214 6254   2.174   0.742   1.597 -0.0832  0.0580  0.0057
   21MOL   C215 6255   2.138   0.991   1.639 -0.1831  0.2140 -0.1836
   21MOL   O216 6256   2.193   0.966   1.750  0.1090 -0.4108  0.3947
   21MOL   O217 6257   2.091   1.102   1.594 -0.1068 -0.2933 -0.0394
   21MOL   C218 6258   2.075   1.217   1.674 -0.2699  0.2309  0.2266
   21MOL   H219 6259   2.183   0.908   1.326  0.6953 -0.1142 -0.2556
   21MOL   H220 6260   2.231   1.040   1.426 -2.1410  0.3695  1.5344
   21MOL   H221 6261   2.113   0.725   1.685 -1.6192 -2.1614 -1.4335
   21MOL   H222 6262   2.161   0.661   1.525 -1.2986 -0.4238  0.7667
   21MOL   H223 6263   2.274   0.743   1.640  0.3564  0.5688 -0.9895
   21MOL   H224 6264   2.170   1.272   1.679  1.2376 -2.0619 -1.9018
   21MOL   H225 6265   2.040   1.193   1.774 -3.5085  1.4453 -0.5723
   21MOL   H226 6266   2.006   1.280   1.619 -1.3862 -1.3622 -0.2279
   21MOL   C227 6267   1.999   0.865   1.476 -0.5793 -0.0342 -0.2294
   21MOL   C228 6268   1.861   0.811   1.532  0.3888 -0.0854 -0.5621
   21MOL   C229 6269   1.865   0.667   1.577 -0.6139  0.3641  0.2468
   21MOL   C230 6270   1.815   0.902   1.648 -0.3804  0.1931  0.3497
   21MOL   O231 6271   1.805   1.022   1.629 -0.0781 -0.4865 -0.3303
   21MOL   O232 6272   1.795   0.841   1.760  0.0914  0.4927  0.0149
   21MOL   C233 6273   1.752   0.905   1.877  0.1385  0.0013 -0.2474
   21MOL   H234 6274   2.017   0.811   1.383 -0.7783 -0.2352 -0.1515
   21MOL   H235 6275   1.972   0.965   1.441  0.0869 -0.4903 -2.1075
   21MOL   H236 6276   1.907   0.640   1.674 -0.1375  2.9062  0.7645
   21MOL   H237 6277   1.761   0.635   1.578 -0.4313 -0.2162  2.5304
   21MOL   H238 6278   1.919   0.602   1.507 -1.4720 -1.5985  1.3734
   21MOL   H239 6279   1.840   0.951   1.922  0.6432 -1.2042  0.0348
   21MOL   H240 6280   1.703   0.831   1.940 -3.3972  0.6411 -2.0974
   21MOL   H241 6281   1.673   0.974   1.847 -0.4252  0.2898  1.7805
   21MOL   C242 6282   1.759   0.822   1.416 -0.0310  0.1237 -0.1416
   21MOL   C243 6283   1.596   0.841   1.439 -0.7814  0.2104 -0.2412
   21MOL   C244 6284   1.531   0.768   1.564  0.0798 -0.1004 -0.4496
   21MOL   C245 6285   1.551   0.994   1.448 -0.1453 -0.5402  0.1220
   21MOL   O246 6286   1.623   1.082   1.412 -0.0995 -0.0983  0.5385
   21MOL   O247 6287   1.433   1.014   1.492 -0.3551 -0.4181  0.1430
   21MOL   C248 6288   1.392   1.138   1.549  0.0520 -0.3785 -0.0280
   21MOL   H249 6289   1.771   0.726   1.364 -1.3954 -0.5857  0.8141
   21MOL   H250 6290   1.795   0.901   1.351  1.1869  0.9849  1.5537
   21MOL   H251 6291   1.574   0.792   1.662  0.9206 -1.2302 -0.5370
   21MOL   H252 6292   1.424   0.788   1.574  0.1775  1.5838 -2.3368
   21MOL   H253 6293   1.538   0.660   1.553  0.1187 -0.4060  2.2842
   21MOL   H254 6294   1.295   1.128   1.598 -0.5479  1.4753 -0.8067
   21MOL   H255 6295   1.385   1.217   1.474  1.2168 -0.0279  0.2212
   21MOL   H256 6296   1.474   1.147   1.621 -0.0289  1.6140 -0.1601
   21MOL   C257 6297   1.521   0.775   1.319  0.0138 -0.3882 -0.0632
   21MOL   C258 6298   1.504   0.835   1.170 -0.5841 -0.0513  0.2205
   21MOL   C259 6299   1.389   0.943   1.167  0.5557  0.1006  0.3240
   21MOL   C260 6300   1.629   0.905   1.112  0.0236 -0.0510  0.2363
   21MOL   O261 6301   1.622   1.011   1.044 -0.0181 -0.2174  0.0095
   21MOL   O262 6302   1.742   0.833   1.119  0.2611  0.4061  0.1076
   21MOL   C263 6303   1.859   0.887   1.064 -0.6285 -0.1936  0.1137
   21MOL   H264 6304   1.416   0.754   1.340  0.0923 -2.1978 -1.3926
   21MOL   H265 6305   1.560   0.674   1.321 -0.9982 -0.7675  1.2204
   21MOL   H266 6306   1.419   1.043   1.196 -0.8487  0.2938  1.1868
   21MOL   H267 6307   1.357   0.952   1.063  1.4200 -0.0699  0.0388
   21MOL   H268 6308   1.300   0.916   1.224  0.8580 -1.4341  0.1066
   21MOL   H269 6309   1.859   0.900   0.955 -0.5053 -2.5717 -0.1984
   21MOL   H270 6310   1.948   0.826   1.080  0.6646  1.4428 -0.5732
   21MOL   H271 6311   1.864   0.988   1.104 -1.5867 -0.3314  0.5965
   21MOL   C272 6312   1.451   0.714   1.076  0.6387  0.3152  1.1297
   21MOL   C273 6313   1.486   0.682   0.923  0.3189 -0.4171 -0.1875
   21MOL   C274 6314   1.447   0.805   0.836 -0.2912 -0.1874  0.0502
   21MOL   C275 6315   1.639   0.649   0.898 -0.2663  0.5852 -0.0538
   21MOL   O276 6316   1.708   0.591   0.977  0.0398  0.0414 -0.7280
   21MOL   O277 6317   1.678   0.681   0.769  0.2491 -0.3346  0.1238
   21MOL   C278 6318   1.810   0.658   0.728 -0.2416 -0.0925  0.8454
   21MOL   H279 6319   1.343   0.727   1.079  0.6953  1.4891 -0.9485
   21MOL   H280 6320   1.462   0.620   1.131 -2.6767 -0.7550  0.0260
   21MOL   H281 6321   1.443   0.773   0.732 -1.9196  0.9151 -0.2432
   21MOL   H282 6322   1.348   0.836   0.872  0.3535  1.7005  0.2560
   21MOL   H283 6323   1.509   0.894   0.845 -1.9188  0.8421  1.5360
   21MOL   H284 6324   1.868   0.741   0.767 -0.4004  0.8042 -0.8086
   21MOL   H285 6325   1.818   0.636   0.621  2.3970  1.0120  0.8013
   21MOL   H286 6326   1.846   0.567   0.776 -0.2280  0.6826  2.3466
   21MOL   C287 6327   1.395   0.558   0.889  0.3408  0.0736 -0.0228
   21MOL   C288 6328   1.434   0.424   0.955  0.6144  0.2107 -0.1148
   21MOL   C289 6329   1.324   0.375   1.047  0.6167  0.6574 -0.0004
   21MOL   C290 6330   1.476   0.320   0.859 -0.0200 -0.3329 -0.8813
   21MOL   O291 6331   1.592   0.291   0.838 -0.3849 -0.0011  0.2228
   21MOL   O292 6332   1.374   0.257   0.797 -0.0104  0.0280 -0.1664
   21MOL   C293 6333   1.415   0.158   0.707  0.1975  0.7317  0.4486
   21MOL   H294 6334   1.383   0.546   0.781 -1.6579 -0.4574  0.2431
   21MOL   H295 6335   1.295   0.579   0.927  0.1371 -1.0432  0.0699
   21MOL   H296 6336   1.235   0.359   0.986 -1.1489 -1.1997  2.8879
   21MOL   H297 6337   1.332   0.277   1.093 -1.7326  0.6892  0.5339
   21MOL   H298 6338   1.306   0.448   1.126  1.3015 -0.2583  1.0172
   21MOL   H299 6339   1.488   0.197   0.635  1.2766 -1.5229  0.2710
   21MOL   H300 6340   1.334   0.126   0.642  0.6510  1.5004 -0.5085
   21MOL   H301 6341   1.469   0.080   0.761 -1.8502 -0.2484  1.1019
   21MOL   H302 6342   1.519   0.437   1.021 -0.6086  1.1451  1.3209
   22MOL     C1 6343   5.458   5.929   1.153  0.1162 -0.0961  0.5445
   22MOL     C2 6344   5.447   6.026   1.275 -0.4958 -0.4546 -0.1180
   22MOL     C3 6345   5.565   5.990   1.371  0.9400  0.2231 -0.1115
   22MOL     C4 6346   5.461   6.177   1.249 -0.5468 -0.6830 -0.7363
   22MOL     O5 6347   5.408   6.260   1.321  0.6177  0.2001  0.0846
   22MOL     O6 6348   5.552   6.202   1.149  0.1278  0.4724  0.1155
   22MOL     C7 6349   5.600   6.336   1.135 -0.1350 -0.3898  0.4070
   22MOL     H8 6350   5.452   5.822   1.171 -0.3612  0.0077  1.0096
   22MOL     H9 6351   5.395   5.954   1.068  0.1289  1.3120  0.9308
   22MOL    H10 6352   5.663   6.017   1.333  0.8349  0.0729 -0.4893
   22MOL    H11 6353   5.566   6.052   1.461  2.1358 -0.5663  0.4273
   22MOL    H12 6354   5.573   5.882   1.388  1.3394  0.1119 -0.9905
   22MOL    H13 6355   5.523   6.399   1.090  0.6895 -0.6514 -1.4593
   22MOL    H14 6356   5.685   6.336   1.066  0.2522  1.1773  0.8678
   22MOL    H15 6357   5.621   6.384   1.230  4.2610 -0.4263 -0.4372
   22MOL    H16 6358   5.553   5.948   1.101  0.2214  0.5880  0.9785
   22MOL    C17 6359   5.318   5.981   1.351 -0.0353  0.0906 -1.5675
   22MOL    C18 6360   5.171   5.975   1.286  0.5334  1.3497 -0.0581
   22MOL    C19 6361   5.158   6.095   1.190  1.1568 -0.4035 -0.9209
   22MOL    C20 6362   5.139   5.844   1.199 -0.5324 -0.0657 -0.7963
   22MOL    O21 6363   5.220   5.749   1.186  0.3636  0.3199  0.2079
   22MOL    O22 6364   5.013   5.841   1.146  0.2437 -0.4205 -0.2946
   22MOL    C23 6365   4.975   5.721   1.081  0.1732 -0.4472 -0.6595
   22MOL    H24 6366   5.332   6.039   1.441  1.9902  0.0064 -1.8067
   22MOL    H25 6367   5.343   5.879   1.378  0.7657  1.3831  2.8743
   22MOL    H26 6368   5.056   6.089   1.153  0.4971 -0.5600  0.9124
   22MOL    H27 6369   5.187   6.175   1.258 -0.8317 -0.0605 -0.4726
   22MOL    H28 6370   5.231   6.102   1.108 -1.0337  2.0879 -2.7611
   22MOL    H29 6371   5.055   5.680   1.020 -0.1306 -0.8150 -0.8110
   22MOL    H30 6372   4.905   5.748   1.003  0.5801  2.5567 -0.0438
   22MOL    H31 6373   4.923   5.656   1.152  0.9801  0.5575  0.8943
   22MOL    C32 6374   5.058   5.986   1.391  0.2354  0.9701  0.0455
   22MOL    C33 6375   5.044   5.890   1.523 -0.6494  0.2686 -0.7190
   22MOL    C34 6376   5.067   5.744   1.479 -0.2626 -0.8177 -0.0343
   22MOL    C35 6377   5.155   5.936   1.631  0.3768 -0.4855 -0.1394
   22MOL    O36 6378   5.240   5.856   1.663 -0.0293 -0.1410 -0.3073
   22MOL    O37 6379   5.147   6.064   1.667  0.6478  0.0959  0.2753
   22MOL    C38 6380   5.259   6.128   1.738  0.2510  0.6888  0.2253
   22MOL    H39 6381   4.965   5.982   1.335  0.3696  3.7445 -0.4217
   22MOL    H40 6382   5.069   6.089   1.425 -1.7292  1.9756 -2.1980
   22MOL    H41 6383   4.985   5.710   1.416 -0.3724 -0.5966 -0.0124
   22MOL    H42 6384   5.156   5.727   1.418 -0.6994  0.9073 -1.2160
   22MOL    H43 6385   5.083   5.675   1.561  0.1128 -1.2092 -0.4296
   22MOL    H44 6386   5.304   6.061   1.811  1.8344  2.4064  0.8751
   22MOL    H45 6387   5.231   6.213   1.800 -0.9008  0.3029  0.2377
   22MOL    H46 6388   5.331   6.158   1.662  0.7264  0.9417  0.7741
   22MOL    C47 6389   4.903   5.911   1.576  0.4197 -0.2510  0.3836
   22MOL    C48 6390   4.849   5.871   1.716  0.2059  0.4734 -0.1021
   22MOL    C49 6391   4.897   5.726   1.760  0.5714 -0.1172  0.0769
   22MOL    C50 6392   4.898   5.973   1.827 -0.0218  0.0155 -0.0638
   22MOL    O51 6393   4.968   5.935   1.922 -0.3259  0.0328 -0.1722
   22MOL    O52 6394   4.864   6.098   1.802 -0.1331 -0.5458 -0.0740
   22MOL    C53 6395   4.895   6.203   1.891  0.3604 -0.1715  0.8686
   22MOL    H54 6396   4.837   5.879   1.494  0.0621  2.7618 -0.5748
   22MOL    H55 6397   4.900   6.020   1.567  0.9893 -0.2956 -0.4870
   22MOL    H56 6398   4.863   5.679   1.852  0.8460 -1.0095 -0.2749
   22MOL    H57 6399   4.854   5.658   1.687  1.3685 -0.1729 -0.3425
   22MOL    H58 6400   5.006   5.717   1.762  0.6548  0.2218 -1.9388
   22MOL    H59 6401   4.994   6.243   1.869  1.1440 -1.4917  1.9314
   22MOL    H60 6402   4.864   6.192   1.995 -1.1173 -1.6478  0.2991
   22MOL    H61 6403   4.833   6.291   1.872  1.9091  0.2959 -2.4541
   22MOL    C62 6404   4.695   5.870   1.700 -0.0412 -0.1633  0.1625
   22MOL    C63 6405   4.590   5.864   1.826 -0.0610  0.6838  0.1014
   22MOL    C64 6406   4.628   5.781   1.953 -0.0758  0.1860 -0.2363
   22MOL    C65 6407   4.580   6.008   1.878 -0.4930  1.0238 -0.7262
   22MOL    O66 6408   4.607   6.040   1.993  0.2291  0.5288  0.0886
   22MOL    O67 6409   4.524   6.098   1.791  0.1672  0.9527 -0.1519
   22MOL    C68 6410   4.456   6.213   1.838 -0.5207  0.0430 -0.0578
   22MOL    H69 6411   4.671   5.785   1.636 -0.0895  1.0302 -1.4413
   22MOL    H70 6412   4.664   5.956   1.641 -4.6411 -0.3573  2.0917
   22MOL    H71 6413   4.566   5.796   2.042  0.4474 -0.1524  0.1909
   22MOL    H72 6414   4.632   5.673   1.939 -1.2914  0.4594 -2.8894
   22MOL    H73 6415   4.725   5.816   1.988 -1.1695  5.0000 -1.7080
   22MOL    H74 6416   4.513   6.299   1.803  0.0067  0.8362  2.6175
   22MOL    H75 6417   4.446   6.208   1.947 -2.9273 -1.4856 -0.3097
   22MOL    H76 6418   4.360   6.200   1.788 -0.4425  0.0475 -0.2066
   22MOL    C77 6419   4.442   5.834   1.769 -0.6011  0.7404 -0.2224
   22MOL    C78 6420   4.383   5.694   1.765 -0.8383  0.2247 -0.2236
   22MOL    C79 6421   4.485   5.601   1.693  0.6765 -0.1294  0.5854
   22MOL    C80 6422   4.355   5.634   1.910  0.8145  0.0672 -0.4593
   22MOL    O81 6423   4.298   5.701   1.992  0.1362 -0.5062  0.5471
   22MOL    O82 6424   4.380   5.501   1.922 -0.7467  0.1978  0.2796
   22MOL    C83 6425   4.375   5.435   2.050 -0.4531  0.1166 -0.5215
   22MOL    H84 6426   4.420   5.880   1.672  0.4945  1.1721 -0.2713
   22MOL    H85 6427   4.374   5.895   1.828 -1.2591 -1.2629  1.1294
   22MOL    H86 6428   4.497   5.628   1.588  2.3651  1.9275  1.2632
   22MOL    H87 6429   4.585   5.595   1.735 -0.0801 -0.9894  2.3239
   22MOL    H88 6430   4.455   5.497   1.680 -1.6024  0.6506 -0.8418
   22MOL    H89 6431   4.280   5.457   2.097  0.7177 -0.0860  1.9790
   22MOL    H90 6432   4.454   5.457   2.122  0.2444 -0.4325 -1.1062
   22MOL    H91 6433   4.383   5.327   2.033 -2.1815 -0.7137  3.3844
   22MOL    C92 6434   4.260   5.687   1.665  0.7424 -0.2128 -0.1395
   22MOL    C93 6435   4.110   5.738   1.689 -0.1085 -0.3543 -0.1783
   22MOL    C94 6436   4.119   5.890   1.713 -0.0486 -0.1204 -0.0740
   22MOL    C95 6437   4.026   5.706   1.560 -0.2142 -0.4709  0.2865
   22MOL    O96 6438   3.975   5.794   1.491 -0.0994 -0.1093  0.2684
   22MOL    O97 6439   4.025   5.574   1.540 -0.4369  0.0820  0.4603
   22MOL    C98 6440   3.934   5.525   1.438  0.4432 -0.2302 -0.2558
   22MOL    H99 6441   4.245   5.581   1.647 -0.8401  0.0974 -0.7014
   22MOL   H100 6442   4.292   5.732   1.571 -0.5663  0.2565 -0.3678
   22MOL   H101 6443   4.020   5.935   1.712 -0.5246 -1.1635 -1.5593
   22MOL   H102 6444   4.171   5.901   1.808  1.3194  0.8073 -0.9018
   22MOL   H103 6445   4.178   5.947   1.641 -0.6554 -0.0711 -0.5379
   22MOL   H104 6446   3.833   5.564   1.454  0.7253  0.7148 -0.7786
   22MOL   H105 6447   3.919   5.418   1.451 -1.9703  0.2485  1.2677
   22MOL   H106 6448   3.964   5.545   1.335  2.5630  0.7341  0.5231
   22MOL   C107 6449   4.043   5.669   1.819 -0.4208  0.5008 -0.1343
   22MOL   C108 6450   3.886   5.664   1.848  0.4349 -0.6454  0.9886
   22MOL   C109 6451   3.810   5.793   1.804  0.6919  0.0353 -0.2799
   22MOL   C110 6452   3.836   5.534   1.782  0.1600  0.0031 -0.4769
   22MOL   O111 6453   3.759   5.536   1.688 -0.0547 -0.3447  0.6917
   22MOL   O112 6454   3.890   5.419   1.832 -0.0952 -0.2468  0.0748
   22MOL   C113 6455   3.848   5.295   1.786 -0.4309  0.5086  0.6117
   22MOL   H114 6456   4.078   5.719   1.909 -1.4390  2.1078 -0.6167
   22MOL   H115 6457   4.092   5.573   1.838  2.7752  2.3992  1.6957
   22MOL   H116 6458   3.830   5.884   1.861 -0.4063  0.5011 -0.6121
   22MOL   H117 6459   3.841   5.819   1.702  2.3076  2.1923  0.7103
   22MOL   H118 6460   3.703   5.774   1.805  0.5237  1.0023  0.9260
   22MOL   H119 6461   3.904   5.248   1.705  0.8254  0.6667  1.3601
   22MOL   H120 6462   3.742   5.302   1.762 -0.1295 -0.2798 -0.9857
   22MOL   H121 6463   3.867   5.224   1.866  0.1834  0.9573  0.8731
   22MOL   C122 6464   3.872   5.647   2.007  0.8004  0.3302 -0.1359
   22MOL   C123 6465   3.740   5.625   2.095  0.1817  0.4315 -0.5735
   22MOL   C124 6466   3.778   5.651   2.243 -0.6873 -0.3878 -0.2810
   22MOL   C125 6467   3.636   5.735   2.058  0.5426  0.2484 -0.5370
   22MOL   O126 6468   3.536   5.709   1.981 -0.2824  0.4538 -0.5033
   22MOL   O127 6469   3.672   5.853   2.097  0.1328  0.3501  0.2081
   22MOL   C128 6470   3.607   5.965   2.049 -0.5917 -0.4038 -0.5288
   22MOL   H129 6471   3.919   5.742   2.032 -1.0616  2.2332 -3.5777
   22MOL   H130 6472   3.956   5.583   2.034  0.4146 -0.6178 -1.1578
   22MOL   H131 6473   3.852   5.576   2.270  0.3285  1.4195  2.1176
   22MOL   H132 6474   3.819   5.751   2.255  1.1419 -1.1033 -0.3868
   22MOL   H133 6475   3.696   5.645   2.315 -0.2354 -0.6432  0.2207
   22MOL   H134 6476   3.687   6.036   2.028  1.3034 -2.6767 -1.1599
   22MOL   H135 6477   3.541   5.985   2.133  1.5704 -0.9636  1.3310
   22MOL   H136 6478   3.547   5.956   1.958 -0.2722 -1.5044 -0.6408
   22MOL   C137 6479   3.690   5.477   2.063  0.8162 -0.1438  0.1980
   22MOL   C138 6480   3.600   5.398   2.156  0.0872 -0.4879  0.0641
   22MOL   C139 6481   3.476   5.482   2.200  0.8711  0.0235 -0.3316
   22MOL   C140 6482   3.555   5.275   2.064  0.4098  0.1278  0.0002
   22MOL   O141 6483   3.641   5.205   2.014 -0.9356  0.1070  0.0827
   22MOL   O142 6484   3.422   5.274   2.034  0.8188  0.7911 -0.2590
   22MOL   C143 6485   3.374   5.189   1.928  0.0261  0.1414 -0.9845
   22MOL   H144 6486   3.775   5.412   2.042 -0.0987 -0.6827 -1.9355
   22MOL   H145 6487   3.635   5.487   1.970  2.6950  1.7071 -0.7491
   22MOL   H146 6488   3.395   5.435   2.255  0.0218  0.5932 -1.0760
   22MOL   H147 6489   3.492   5.575   2.253 -2.8229  1.4112 -1.5427
   22MOL   H148 6490   3.415   5.514   2.115 -1.4021 -0.4818  1.0655
   22MOL   H149 6491   3.430   5.206   1.836 -0.1003 -2.5804 -1.6007
   22MOL   H150 6492   3.268   5.205   1.906 -0.4108  0.1498  1.0102
   22MOL   H151 6493   3.382   5.083   1.952 -0.9070  0.2718 -0.0642
   22MOL   C152 6494   3.682   5.335   2.281  0.1734  0.5449 -0.1153
   22MOL   C153 6495   3.614   5.275   2.414  0.0283  0.2947  0.2699
   22MOL   C154 6496   3.721   5.203   2.493  0.0224  0.0841  0.4378
   22MOL   C155 6497   3.569   5.405   2.489  0.3466 -0.0253 -0.3070
   22MOL   O156 6498   3.453   5.449   2.487 -0.1190  0.0643  0.0399
   22MOL   O157 6499   3.672   5.465   2.549 -0.3121  0.9974 -0.4801
   22MOL   C158 6500   3.649   5.580   2.621 -0.1391 -0.4569 -0.1752
   22MOL   H159 6501   3.752   5.408   2.321 -0.6507  1.4345 -0.2832
   22MOL   H160 6502   3.751   5.256   2.252  0.0640 -0.5580  2.4748
   22MOL   H161 6503   3.816   5.257   2.489 -0.4519  0.9674  1.0337
   22MOL   H162 6504   3.701   5.206   2.600  0.9239 -0.2194  0.6228
   22MOL   H163 6505   3.730   5.096   2.473 -1.1882  0.3685 -1.7172
   22MOL   H164 6506   3.743   5.634   2.638 -1.2289  1.2031  0.6866
   22MOL   H165 6507   3.623   5.567   2.726 -0.2345 -0.3360 -0.1841
   22MOL   H166 6508   3.576   5.651   2.584 -1.3944 -0.4571  2.2202
   22MOL   C167 6509   3.504   5.165   2.381  0.6908 -0.0431 -0.9302
   22MOL   C168 6510   3.398   5.095   2.471  0.3380 -0.8008 -0.1778
   22MOL   C169 6511   3.469   5.039   2.595  0.1007  0.0409  0.6861
   22MOL   C170 6512   3.298   5.207   2.521 -0.7208  0.3924  0.4973
   22MOL   O171 6513   3.282   5.236   2.639 -0.2754 -0.3147 -0.1860
   22MOL   O172 6514   3.235   5.271   2.416  0.1110 -0.1901  0.1132
   22MOL   C173 6515   3.141   5.372   2.454  0.4163 -0.0504  0.1038
   22MOL   H174 6516   3.562   5.086   2.333  0.3741 -0.1321 -1.1652
   22MOL   H175 6517   3.446   5.212   2.302 -1.3729  0.2625  0.6964
   22MOL   H176 6518   3.389   4.988   2.649 -1.5054  1.1669 -0.5735
   22MOL   H177 6519   3.547   4.969   2.566  0.5680  0.0109  1.9812
   22MOL   H178 6520   3.493   5.117   2.668  1.5933  0.0914  0.1572
   22MOL   H179 6521   3.136   5.441   2.370 -0.2521  0.7653  0.8055
   22MOL   H180 6522   3.174   5.429   2.541  0.9340 -1.8227  1.0926
   22MOL   H181 6523   3.039   5.340   2.476  0.9412 -1.9198 -0.0602
   22MOL   C182 6524   3.335   4.977   2.392  0.0330 -0.2480  0.1115
   22MOL   C183 6525   3.183   4.927   2.404 -0.2605 -0.5883 -0.5004
   22MOL   C184 6526   3.142   4.913   2.555 -0.0544  0.3863 -0.4983
   22MOL   C185 6527   3.091   5.028   2.336  0.2383  1.1701  0.2666
   22MOL   O186 6528   2.988   5.067   2.389  0.0034  0.5757 -0.3115
   22MOL   O187 6529   3.140   5.070   2.215  0.5351 -0.4720 -0.0792
   22MOL   C188 6530   3.058   5.153   2.136  0.5856 -0.5512  0.0869
   22MOL   H189 6531   3.402   4.893   2.411  0.2617 -0.0829  0.0359
   22MOL   H190 6532   3.352   4.991   2.286 -1.4037 -1.0804 -0.2349
   22MOL   H191 6533   3.145   5.010   2.605 -1.6521  0.2625 -0.1245
   22MOL   H192 6534   3.047   4.862   2.571  0.6441 -1.0921 -0.9516
   22MOL   H193 6535   3.213   4.850   2.609 -1.8419  0.0462  1.5461
   22MOL   H194 6536   3.094   5.171   2.035 -1.2925 -0.0601 -0.5191
   22MOL   H195 6537   3.046   5.244   2.194  0.9056 -1.1464  1.1073
   22MOL   H196 6538   2.955   5.118   2.126  0.5463 -0.1333 -0.9100
   22MOL   C197 6539   3.183   4.782   2.335 -0.4015  0.7945  0.1781
   22MOL   C198 6540   3.068   4.701   2.273  0.3788 -0.1901  0.1595
   22MOL   C199 6541   2.963   4.677   2.380  0.5990 -0.5792 -0.1386
   22MOL   C200 6542   3.012   4.778   2.148 -0.2769  0.4866  0.1985
   22MOL   O201 6543   3.083   4.810   2.055 -0.1314  0.8620  0.5238
   22MOL   O202 6544   2.877   4.800   2.150 -0.0951  0.5322  0.1260
   22MOL   C203 6545   2.797   4.872   2.055 -0.4335  0.7198  0.3221
   22MOL   H204 6546   3.240   4.722   2.407  0.1532 -0.7001 -1.4725
   22MOL   H205 6547   3.253   4.789   2.252 -0.2709 -2.1369 -0.0147
   22MOL   H206 6548   2.896   4.594   2.360  1.2068 -1.2488  0.5669
   22MOL   H207 6549   3.032   4.657   2.463 -0.5206  3.5363  1.9031
   22MOL   H208 6550   2.898   4.762   2.401  1.0388  0.1882 -1.8784
   22MOL   H209 6551   2.853   4.898   1.965 -2.6185 -1.0551 -1.6256
   22MOL   H210 6552   2.728   4.944   2.099 -1.5112 -0.2088  0.1869
   22MOL   H211 6553   2.738   4.793   2.007 -2.8811  2.0793  1.0026
   22MOL   C212 6554   3.126   4.564   2.218  0.1988 -0.1175 -0.5510
   22MOL   C213 6555   3.064   4.455   2.115 -0.4526  0.2105  0.2258
   22MOL   C214 6556   3.153   4.330   2.139  0.2024  0.5443 -0.7088
   22MOL   C215 6557   2.916   4.418   2.141 -0.3354 -0.3586 -0.9811
   22MOL   O216 6558   2.884   4.334   2.225 -0.3105  0.4300  0.6626
   22MOL   O217 6559   2.827   4.493   2.083 -0.2818  0.1431 -0.0686
   22MOL   C218 6560   2.686   4.476   2.100 -0.4562  0.1021 -0.0994
   22MOL   H219 6561   3.142   4.504   2.308 -1.9112 -2.3102 -1.5795
   22MOL   H220 6562   3.224   4.580   2.175  0.6260 -0.5454  0.2537
   22MOL   H221 6563   3.255   4.350   2.109 -0.8790 -0.2580 -5.2936
   22MOL   H222 6564   3.161   4.298   2.243  3.1453 -0.1213 -1.1045
   22MOL   H223 6565   3.109   4.246   2.086  0.7226  2.0529 -3.6282
   22MOL   H224 6566   2.638   4.568   2.065  0.0301  0.5176  0.3119
   22MOL   H225 6567   2.652   4.469   2.204 -0.7732 -1.0417 -0.2736
   22MOL   H226 6568   2.640   4.393   2.047  1.9597 -0.0930 -1.9476
   22MOL   C227 6569   3.080   4.511   1.969 -0.1917 -0.1833  0.4620
   22MOL   C228 6570   3.081   4.420   1.832  0.4176  0.5054  0.3444
   22MOL   C229 6571   3.026   4.509   1.720 -0.6922 -0.4901  0.7104
   22MOL   C230 6572   3.227   4.371   1.808 -0.0975 -0.5208 -0.6518
   22MOL   O231 6573   3.275   4.287   1.881  0.0772 -0.5658 -0.4162
   22MOL   O232 6574   3.301   4.433   1.711 -0.4575  0.6662  0.1853
   22MOL   C233 6575   3.433   4.372   1.676  0.0044  0.0634  0.5879
   22MOL   H234 6576   3.177   4.559   1.972  0.4294 -1.4430  0.9679
   22MOL   H235 6577   3.015   4.597   1.952  1.1495  0.9336  0.8558
   22MOL   H236 6578   3.081   4.603   1.730  2.2317 -2.1890  1.1029
   22MOL   H237 6579   3.041   4.464   1.621 -0.0642 -0.8571  0.9680
   22MOL   H238 6580   2.919   4.526   1.732 -0.5496  0.2387  1.0019
   22MOL   H239 6581   3.411   4.265   1.674  0.8393 -0.0971 -1.1692
   22MOL   H240 6582   3.504   4.390   1.756  0.7785  2.2918 -0.5564
   22MOL   H241 6583   3.471   4.382   1.574 -0.0152  1.8684  0.7474
   22MOL   C242 6584   2.977   4.298   1.833 -0.2579 -0.4258  0.5241
   22MOL   C243 6585   2.935   4.192   1.727 -0.5983  0.0397 -0.5887
   22MOL   C244 6586   2.855   4.265   1.622 -0.6457 -0.0283  0.3641
   22MOL   C245 6587   3.058   4.128   1.654 -0.3747 -0.0487 -0.0628
   22MOL   O246 6588   3.078   4.136   1.532 -0.3431  0.1243  0.4799
   22MOL   O247 6589   3.137   4.065   1.736 -0.4617  0.4763  0.4511
   22MOL   C248 6590   3.252   4.002   1.677  0.4816 -0.4427  0.1996
   22MOL   H249 6591   2.881   4.344   1.858 -0.4807 -0.8973  0.5445
   22MOL   H250 6592   2.997   4.251   1.929  1.8203  0.5759  0.5896
   22MOL   H251 6593   2.815   4.193   1.550 -3.0790 -1.2873  2.8861
   22MOL   H252 6594   2.773   4.320   1.668  0.8117  0.3226  2.5655
   22MOL   H253 6595   2.904   4.338   1.558 -1.1007 -0.9808 -1.1101
   22MOL   H254 6596   3.314   3.958   1.755  0.1391 -0.1160  0.6583
   22MOL   H255 6597   3.310   4.076   1.621 -1.2423  1.3278  0.6853
   22MOL   H256 6598   3.219   3.925   1.607  0.3623 -0.1432 -0.0759
   22MOL   C257 6599   2.846   4.085   1.801  0.3659 -0.0416  0.2240
   22MOL   C258 6600   2.803   3.948   1.736 -0.4967 -0.1669 -0.0256
   22MOL   C259 6601   2.777   3.954   1.584 -0.2677 -0.3407  0.0234
   22MOL   C260 6602   2.922   3.855   1.759 -0.2865  0.1911 -0.5371
   22MOL   O261 6603   2.984   3.797   1.670  0.2918 -0.1958 -0.2971
   22MOL   O262 6604   2.945   3.833   1.887  0.1929  0.5790  0.0615
   22MOL   C263 6605   3.067   3.775   1.932  0.2501 -0.1020  0.2825
   22MOL   H264 6606   2.749   4.135   1.803  0.6349  0.5343 -0.7516
   22MOL   H265 6607   2.873   4.064   1.905  0.3709 -1.4429 -0.0463
   22MOL   H266 6608   2.698   4.028   1.568 -1.4623 -1.3380  1.1163
   22MOL   H267 6609   2.871   3.978   1.535  0.2161 -1.8994  0.1661
   22MOL   H268 6610   2.748   3.860   1.535  0.9332 -1.7444  1.9539
   22MOL   H269 6611   3.095   3.679   1.889  2.7303  0.3427  0.8259
   22MOL   H270 6612   3.069   3.776   2.041  0.3477 -1.0806  0.2930
   22MOL   H271 6613   3.150   3.838   1.898  0.7776 -1.3878 -0.8630
   22MOL   C272 6614   2.679   3.872   1.804  0.2732 -0.1240  0.4043
   22MOL   C273 6615   2.538   3.938   1.833 -0.3648 -0.2440 -0.0509
   22MOL   C274 6616   2.480   4.021   1.715 -0.1853 -0.2118 -0.2668
   22MOL   C275 6617   2.448   3.813   1.852  0.0013 -0.4502  0.7931
   22MOL   O276 6618   2.446   3.762   1.962 -0.3242 -0.1767  0.1830
   22MOL   O277 6619   2.387   3.768   1.735 -0.1154 -0.2108  0.2259
   22MOL   C278 6620   2.311   3.649   1.740  0.2185 -0.3534  0.2888
   22MOL   H279 6621   2.702   3.821   1.897  0.9649  1.0103  0.8618
   22MOL   H280 6622   2.654   3.797   1.729 -0.9738  2.4674 -1.8710
   22MOL   H281 6623   2.486   3.967   1.620  0.8864  2.1591 -1.6088
   22MOL   H282 6624   2.378   4.056   1.729 -0.9714 -1.8809 -1.6404
   22MOL   H283 6625   2.537   4.113   1.705  2.3426 -1.8686 -1.5457
   22MOL   H284 6626   2.251   3.639   1.650 -0.2852  0.4375  0.5367
   22MOL   H285 6627   2.251   3.649   1.831  0.2204  2.2412  0.3220
   22MOL   H286 6628   2.388   3.572   1.742 -0.5840 -1.2248 -1.0303
   22MOL   C287 6629   2.551   4.023   1.966  1.2172  0.2986  0.1599
   22MOL   C288 6630   2.423   4.090   2.021  0.3748  0.3270  0.0266
   22MOL   C289 6631   2.305   4.002   2.076  0.3588  0.0469  0.2070
   22MOL   C290 6632   2.460   4.179   2.138 -0.9101 -0.5793 -0.2566
   22MOL   O291 6633   2.416   4.299   2.141 -0.0935 -0.0162  0.2398
   22MOL   O292 6634   2.533   4.115   2.232 -0.2247 -0.0792  0.1236
   22MOL   C293 6635   2.589   4.186   2.339 -0.2431  0.6122  0.0097
   22MOL   H294 6636   2.640   4.086   1.970  1.2118  0.3059  0.1620
   22MOL   H295 6637   2.581   3.941   2.032  0.4679  0.5126  0.7679
   22MOL   H296 6638   2.330   3.952   2.169 -1.3392  0.1456  0.7392
   22MOL   H297 6639   2.217   4.066   2.083  1.1095  1.1556 -0.3632
   22MOL   H298 6640   2.280   3.932   1.997 -0.2336 -1.2959  1.5695
   22MOL   H299 6641   2.519   4.243   2.400 -0.3032  1.5611 -0.9338
   22MOL   H300 6642   2.673   4.249   2.311  0.8791 -1.7424 -2.1290
   22MOL   H301 6643   2.640   4.109   2.397 -0.1072  0.4990 -0.2616
   22MOL   H302 6644   2.394   4.151   1.936 -0.3957  0.7417  0.5769
   23MOL     C1 6645   1.939   1.897   3.175 -0.3537  0.1792  0.8223
   23MOL     C2 6646   2.021   1.785   3.118 -0.0636 -0.5918  0.4004
   23MOL     C3 6647   1.935   1.699   3.026  0.8392  0.2709  0.9535
   23MOL     C4 6648   2.146   1.853   3.050  0.5330  0.6170 -0.0878
   23MOL     O5 6649   2.200   1.950   3.105 -0.0709  0.6425 -0.4501
   23MOL     O6 6650   2.194   1.789   2.944  0.1958  0.0725  0.1904
   23MOL     C7 6651   2.326   1.824   2.908 -0.2444 -0.0675  0.1235
   23MOL     H8 6652   1.845   1.866   3.221 -0.7077  1.2782  0.8693
   23MOL     H9 6653   1.980   1.959   3.254 -0.8011  0.7746  0.5954
   23MOL    H10 6654   1.863   1.651   3.092  1.7373 -0.8197  1.1504
   23MOL    H11 6655   1.881   1.752   2.948 -0.0606 -2.1988 -0.1734
   23MOL    H12 6656   1.991   1.624   2.970  1.5930  0.3832  1.5612
   23MOL    H13 6657   2.348   1.789   2.808  0.3674  3.4559 -1.0444
   23MOL    H14 6658   2.401   1.780   2.974 -0.0751  0.6533  0.4272
   23MOL    H15 6659   2.333   1.933   2.906  1.5976 -0.0941  2.2721
   23MOL    H16 6660   1.902   1.964   3.097 -2.3127 -1.5985  0.1672
   23MOL    C17 6661   2.068   1.705   3.251 -0.1792  0.5268 -0.0467
   23MOL    C18 6662   2.169   1.579   3.266  0.1220 -0.1067 -0.7139
   23MOL    C19 6663   2.137   1.472   3.158 -0.6304 -0.1094 -0.2849
   23MOL    C20 6664   2.318   1.616   3.254 -0.3183 -0.5657 -0.2094
   23MOL    O21 6665   2.353   1.730   3.254 -0.5635 -0.0697  0.0196
   23MOL    O22 6666   2.403   1.511   3.236 -0.3230 -0.4617  0.0450
   23MOL    C23 6667   2.534   1.542   3.189 -0.3629 -0.8677  0.4864
   23MOL    H24 6668   1.976   1.673   3.300  0.5987 -0.6795  0.6493
   23MOL    H25 6669   2.107   1.782   3.318 -0.1772  0.3738  0.1291
   23MOL    H26 6670   2.170   1.369   3.175 -0.2332 -0.1821 -1.4957
   23MOL    H27 6671   2.030   1.450   3.160 -0.1261 -2.6555  2.0050
   23MOL    H28 6672   2.171   1.500   3.059  0.3424 -1.6621 -0.4069
   23MOL    H29 6673   2.582   1.617   3.252 -0.9406  0.4085 -0.5647
   23MOL    H30 6674   2.531   1.588   3.090  0.6290 -1.5306  0.1428
   23MOL    H31 6675   2.587   1.448   3.171  2.0733  0.8888 -2.1095
   23MOL    C32 6676   2.143   1.504   3.404  0.3566  0.0248 -0.3060
   23MOL    C33 6677   2.167   1.560   3.550 -0.0864  0.2835  0.3040
   23MOL    C34 6678   2.149   1.431   3.638 -0.6506 -0.4807 -0.1424
   23MOL    C35 6679   2.307   1.619   3.572 -0.1222 -0.2773 -0.3252
   23MOL    O36 6680   2.399   1.561   3.613  0.4931 -0.3301  0.0675
   23MOL    O37 6681   2.311   1.753   3.550 -0.0138 -0.0693  0.0031
   23MOL    C38 6682   2.434   1.822   3.559 -0.3084  0.2775 -0.2704
   23MOL    H39 6683   2.200   1.411   3.399  1.8843  0.8496  1.0938
   23MOL    H40 6684   2.041   1.466   3.401  0.7399 -0.9962 -0.3550
   23MOL    H41 6685   2.161   1.442   3.746  1.0516 -1.4478 -0.2134
   23MOL    H42 6686   2.059   1.376   3.614 -1.7726  1.2139  0.0893
   23MOL    H43 6687   2.228   1.366   3.600  0.3254  0.3384  0.4445
   23MOL    H44 6688   2.449   1.826   3.667  0.5273  0.7869 -0.4010
   23MOL    H45 6689   2.445   1.929   3.540  2.2390 -0.0136 -0.5791
   23MOL    H46 6690   2.518   1.784   3.501  0.0228  1.2142 -0.4087
   23MOL    C47 6691   2.058   1.659   3.588 -0.5137 -0.5888  0.2862
   23MOL    C48 6692   2.006   1.708   3.730  0.0816 -0.5378  0.1388
   23MOL    C49 6693   1.920   1.833   3.696  0.8538  0.4007 -0.5347
   23MOL    C50 6694   1.904   1.604   3.780 -0.1386  0.0062  0.1131
   23MOL    O51 6695   1.929   1.530   3.879  0.1414 -0.0980  0.6761
   23MOL    O52 6696   1.799   1.571   3.704 -0.6532 -0.4138  0.5535
   23MOL    C53 6697   1.735   1.445   3.731 -0.0585  0.0708  0.5146
   23MOL    H54 6698   1.969   1.613   3.547  0.5428 -3.0974  0.6845
   23MOL    H55 6699   2.068   1.750   3.530  0.0052 -0.2510  0.8965
   23MOL    H56 6700   1.845   1.823   3.618  1.2097  3.2320 -1.2687
   23MOL    H57 6701   1.858   1.860   3.781 -0.2720  0.5361 -1.3916
   23MOL    H58 6702   1.969   1.925   3.666  0.5777  0.0668 -2.0451
   23MOL    H59 6703   1.677   1.409   3.646 -2.1552  1.1189  1.4736
   23MOL    H60 6704   1.662   1.462   3.810  1.1263  0.1434  1.6092
   23MOL    H61 6705   1.800   1.360   3.752  0.4113  0.4477  0.6093
   23MOL    C62 6706   2.137   1.731   3.822 -0.2065 -0.6095  0.1329
   23MOL    C63 6707   2.124   1.818   3.951 -0.2158  0.2245 -0.3110
   23MOL    C64 6708   2.266   1.824   4.013  0.2896  0.6919  0.5231
   23MOL    C65 6709   2.086   1.966   3.917  0.3780 -0.1441 -0.2261
   23MOL    O66 6710   1.982   2.022   3.963 -0.2002  0.3447 -0.0319
   23MOL    O67 6711   2.175   2.020   3.838  0.1051 -0.0533 -0.7507
   23MOL    C68 6712   2.162   2.158   3.808  0.4330 -0.6399 -0.4872
   23MOL    H69 6713   2.214   1.777   3.759 -0.1812 -2.3012 -1.1031
   23MOL    H70 6714   2.172   1.631   3.848 -0.0242  0.1020  2.7159
   23MOL    H71 6715   2.285   1.721   4.042 -0.8445 -0.0596 -1.3027
   23MOL    H72 6716   2.341   1.859   3.942  1.9533 -1.2405  1.2621
   23MOL    H73 6717   2.271   1.897   4.094 -0.4241 -0.0650  1.2551
   23MOL    H74 6718   2.062   2.200   3.794  1.2315  1.0657 -1.1999
   23MOL    H75 6719   2.219   2.183   3.718 -0.7206 -0.0075 -1.0533
   23MOL    H76 6720   2.210   2.216   3.886 -1.1683  0.2170 -0.1271
   23MOL    C77 6721   2.018   1.745   4.053  0.1155 -0.6589  0.7863
   23MOL    C78 6722   1.995   1.774   4.209 -0.9050 -0.2749 -0.5178
   23MOL    C79 6723   1.888   1.674   4.251  0.0586  0.7293 -0.4465
   23MOL    C80 6724   2.122   1.747   4.294  0.1844 -0.1855  0.1055
   23MOL    O81 6725   2.190   1.836   4.345  0.0037 -0.2056 -0.7019
   23MOL    O82 6726   2.148   1.615   4.299  0.0460  0.4291 -0.2223
   23MOL    C83 6727   2.269   1.573   4.356 -0.2884  0.1694  0.0170
   23MOL    H84 6728   2.045   1.640   4.057  2.0129 -0.1610  1.3243
   23MOL    H85 6729   1.920   1.748   4.004  0.5422  1.9514 -0.0084
   23MOL    H86 6730   1.867   1.668   4.358 -0.4308  2.5820 -0.4240
   23MOL    H87 6731   1.800   1.700   4.192  0.3945  0.6626 -0.9792
   23MOL    H88 6732   1.909   1.573   4.216 -1.3912  1.2763 -3.0249
   23MOL    H89 6733   2.357   1.594   4.294 -2.7656  0.8761 -3.4230
   23MOL    H90 6734   2.264   1.465   4.362  0.1770  0.2419  2.0019
   23MOL    H91 6735   2.277   1.612   4.457  0.0031 -0.2783  0.1669
   23MOL    C92 6736   1.944   1.921   4.223  0.5274  1.0862  0.7957
   23MOL    C93 6737   1.863   1.981   4.352  0.1233  0.4317 -0.1235
   23MOL    C94 6738   1.726   1.909   4.380 -0.2748  0.5032  0.2850
   23MOL    C95 6739   1.946   1.978   4.483 -0.1841 -0.1359  0.7127
   23MOL    O96 6740   1.900   1.927   4.583 -0.3459 -0.5236  0.1233
   23MOL    O97 6741   2.055   2.053   4.472  0.2301 -0.1546 -0.5075
   23MOL    C98 6742   2.146   2.065   4.583  0.3446  0.0052 -0.4304
   23MOL    H99 6743   1.862   1.927   4.152 -0.1486  1.7883  1.6157
   23MOL   H100 6744   2.018   1.994   4.189 -1.3836  2.2763 -0.9065
   23MOL   H101 6745   1.644   1.970   4.418 -1.1930 -1.0620  0.9070
   23MOL   H102 6746   1.692   1.868   4.285  0.3569  0.4868  0.0612
   23MOL   H103 6747   1.732   1.818   4.440 -0.0229  0.7404  0.6222
   23MOL   H104 6748   2.239   2.014   4.555 -0.1350 -0.4971 -1.1280
   23MOL   H105 6749   2.117   2.015   4.675 -2.2423  0.5208 -0.9245
   23MOL   H106 6750   2.159   2.170   4.609 -0.4803  0.3361 -1.3121
   23MOL   C107 6751   1.824   2.127   4.305 -0.8388  0.4346 -0.2314
   23MOL   C108 6752   1.767   2.249   4.391 -0.1770  0.6153  0.0272
   23MOL   C109 6753   1.665   2.188   4.494  0.0552  0.0108  0.4438
   23MOL   C110 6754   1.887   2.316   4.469  0.5061  0.3546 -0.1638
   23MOL   O111 6755   1.895   2.312   4.595 -0.4321  0.0512 -0.3222
   23MOL   O112 6756   1.969   2.374   4.386  0.0690 -0.0478 -0.0532
   23MOL   C113 6757   2.102   2.410   4.428  0.0666 -0.0362  0.4350
   23MOL   H114 6758   1.747   2.120   4.229 -0.7706  0.0642 -0.2675
   23MOL   H115 6759   1.915   2.163   4.257  0.1294  0.6119  1.6751
   23MOL   H116 6760   1.706   2.108   4.557 -1.9684 -0.7674  0.8189
   23MOL   H117 6761   1.621   2.267   4.554 -1.9154 -0.0196 -0.9287
   23MOL   H118 6762   1.583   2.148   4.435 -0.6863  1.2017  0.6605
   23MOL   H119 6763   2.172   2.413   4.345  0.3857  0.0395  0.7032
   23MOL   H120 6764   2.133   2.339   4.505 -2.1694  0.4098  1.7751
   23MOL   H121 6765   2.104   2.503   4.485  1.4659  0.0118  0.3419
   23MOL   C122 6766   1.694   2.355   4.303  0.1823 -0.3802  0.6979
   23MOL   C123 6767   1.602   2.479   4.349  0.0860  0.2468  0.0995
   23MOL   C124 6768   1.463   2.419   4.347  0.1085  0.5315  0.2554
   23MOL   C125 6769   1.634   2.526   4.493  0.3353 -0.4310  0.2947
   23MOL   O126 6770   1.565   2.501   4.588  0.2889  0.1203  0.5019
   23MOL   O127 6771   1.747   2.598   4.493 -0.2490 -0.1568  0.3898
   23MOL   C128 6772   1.788   2.653   4.616  0.0631  0.6432  0.9169
   23MOL   H129 6773   1.636   2.297   4.231 -1.8611  1.1104  1.1050
   23MOL   H130 6774   1.773   2.391   4.238  0.5619 -1.1926  0.7008
   23MOL   H131 6775   1.429   2.393   4.246 -0.5763 -0.2159  0.6730
   23MOL   H132 6776   1.441   2.329   4.405 -2.6288  1.9966  1.5930
   23MOL   H133 6777   1.389   2.483   4.395  1.5896  3.1338 -0.8378
   23MOL   H134 6778   1.714   2.720   4.661 -0.1482 -1.1070  3.2837
   23MOL   H135 6779   1.882   2.707   4.605  0.1713  0.2834  0.0593
   23MOL   H136 6780   1.792   2.575   4.692 -0.9111  0.2026  0.5220
   23MOL   C137 6781   1.609   2.574   4.230 -0.6779 -0.3356  0.2623
   23MOL   C138 6782   1.552   2.726   4.218 -0.4247  0.3926  0.6013
   23MOL   C139 6783   1.408   2.739   4.275  0.7310  0.1296 -0.1728
   23MOL   C140 6784   1.643   2.816   4.302 -0.1727 -0.0685 -0.5805
   23MOL   O141 6785   1.599   2.881   4.393 -0.2236 -0.5596  0.0211
   23MOL   O142 6786   1.777   2.819   4.251  0.5703  0.8035  0.4756
   23MOL   C143 6787   1.873   2.883   4.328  0.6576 -0.1247 -0.2532
   23MOL   H144 6788   1.578   2.515   4.144  0.5881  0.6222 -0.8692
   23MOL   H145 6789   1.715   2.588   4.206 -1.2736  1.5816 -1.3813
   23MOL   H146 6790   1.338   2.683   4.212 -0.8002 -0.4794  2.0173
   23MOL   H147 6791   1.403   2.699   4.376  1.8988 -0.1150 -0.2032
   23MOL   H148 6792   1.374   2.842   4.289  0.9519  0.1470  0.2205
   23MOL   H149 6793   1.899   2.848   4.428  0.9500  0.2468 -0.1950
   23MOL   H150 6794   1.835   2.984   4.345  0.8590  0.0974 -1.1266
   23MOL   H151 6795   1.973   2.883   4.285  1.6815 -1.9531  2.0010
   23MOL   C152 6796   1.561   2.765   4.066 -0.2208 -0.1798  0.0262
   23MOL   C153 6797   1.530   2.909   4.004 -0.3908 -0.2196 -0.5464
   23MOL   C154 6798   1.380   2.895   3.946  0.8621 -0.0969  0.6318
   23MOL   C155 6799   1.519   3.025   4.098 -0.5842  0.4977 -0.3995
   23MOL   O156 6800   1.414   3.065   4.139  0.4428 -0.2497 -0.1619
   23MOL   O157 6801   1.635   3.089   4.139 -0.6172 -0.0410  0.1581
   23MOL   C158 6802   1.638   3.202   4.220  0.5096  0.6291 -0.4771
   23MOL   H159 6803   1.490   2.690   4.032 -1.4667  1.1217 -0.3043
   23MOL   H160 6804   1.657   2.736   4.023 -0.6699 -1.2355 -0.2634
   23MOL   H161 6805   1.352   2.983   3.888 -0.2356 -0.2894  0.8626
   23MOL   H162 6806   1.363   2.805   3.887 -0.7869 -0.2281  1.2852
   23MOL   H163 6807   1.302   2.900   4.022  1.6841  0.5813  1.4455
   23MOL   H164 6808   1.578   3.188   4.310  0.5048 -0.8038 -0.6858
   23MOL   H165 6809   1.598   3.293   4.176  2.2200  0.5930 -2.1777
   23MOL   H166 6810   1.744   3.220   4.239  0.5214 -0.1332  0.2338
   23MOL   C167 6811   1.635   2.954   3.892 -0.2569  0.1759  0.2257
   23MOL   C168 6812   1.638   2.902   3.742  0.3213  0.1875  0.7547
   23MOL   C169 6813   1.657   2.753   3.745  0.4150 -0.0030 -0.2628
   23MOL   C170 6814   1.505   2.953   3.665 -0.0750 -0.2915 -0.4874
   23MOL   O171 6815   1.410   2.878   3.634  0.1834 -0.0721 -0.4200
   23MOL   O172 6816   1.500   3.084   3.645 -0.8931 -0.5342 -0.2829
   23MOL   C173 6817   1.381   3.149   3.599 -0.5009 -0.0748 -0.2657
   23MOL   H174 6818   1.736   2.968   3.931 -0.4051  0.8997  0.3510
   23MOL   H175 6819   1.612   3.060   3.880  0.6864  0.3751  0.1207
   23MOL   H176 6820   1.583   2.722   3.819 -0.2503  3.1768  0.4813
   23MOL   H177 6821   1.624   2.712   3.649  0.7653  1.0109 -0.8177
   23MOL   H178 6822   1.752   2.703   3.766  1.4759  2.4549  0.9495
   23MOL   H179 6823   1.345   3.132   3.498  2.0985 -1.2847 -1.0435
   23MOL   H180 6824   1.400   3.256   3.609  2.2613 -0.7332  2.1437
   23MOL   H181 6825   1.294   3.120   3.658 -0.3813 -0.5638 -0.3312
   23MOL   C182 6826   1.774   2.971   3.680 -0.7461  0.2885 -0.9657
   23MOL   C183 6827   1.842   2.936   3.540  0.3461 -0.3935 -0.5256
   23MOL   C184 6828   1.886   2.795   3.517 -0.6221 -1.1392  0.4267
   23MOL   C185 6829   1.744   2.981   3.436 -0.6335 -0.8958  0.7469
   23MOL   O186 6830   1.685   2.903   3.357  0.3182 -0.2477 -0.1021
   23MOL   O187 6831   1.731   3.112   3.431 -0.2947  0.3900 -0.1024
   23MOL   C188 6832   1.648   3.181   3.340 -0.5675 -0.0971 -0.1089
   23MOL   H189 6833   1.846   2.963   3.761 -2.5464  0.3941  0.6710
   23MOL   H190 6834   1.763   3.079   3.683 -0.1879  0.3144  1.0330
   23MOL   H191 6835   1.804   2.724   3.507 -0.6659 -0.9925 -0.2784
   23MOL   H192 6836   1.937   2.787   3.421 -2.7617 -0.8382 -0.7729
   23MOL   H193 6837   1.947   2.752   3.596 -1.9056  0.5275  2.3777
   23MOL   H194 6838   1.659   3.146   3.238  2.3194 -1.0024  0.4824
   23MOL   H195 6839   1.677   3.286   3.347  1.1355 -0.5676  0.0168
   23MOL   H196 6840   1.541   3.175   3.360 -0.5817  1.0049  0.2122
   23MOL   C197 6841   1.974   3.025   3.541  0.0500  0.6287 -0.4292
   23MOL   C198 6842   2.083   3.047   3.427  0.0637 -0.0212 -0.7701
   23MOL   C199 6843   2.197   3.120   3.507  0.5238  0.0623 -0.1540
   23MOL   C200 6844   2.147   2.913   3.379 -0.1634 -0.0394  0.0793
   23MOL   O201 6845   2.154   2.884   3.261 -0.1382 -0.1469 -0.0174
   23MOL   O202 6846   2.200   2.838   3.477  0.0258  0.1425  0.2570
   23MOL   C203 6847   2.259   2.717   3.439  0.2777  0.2700 -0.5897
   23MOL   H204 6848   2.035   2.989   3.624  0.1495  1.9789  0.0938
   23MOL   H205 6849   1.955   3.128   3.572  2.9942  1.4269 -1.0258
   23MOL   H206 6850   2.289   3.147   3.455 -0.9914 -0.1769 -3.0672
   23MOL   H207 6851   2.159   3.212   3.551  2.4215 -0.7365  3.3011
   23MOL   H208 6852   2.227   3.070   3.599  0.1130 -0.6418 -0.4000
   23MOL   H209 6853   2.256   2.644   3.520 -2.2675  0.5659 -0.3653
   23MOL   H210 6854   2.361   2.744   3.412  0.6100 -0.5964 -0.2348
   23MOL   H211 6855   2.207   2.673   3.354 -0.5586 -2.6876  1.3579
   23MOL   C212 6856   2.022   3.131   3.313  0.1750  0.3618  0.3746
   23MOL   C213 6857   2.094   3.193   3.187  0.4110 -0.2140 -0.1711
   23MOL   C214 6858   2.008   3.171   3.059  0.1355 -0.4247 -0.6555
   23MOL   C215 6859   2.093   3.348   3.220 -0.3874  0.1615  0.1434
   23MOL   O216 6860   2.038   3.435   3.152  0.2386 -0.2676  0.0255
   23MOL   O217 6861   2.163   3.384   3.335  0.9586 -0.1595  0.0701
   23MOL   C218 6862   2.190   3.519   3.373 -0.0707 -0.5137 -0.2194
   23MOL   H219 6863   1.970   3.211   3.365  0.4788 -0.2291  1.6074
   23MOL   H220 6864   1.947   3.068   3.265 -1.3240  3.6875 -1.7672
   23MOL   H221 6865   1.901   3.190   3.062  0.5607  2.4366 -1.9266
   23MOL   H222 6866   2.039   3.244   2.984  0.0083 -0.0925 -0.3899
   23MOL   H223 6867   2.014   3.077   3.005 -1.9910 -0.7526 -0.3506
   23MOL   H224 6868   2.221   3.581   3.289  1.1134 -0.8946 -0.0646
   23MOL   H225 6869   2.262   3.525   3.455  1.9034 -2.9840 -1.7202
   23MOL   H226 6870   2.096   3.557   3.414  0.3176 -1.1717  1.3347
   23MOL   C227 6871   2.239   3.139   3.143 -0.1186  0.4862 -0.2056
   23MOL   C228 6872   2.347   3.223   3.065  0.2583  0.1033  0.2364
   23MOL   C229 6873   2.282   3.264   2.928 -0.2079  0.4337  0.5702
   23MOL   C230 6874   2.400   3.342   3.143  0.0435 -0.5232  0.7732
   23MOL   O231 6875   2.396   3.459   3.110 -0.5302  0.2784  0.5305
   23MOL   O232 6876   2.455   3.308   3.253  0.1816  0.4464  0.4052
   23MOL   C233 6877   2.495   3.403   3.350  0.0506  0.3766 -0.6670
   23MOL   H234 6878   2.219   3.053   3.079 -1.2834  1.9128 -1.8373
   23MOL   H235 6879   2.289   3.107   3.234 -0.5194  1.5188  0.3775
   23MOL   H236 6880   2.232   3.362   2.924  0.7843  0.9472  0.7316
   23MOL   H237 6881   2.369   3.278   2.864 -0.1934  1.2086  0.7553
   23MOL   H238 6882   2.210   3.189   2.896  0.4024  0.6860 -1.4935
   23MOL   H239 6883   2.461   3.506   3.343  0.4814  0.6660  1.2845
   23MOL   H240 6884   2.603   3.403   3.365 -0.0970 -0.0032  0.4416
   23MOL   H241 6885   2.456   3.371   3.446  0.4539  1.6460 -0.0784
   23MOL   C242 6886   2.459   3.118   3.018  0.2930  0.6412 -0.7786
   23MOL   C243 6887   2.618   3.139   3.009 -0.1076 -0.3063  0.7202
   23MOL   C244 6888   2.664   3.275   2.950 -0.1628 -0.0569 -0.1409
   23MOL   C245 6889   2.675   3.127   3.159 -0.3746  0.5072  0.2860
   23MOL   O246 6890   2.762   3.205   3.197 -0.2775 -0.2743  0.2011
   23MOL   O247 6891   2.638   3.019   3.223 -0.6226 -0.2622  0.1552
   23MOL   C248 6892   2.649   3.007   3.366 -0.1087  0.9993  0.1201
   23MOL   H249 6893   2.423   3.073   2.926  0.1751 -1.2324  0.1720
   23MOL   H250 6894   2.442   3.028   3.077 -0.1691  1.6382  0.6364
   23MOL   H251 6895   2.773   3.273   2.961 -0.2979  2.4053  2.2648
   23MOL   H252 6896   2.631   3.287   2.847  1.0496 -2.8274 -0.8949
   23MOL   H253 6897   2.633   3.365   3.002 -1.7973 -0.1144 -0.9995
   23MOL   H254 6898   2.596   3.097   3.398 -0.7410  0.2600  1.1906
   23MOL   H255 6899   2.753   2.999   3.397  0.4361  0.4587 -1.7587
   23MOL   H256 6900   2.598   2.914   3.392  1.5097 -0.4503 -1.7387
   23MOL   C257 6901   2.662   3.021   2.908 -0.5486  0.2001  0.0431
   23MOL   C258 6902   2.802   2.951   2.905 -0.6049  0.0219  0.3016
   23MOL   C259 6903   2.799   2.851   2.780 -0.5604  0.1737 -0.8577
   23MOL   C260 6904   2.908   3.060   2.862  0.8465 -0.5681  0.0952
   23MOL   O261 6905   3.001   3.094   2.940  0.3704 -0.5475  0.0045
   23MOL   O262 6906   2.880   3.108   2.739 -0.3081 -0.0514  0.4592
   23MOL   C263 6907   2.977   3.193   2.676  0.0650  0.0034  0.1946
   23MOL   H264 6908   2.652   3.061   2.807  0.9626 -0.7912 -0.5175
   23MOL   H265 6909   2.594   2.936   2.911  0.3624 -0.5438 -0.1284
   23MOL   H266 6910   2.893   2.799   2.761  0.8083  2.8010 -1.4541
   23MOL   H267 6911   2.740   2.762   2.806 -0.0781  0.3753  1.0505
   23MOL   H268 6912   2.769   2.903   2.690 -0.1469 -1.8679 -2.2034
   23MOL   H269 6913   3.012   3.276   2.737 -0.8182  0.6457 -0.1603
   23MOL   H270 6914   2.939   3.236   2.583 -0.6905  0.2689  0.6140
   23MOL   H271 6915   3.064   3.133   2.652  2.0987  2.1120  2.0005
   23MOL   C272 6916   2.845   2.883   3.046 -0.2564  0.2388  1.0917
   23MOL   C273 6917   2.953   2.769   3.065 -0.1817 -0.1786  0.0140
   23MOL   C274 6918   2.952   2.735   3.218  0.2290  0.0760  0.0330
   23MOL   C275 6919   2.922   2.634   2.991 -0.5347 -0.3226 -0.3869
   23MOL   O276 6920   2.997   2.587   2.903  0.2307 -0.2746  0.8663
   23MOL   O277 6921   2.803   2.575   3.027 -0.3954  0.3651  0.0127
   23MOL   C278 6922   2.767   2.446   2.972  0.0094  0.1712 -0.4544
   23MOL   H279 6923   2.760   2.829   3.088 -0.2936 -0.0878  0.6015
   23MOL   H280 6924   2.877   2.968   3.107 -1.5554  1.3388  0.2884
   23MOL   H281 6925   2.983   2.817   3.282  1.3162 -1.5826  1.6933
   23MOL   H282 6926   2.852   2.704   3.248  0.8137  0.5444  2.5650
   23MOL   H283 6927   3.019   2.653   3.244 -0.0630  0.1572  1.0644
   23MOL   H284 6928   2.735   2.464   2.869  2.4744 -1.4796 -1.5795
   23MOL   H285 6929   2.692   2.402   3.037 -0.6635 -0.1377 -1.4275
   23MOL   H286 6930   2.849   2.373   2.972 -0.7448 -0.7022  1.0033
   23MOL   C287 6931   3.098   2.825   3.029  0.5122  0.3489  0.0920
   23MOL   C288 6932   3.221   2.744   3.087  0.6345 -0.1562  0.8301
   23MOL   C289 6933   3.341   2.756   2.985 -0.3460  0.1891  0.3488
   23MOL   C290 6934   3.259   2.788   3.229  0.0279  0.0736 -0.3610
   23MOL   O291 6935   3.276   2.708   3.324 -0.3187  0.1551 -0.3061
   23MOL   O292 6936   3.265   2.918   3.249  0.7841 -0.3020  0.0283
   23MOL   C293 6937   3.271   2.970   3.379 -0.4648 -0.0035 -0.5234
   23MOL   H294 6938   3.106   2.929   3.059 -0.0589  0.9291 -1.7501
   23MOL   H295 6939   3.111   2.834   2.921  0.2806 -0.4480 -0.0105
   23MOL   H296 6940   3.432   2.708   3.024  0.0418 -0.7730 -1.6928
   23MOL   H297 6941   3.323   2.699   2.894 -2.0209 -0.9464  1.3647
   23MOL   H298 6942   3.359   2.862   2.971  2.2864 -0.4907 -2.0000
   23MOL   H299 6943   3.197   2.919   3.442  0.8882 -0.8495  0.4056
   23MOL   H300 6944   3.238   3.074   3.387  2.3475  0.8524  0.3407
   23MOL   H301 6945   3.374   2.951   3.408 -0.6950 -0.9668 -0.3108
   23MOL   H302 6946   3.193   2.640   3.103  0.7991 -0.2037  0.8030
   24MOL     C1 6947   4.976   6.046   5.992 -0.1986 -0.3981 -0.6374
   24MOL     C2 6948   5.084   6.118   6.081  0.2793 -0.7054 -1.2036
   24MOL     C3 6949   5.208   6.119   5.986 -0.3663 -0.0015 -0.1322
   24MOL     C4 6950   5.053   6.266   6.095  0.1030  0.5230  0.5257
   24MOL     O5 6951   4.957   6.312   6.044  0.1350 -0.1975  0.1448
   24MOL     O6 6952   5.138   6.331   6.174  0.1449  0.3694  0.8821
   24MOL     C7 6953   5.097   6.440   6.251  0.9868 -0.0102 -0.1870
   24MOL     H8 6954   4.963   6.096   5.896 -1.6459 -1.0348 -0.7803
   24MOL     H9 6955   5.014   5.948   5.962  1.8538  1.0122 -2.7822
   24MOL    H10 6956   5.236   6.020   5.952  0.3720  0.3159 -0.4592
   24MOL    H11 6957   5.203   6.180   5.896 -1.2371 -0.2116 -0.2265
   24MOL    H12 6958   5.293   6.159   6.042  0.7115 -1.9462 -0.3254
   24MOL    H13 6959   5.028   6.413   6.331 -1.1366  5.4926  0.0749
   24MOL    H14 6960   5.035   6.507   6.192  1.6935  0.1319 -0.7820
   24MOL    H15 6961   5.178   6.508   6.276  0.1908  1.2034 -0.8814
   24MOL    H16 6962   4.886   6.016   6.046 -0.3207 -1.0870 -1.2182
   24MOL    C17 6963   5.132   6.037   6.210  0.6302  0.2992 -0.7395
   24MOL    C18 6964   5.041   6.004   6.335 -0.0245 -0.2228 -0.7079
   24MOL    C19 6965   4.994   6.148   6.392  0.3568 -0.3475  0.4573
   24MOL    C20 6966   4.914   5.932   6.287  0.2358  0.1339 -0.0486
   24MOL    O21 6967   4.801   5.983   6.304 -0.0455 -0.5136  0.5647
   24MOL    O22 6968   4.942   5.810   6.221 -0.1455 -0.3472 -0.5339
   24MOL    C23 6969   4.837   5.735   6.161  0.3969  0.9541  0.8048
   24MOL    H24 6970   5.218   6.087   6.254 -0.2814  1.6297 -0.4161
   24MOL    H25 6971   5.167   5.942   6.169 -2.7991 -0.7395 -1.4604
   24MOL    H26 6972   4.934   6.140   6.483 -1.4468 -1.2106 -0.7624
   24MOL    H27 6973   5.070   6.224   6.410 -0.0557  0.4141 -0.9159
   24MOL    H28 6974   4.918   6.195   6.329  1.1789 -0.0316 -0.3131
   24MOL    H29 6975   4.791   5.813   6.100 -2.3431  0.3793  2.0861
   24MOL    H30 6976   4.750   5.708   6.220  0.0296 -1.1393 -0.6663
   24MOL    H31 6977   4.885   5.652   6.109  0.0570  1.3167 -0.1092
   24MOL    C32 6978   5.114   5.917   6.449  0.9190  0.2199 -0.7542
   24MOL    C33 6979   5.055   5.906   6.597  0.4315 -0.0533 -0.4010
   24MOL    C34 6980   5.084   6.037   6.673 -0.5424  0.2164 -0.3893
   24MOL    C35 6981   4.904   5.868   6.600  0.2407 -0.0834 -0.4676
   24MOL    O36 6982   4.823   5.936   6.660  0.6732 -0.2717 -0.3112
   24MOL    O37 6983   4.879   5.754   6.541 -0.2247  0.2273  0.0579
   24MOL    C38 6984   4.741   5.714   6.527 -0.1470  0.8226 -0.8092
   24MOL    H39 6985   5.212   5.964   6.455  0.0013  2.0940  0.2645
   24MOL    H40 6986   5.124   5.817   6.409 -0.3209 -0.6546  1.0467
   24MOL    H41 6987   5.185   6.074   6.655 -0.4712 -0.6256 -1.8639
   24MOL    H42 6988   5.015   6.121   6.668 -0.2665  0.4779  0.1429
   24MOL    H43 6989   5.082   6.021   6.781 -0.2654 -0.7275 -0.5241
   24MOL    H44 6990   4.695   5.693   6.624  0.9871 -0.0139 -0.4495
   24MOL    H45 6991   4.738   5.634   6.453 -0.1926  0.7571 -0.7370
   24MOL    H46 6992   4.676   5.787   6.479  0.5542  1.3166 -1.0062
   24MOL    C47 6993   5.136   5.787   6.667  0.4419 -0.4239  0.1101
   24MOL    C48 6994   5.285   5.784   6.712 -0.3670 -0.2189 -0.2726
   24MOL    C49 6995   5.378   5.866   6.614  0.0535 -0.4669 -0.2679
   24MOL    C50 6996   5.295   5.842   6.854  0.1007  0.1372 -0.3565
   24MOL    O51 6997   5.198   5.877   6.918 -0.3015  0.5711 -0.3637
   24MOL    O52 6998   5.420   5.852   6.892  0.6651 -0.5137 -0.4222
   24MOL    C53 6999   5.452   5.896   7.024  0.2653 -0.7651  0.2130
   24MOL    H54 7000   5.142   5.707   6.593 -3.4402 -0.6626 -0.0511
   24MOL    H55 7001   5.073   5.751   6.748  0.8628 -0.3386  0.4785
   24MOL    H56 7002   5.355   5.972   6.600  0.5300 -0.3138  0.0936
   24MOL    H57 7003   5.474   5.866   6.666  0.2158  0.9830 -0.5460
   24MOL    H58 7004   5.391   5.811   6.521  0.8989 -0.8582  0.0809
   24MOL    H59 7005   5.489   5.999   7.024 -1.3600 -0.1680 -0.6624
   24MOL    H60 7006   5.537   5.856   7.081 -0.1371 -1.3521  0.4037
   24MOL    H61 7007   5.367   5.890   7.091 -0.9191  0.4883 -1.1412
   24MOL    C62 7008   5.347   5.644   6.708  0.4150  0.5258  0.0023
   24MOL    C63 7009   5.312   5.523   6.803 -0.6828 -0.0940  1.0123
   24MOL    C64 7010   5.383   5.524   6.942 -0.4809 -0.1864 -0.0109
   24MOL    C65 7011   5.155   5.518   6.826 -0.2766 -0.7120 -0.1833
   24MOL    O66 7012   5.070   5.503   6.740  0.2406  0.2688  0.1227
   24MOL    O67 7013   5.120   5.558   6.953  0.0748 -0.6951 -0.1857
   24MOL    C68 7014   4.987   5.582   6.993 -0.1333 -0.2223  0.0147
   24MOL    H69 7015   5.455   5.661   6.717  0.5207  0.1354 -0.4684
   24MOL    H70 7016   5.340   5.600   6.608  1.6498 -1.6721  0.8443
   24MOL    H71 7017   5.345   5.441   7.003  0.0144 -0.7907 -0.5123
   24MOL    H72 7018   5.490   5.508   6.930 -0.7184 -1.6825 -0.3278
   24MOL    H73 7019   5.366   5.615   6.999 -0.8894  0.4704 -1.1721
   24MOL    H74 7020   4.916   5.605   6.913 -1.3518 -1.7821  0.6340
   24MOL    H75 7021   4.988   5.657   7.071  0.0053  0.0350 -0.2334
   24MOL    H76 7022   4.971   5.485   7.040  4.9544  0.9463  4.6566
   24MOL    C77 7023   5.365   5.393   6.731  0.1934 -0.1837  0.4799
   24MOL    C78 7024   5.382   5.248   6.799 -0.6226 -0.1820 -0.3437
   24MOL    C79 7025   5.414   5.148   6.687  0.3771  0.0568  0.1447
   24MOL    C80 7026   5.508   5.243   6.890 -0.0515 -0.6572  0.4872
   24MOL    O81 7027   5.497   5.209   7.006 -0.6326 -0.2173 -0.7271
   24MOL    O82 7028   5.625   5.286   6.837 -0.0391  0.0850 -0.2298
   24MOL    C83 7029   5.739   5.302   6.923  0.4722  0.2940  0.5704
   24MOL    H84 7030   5.461   5.422   6.689  0.5949 -1.9312  0.1720
   24MOL    H85 7031   5.313   5.384   6.636 -0.6212 -1.4666  1.0316
   24MOL    H86 7032   5.462   5.060   6.730  2.1540  0.9962  0.1811
   24MOL    H87 7033   5.335   5.117   6.620 -0.9463  0.4231  1.5025
   24MOL    H88 7034   5.489   5.190   6.620  0.3439  0.6492  0.4699
   24MOL    H89 7035   5.734   5.358   7.017  2.0835  0.4163  0.6060
   24MOL    H90 7036   5.816   5.356   6.868  0.7819  1.4254  2.0645
   24MOL    H91 7037   5.787   5.208   6.952  1.3816  0.4379 -0.4101
   24MOL    C92 7038   5.254   5.192   6.876 -0.4104 -0.0021  0.1669
   24MOL    C93 7039   5.148   5.106   6.815 -1.3760  0.7591  1.0511
   24MOL    C94 7040   5.096   5.171   6.681  0.3629 -0.2091  0.3786
   24MOL    C95 7041   5.184   4.957   6.792 -0.0295  0.6136  0.2484
   24MOL    O96 7042   5.289   4.902   6.827  0.6881  0.3708  0.3595
   24MOL    O97 7043   5.077   4.886   6.738  0.6201  0.0462 -0.4166
   24MOL    C98 7044   5.091   4.751   6.688 -0.1747  0.8110 -0.2678
   24MOL    H99 7045   5.206   5.269   6.936  2.9426 -0.7771  4.0412
   24MOL   H100 7046   5.289   5.132   6.960 -0.9532 -0.3117  0.1687
   24MOL   H101 7047   5.162   5.251   6.648 -0.6846  0.9706  1.1326
   24MOL   H102 7048   5.097   5.102   6.596  0.2797  0.3157 -0.0504
   24MOL   H103 7049   4.998   5.216   6.691  1.3963  2.0174  0.7258
   24MOL   H104 7050   5.101   4.755   6.580 -1.6797  1.4577 -0.3960
   24MOL   H105 7051   4.997   4.701   6.712  1.7184 -1.0079  3.9362
   24MOL   H106 7052   5.172   4.702   6.743 -0.3474 -0.5232 -1.1824
   24MOL   C107 7053   5.015   5.112   6.902  0.1576 -0.4871  0.3431
   24MOL   C108 7054   4.989   5.046   7.038 -0.3140  0.4561 -0.5252
   24MOL   C109 7055   4.967   4.894   7.043  0.4560  0.0590  0.0425
   24MOL   C110 7056   5.098   5.080   7.144  0.4170  0.2496 -0.3407
   24MOL   O111 7057   5.149   4.997   7.223  0.0268 -0.4618 -0.5635
   24MOL   O112 7058   5.131   5.208   7.154 -0.4598  0.6184  0.5905
   24MOL   C113 7059   5.218   5.248   7.254 -0.2541  0.1829 -0.5455
   24MOL   H114 7060   4.924   5.084   6.851  1.3538  0.8434 -2.6465
   24MOL   H115 7061   5.001   5.218   6.924  2.3794 -0.0510 -0.2237
   24MOL   H116 7062   4.911   4.863   7.131 -0.5448 -2.3847 -1.3942
   24MOL   H117 7063   4.914   4.848   6.959  1.4150 -0.7341 -0.1416
   24MOL   H118 7064   5.058   4.836   7.058  0.8795  1.0564  1.3969
   24MOL   H119 7065   5.158   5.255   7.344 -0.5299 -0.8520 -0.6370
   24MOL   H120 7066   5.262   5.341   7.219  1.0533  0.0694  0.7466
   24MOL   H121 7067   5.297   5.173   7.267  0.4947  0.8155 -1.3584
   24MOL   C122 7068   4.856   5.101   7.106 -0.0140  0.1530 -0.5754
   24MOL   C123 7069   4.713   5.106   7.042 -0.2464  0.0886  0.3616
   24MOL   C124 7070   4.628   5.168   7.155 -0.0251 -0.2631 -0.7355
   24MOL   C125 7071   4.711   5.183   6.910  0.0445 -0.8252 -0.5343
   24MOL   O126 7072   4.708   5.134   6.795  0.1622  0.1586 -0.5646
   24MOL   O127 7073   4.711   5.316   6.925  0.2720  0.2826 -0.0846
   24MOL   C128 7074   4.692   5.403   6.807 -0.4479  0.0481  0.0503
   24MOL   H129 7075   4.880   5.203   7.136  0.8412 -0.4694  0.9024
   24MOL   H130 7076   4.854   5.050   7.202  0.2590  0.2566 -0.5133
   24MOL   H131 7077   4.675   5.254   7.202 -1.0556  0.1291 -0.3995
   24MOL   H132 7078   4.531   5.205   7.123 -0.3286 -0.0134  0.4373
   24MOL   H133 7079   4.623   5.096   7.237  1.1036 -1.1568 -1.4487
   24MOL   H134 7080   4.705   5.506   6.841 -1.1189  0.9947 -2.4566
   24MOL   H135 7081   4.594   5.396   6.760 -0.1031  0.6308 -0.7596
   24MOL   H136 7082   4.765   5.382   6.729 -0.7803 -1.8635  0.2294
   24MOL   C137 7083   4.652   4.960   7.004 -0.0353  0.3140 -0.5630
   24MOL   C138 7084   4.498   4.936   6.985 -0.5338  0.1134 -0.5638
   24MOL   C139 7085   4.491   4.790   6.934 -0.4629  0.4342 -0.5554
   24MOL   C140 7086   4.423   4.940   7.123 -0.3627  0.6029  0.5274
   24MOL   O141 7087   4.351   5.031   7.153  0.1607  0.6492  0.5473
   24MOL   O142 7088   4.459   4.837   7.200  0.1741 -0.5393 -0.2845
   24MOL   C143 7089   4.373   4.815   7.315 -0.4819 -0.5503 -0.6163
   24MOL   H144 7090   4.694   4.892   7.079  0.5227 -0.3513 -1.4744
   24MOL   H145 7091   4.703   4.926   6.914  2.5098  2.6301 -0.0779
   24MOL   H146 7092   4.555   4.734   7.002 -0.2235  1.6571  0.2424
   24MOL   H147 7093   4.388   4.756   6.945  0.1423 -2.4051 -2.7659
   24MOL   H148 7094   4.519   4.773   6.830  1.7843 -0.1689  0.1364
   24MOL   H149 7095   4.399   4.714   7.345 -1.6676 -0.4125  0.9509
   24MOL   H150 7096   4.264   4.827   7.309 -0.8885 -3.1021  0.9885
   24MOL   H151 7097   4.406   4.874   7.400  2.5764 -2.8676 -0.1230
   24MOL   C152 7098   4.431   5.037   6.873 -0.0438  0.2249 -0.5840
   24MOL   C153 7099   4.287   5.033   6.802  0.1637 -0.5292  0.4751
   24MOL   C154 7100   4.252   4.893   6.744  0.0914 -0.5469  0.2158
   24MOL   C155 7101   4.177   5.065   6.909 -0.0001  0.3482  0.2394
   24MOL   O156 7102   4.090   4.983   6.935  0.3497 -0.0419 -0.0872
   24MOL   O157 7103   4.190   5.189   6.959  0.6307  0.1617  0.3021
   24MOL   C158 7104   4.094   5.240   7.058 -0.2295 -0.3143 -0.0741
   24MOL   H159 7105   4.503   5.014   6.794 -0.6751  0.3781 -1.2052
   24MOL   H160 7106   4.460   5.138   6.903 -1.6790  0.0219  1.7747
   24MOL   H161 7107   4.336   4.859   6.684 -0.0755  1.5921 -1.2827
   24MOL   H162 7108   4.234   4.815   6.818  0.3340  0.1627  1.0307
   24MOL   H163 7109   4.156   4.893   6.692  0.0127 -0.1658  0.3543
   24MOL   H164 7110   3.992   5.238   7.019 -0.2100 -0.1581 -0.1332
   24MOL   H165 7111   4.115   5.342   7.091 -0.5425  0.5052 -2.3718
   24MOL   H166 7112   4.105   5.188   7.154 -2.0883  2.1171  1.5240
   24MOL   C167 7113   4.272   5.145   6.688  0.3046 -1.0729  0.1283
   24MOL   C168 7114   4.331   5.142   6.542 -0.4399 -0.3501  0.2675
   24MOL   C169 7115   4.485   5.107   6.554 -0.2127  0.3049 -0.0794
   24MOL   C170 7116   4.258   5.036   6.462 -0.5837 -0.7729 -0.4743
   24MOL   O171 7117   4.316   4.939   6.421  0.1042 -0.5948 -0.1403
   24MOL   O172 7118   4.130   5.060   6.437  0.2007 -0.4272  0.1460
   24MOL   C173 7119   4.052   4.980   6.354 -0.6944 -0.1583  0.8354
   24MOL   H174 7120   4.321   5.235   6.726  1.7393 -1.8710  0.2008
   24MOL   H175 7121   4.170   5.182   6.676  0.6205 -0.0510  0.4918
   24MOL   H176 7122   4.546   5.179   6.609 -1.0901  0.8874  0.1459
   24MOL   H177 7123   4.499   5.011   6.604  0.3858  0.6019  0.3267
   24MOL   H178 7124   4.539   5.091   6.461  0.1400 -0.0844  0.1903
   24MOL   H179 7125   4.064   5.021   6.253  0.9625 -0.4606  0.8974
   24MOL   H180 7126   3.946   4.988   6.379 -0.8441  0.4744  0.0277
   24MOL   H181 7127   4.075   4.875   6.369  0.4342 -0.0923 -0.3101
   24MOL   C182 7128   4.327   5.272   6.460 -0.6296 -0.1115 -0.9310
   24MOL   C183 7129   4.233   5.393   6.472  0.1955 -0.0817  0.3005
   24MOL   C184 7130   4.079   5.349   6.449 -0.2988  0.1474 -0.5557
   24MOL   C185 7131   4.259   5.458   6.609  0.1194 -0.1923 -0.2918
   24MOL   O186 7132   4.372   5.475   6.655  0.3500 -0.2846  0.4605
   24MOL   O187 7133   4.158   5.499   6.668 -0.1567  0.5320  0.2345
   24MOL   C188 7134   4.144   5.552   6.794 -0.0774  0.3445  0.5124
   24MOL   H189 7135   4.333   5.246   6.355  0.1710 -1.3720 -0.5742
   24MOL   H190 7136   4.429   5.306   6.478 -0.7967 -0.2986  0.4979
   24MOL   H191 7137   4.043   5.275   6.520  0.8274  0.9026  0.8319
   24MOL   H192 7138   4.017   5.439   6.446  1.1855  1.2174  0.2133
   24MOL   H193 7139   4.076   5.295   6.354 -3.9055 -0.5828 -0.0899
   24MOL   H194 7140   4.135   5.480   6.874  0.4074  2.9245  2.9795
   24MOL   H195 7141   4.051   5.609   6.786  0.5393  1.3049 -0.0139
   24MOL   H196 7142   4.232   5.617   6.802  1.1746 -1.3244  0.4708
   24MOL   C197 7143   4.290   5.497   6.372 -0.2768  0.7156 -0.0217
   24MOL   C198 7144   4.235   5.641   6.340 -0.0956 -0.0867  0.6109
   24MOL   C199 7145   4.360   5.712   6.282 -0.0510  0.4708  0.2966
   24MOL   C200 7146   4.128   5.633   6.225 -0.1829  0.0058 -0.2185
   24MOL   O201 7147   4.143   5.696   6.122  0.4406 -0.6822  0.2543
   24MOL   O202 7148   4.040   5.542   6.246  0.2800  0.3657  0.1403
   24MOL   C203 7149   3.948   5.515   6.141  0.0289  0.3510  0.1684
   24MOL   H204 7150   4.291   5.460   6.269 -1.6988 -1.2943  0.6591
   24MOL   H205 7151   4.395   5.514   6.395 -0.0322 -2.0324  1.0543
   24MOL   H206 7152   4.339   5.801   6.223 -0.8141 -1.1275 -1.8783
   24MOL   H207 7153   4.430   5.754   6.355  1.6143  0.4543 -1.2506
   24MOL   H208 7154   4.421   5.646   6.221 -0.3646 -0.3441  0.8657
   24MOL   H209 7155   3.856   5.565   6.172 -0.5445 -0.3001 -0.4658
   24MOL   H210 7156   3.932   5.408   6.128  2.1045  0.1425 -0.9256
   24MOL   H211 7157   3.967   5.557   6.043 -1.3534 -0.9356 -0.6763
   24MOL   C212 7158   4.184   5.720   6.465 -0.0288 -0.2401  0.1766
   24MOL   C213 7159   4.120   5.869   6.467 -0.2603  0.3565  0.1133
   24MOL   C214 7160   4.202   5.972   6.379  0.3716 -0.2534  0.0037
   24MOL   C215 7161   3.974   5.866   6.413  0.1838  0.3147 -0.0232
   24MOL   O216 7162   3.940   5.945   6.321 -0.2029 -0.3644 -0.0060
   24MOL   O217 7163   3.893   5.780   6.467  0.3657  0.0412  0.3793
   24MOL   C218 7164   3.762   5.767   6.421  0.2324  0.1736 -0.3539
   24MOL   H219 7165   4.266   5.716   6.537 -1.9233  3.3353  2.6895
   24MOL   H220 7166   4.100   5.661   6.503 -0.5833 -0.2213 -1.0126
   24MOL   H221 7167   4.181   6.074   6.412 -0.1709  0.2625 -1.8524
   24MOL   H222 7168   4.307   5.974   6.407  0.0959 -0.6420  1.1012
   24MOL   H223 7169   4.185   5.955   6.272  0.2922 -1.5066  0.2096
   24MOL   H224 7170   3.704   5.860   6.427  1.3356  1.0757 -3.0670
   24MOL   H225 7171   3.710   5.696   6.485  3.4137 -0.9842  1.0501
   24MOL   H226 7172   3.748   5.734   6.318  1.0572  1.1370 -0.7809
   24MOL   C227 7173   4.132   5.907   6.622  1.0430 -0.2357  0.7089
   24MOL   C228 7174   4.032   6.005   6.709  0.1981 -0.1448  0.1998
   24MOL   C229 7175   3.970   6.118   6.623 -0.4927 -0.3534 -0.1432
   24MOL   C230 7176   3.914   5.934   6.777 -0.7024  0.2881 -0.2364
   24MOL   O231 7177   3.908   5.810   6.785  0.4041  0.2425  0.6351
   24MOL   O232 7178   3.837   6.019   6.847 -0.2375  0.3469 -0.8328
   24MOL   C233 7179   3.740   5.961   6.932 -0.0061 -0.1580  0.4576
   24MOL   H234 7180   4.224   5.964   6.637  1.4588 -1.4032  2.8298
   24MOL   H235 7181   4.135   5.809   6.669  0.2334  0.3297  1.9586
   24MOL   H236 7182   3.885   6.087   6.561  0.6035  1.2284 -2.5061
   24MOL   H237 7183   3.923   6.203   6.672  1.1028  0.8390 -0.6363
   24MOL   H238 7184   4.043   6.168   6.559 -0.5846  0.1731  0.1610
   24MOL   H239 7185   3.783   5.866   6.963  0.2380 -1.4704 -3.6374
   24MOL   H240 7186   3.643   5.941   6.886  0.9744 -0.9498 -1.2945
   24MOL   H241 7187   3.706   6.031   7.008 -0.1297  1.5339 -1.1295
   24MOL   C242 7188   4.124   6.096   6.811  0.7052  0.6514 -0.2635
   24MOL   C243 7189   4.201   6.034   6.935 -0.1777 -0.3281  0.3680
   24MOL   C244 7190   4.098   5.978   7.035  0.1251 -0.0274  0.0791
   24MOL   C245 7191   4.293   5.917   6.886 -0.2950  0.6557  0.0473
   24MOL   O246 7192   4.278   5.804   6.930 -0.7378 -1.3978 -0.5415
   24MOL   O247 7193   4.392   5.960   6.795  0.1829  0.6191  0.2432
   24MOL   C248 7194   4.482   5.864   6.736 -0.2713  0.3047  0.2318
   24MOL   H249 7195   4.057   6.174   6.849  0.4958 -0.6915  2.2314
   24MOL   H250 7196   4.196   6.143   6.744  2.4202 -1.9209 -0.2865
   24MOL   H251 7197   4.055   5.885   7.000  1.8523 -1.0261  0.5707
   24MOL   H252 7198   4.136   5.950   7.133  1.5033  0.3883 -0.3175
   24MOL   H253 7199   4.018   6.051   7.048  0.3333  0.2733 -0.3129
   24MOL   H254 7200   4.419   5.782   6.700  1.7616 -2.0468  1.8967
   24MOL   H255 7201   4.555   5.827   6.808  0.9139 -0.7122 -1.4597
   24MOL   H256 7202   4.523   5.913   6.648 -3.0154  0.2880 -1.1283
   24MOL   C257 7203   4.295   6.135   7.015 -0.0207 -0.7033 -0.2151
   24MOL   C258 7204   4.248   6.240   7.121 -0.2498 -0.3064 -1.0747
   24MOL   C259 7205   4.127   6.311   7.061 -0.5338 -0.4480 -0.0743
   24MOL   C260 7206   4.226   6.173   7.266 -0.3389  0.6750  0.6538
   24MOL   O261 7207   4.271   6.062   7.295 -0.3249 -0.5507 -0.1356
   24MOL   O262 7208   4.158   6.253   7.354  0.6850 -0.7389  0.4780
   24MOL   C263 7209   4.130   6.197   7.487  0.7487 -0.1843 -0.0887
   24MOL   H264 7210   4.360   6.183   6.941 -0.3869  0.1940  0.0322
   24MOL   H265 7211   4.363   6.066   7.065 -0.6933 -0.7734  0.6065
   24MOL   H266 7212   4.126   6.340   6.956  1.9500 -0.2410 -0.0939
   24MOL   H267 7213   4.038   6.251   7.072 -1.6979  1.6944  3.0454
   24MOL   H268 7214   4.091   6.388   7.129 -0.8630 -1.7709  1.2540
   24MOL   H269 7215   4.071   6.261   7.552  0.3357 -0.7049  0.0515
   24MOL   H270 7216   4.221   6.181   7.545  1.4438 -0.7537 -1.3129
   24MOL   H271 7217   4.076   6.103   7.490 -0.9751  0.7842  0.1955
   24MOL   C272 7218   4.359   6.357   7.135 -0.0355  0.3557  0.2802
   24MOL   C273 7219   4.500   6.350   7.201  0.3528  0.1873  0.7723
   24MOL   C274 7220   4.565   6.480   7.152  0.2576  0.3805  0.2393
   24MOL   C275 7221   4.478   6.346   7.353  0.3020 -0.1223 -0.6928
   24MOL   O276 7222   4.517   6.246   7.416 -0.1598 -0.4849  0.0047
   24MOL   O277 7223   4.421   6.451   7.406 -0.3402  0.0444 -0.1647
   24MOL   C278 7224   4.415   6.452   7.549 -0.6605  0.3666 -0.3506
   24MOL   H279 7225   4.317   6.448   7.178 -0.3675  1.2706 -1.9287
   24MOL   H280 7226   4.372   6.388   7.031 -1.4628 -0.2394 -0.0738
   24MOL   H281 7227   4.569   6.472   7.043  1.8142  1.5609  0.1965
   24MOL   H282 7228   4.508   6.567   7.184  0.1402  0.5083 -0.2982
   24MOL   H283 7229   4.671   6.493   7.174  0.3773 -2.0576  1.1767
   24MOL   H284 7230   4.368   6.360   7.582 -1.4112  0.7105 -0.4485
   24MOL   H285 7231   4.330   6.514   7.576 -0.4003  0.4756  0.2086
   24MOL   H286 7232   4.506   6.481   7.602 -0.6929 -0.7218  0.3131
   24MOL   C287 7233   4.588   6.233   7.138 -0.1219  1.1105  0.1419
   24MOL   C288 7234   4.745   6.243   7.122  0.2414 -0.4944 -0.2779
   24MOL   C289 7235   4.806   6.233   7.267  0.4366 -0.1251  0.5277
   24MOL   C290 7236   4.796   6.134   7.033 -1.0085 -0.3768  0.1414
   24MOL   O291 7237   4.848   6.167   6.922  0.1652  0.5541 -0.6844
   24MOL   O292 7238   4.772   6.007   7.079  0.2987  0.6218  0.0874
   24MOL   C293 7239   4.802   5.884   6.997  0.6859 -0.9098 -0.0852
   24MOL   H294 7240   4.564   6.224   7.032 -0.8140  3.1442  0.1078
   24MOL   H295 7241   4.554   6.139   7.181 -2.5682  1.5543 -0.7908
   24MOL   H296 7242   4.912   6.255   7.269  0.6662 -0.8068 -1.9415
   24MOL   H297 7243   4.758   6.299   7.339  2.4927 -1.0673  2.8461
   24MOL   H298 7244   4.783   6.136   7.312 -1.9197 -0.7450 -1.8535
   24MOL   H299 7245   4.787   5.784   7.036  0.6940 -0.4796  1.0167
   24MOL   H300 7246   4.909   5.893   6.978  0.7242 -3.6997 -1.5029
   24MOL   H301 7247   4.745   5.876   6.904 -1.3177  1.3132  0.8919
   24MOL   H302 7248   4.773   6.342   7.085 -2.2025  0.3941  0.1606
   25MOL     C1 7249   4.406   3.583   1.810  1.3661 -0.3768  0.0235
   25MOL     C2 7250   4.372   3.541   1.659  0.2838  0.2201 -0.3373
   25MOL     C3 7251   4.300   3.404   1.668  0.4699 -0.1701  0.1029
   25MOL     C4 7252   4.276   3.653   1.604  0.0886  0.3395  0.6807
   25MOL     O5 7253   4.169   3.623   1.560 -0.0065  0.5109 -0.5491
   25MOL     O6 7254   4.329   3.782   1.608  0.2858 -0.3929  0.4709
   25MOL     C7 7255   4.263   3.888   1.544  0.4010 -0.1850  0.4228
   25MOL     H8 7256   4.318   3.619   1.864  2.9277 -0.6540  2.8420
   25MOL     H9 7257   4.452   3.511   1.877 -1.4052 -0.0629  2.3508
   25MOL    H10 7258   4.260   3.369   1.572  0.7484 -1.4350  0.4415
   25MOL    H11 7259   4.371   3.323   1.682  0.6371 -0.3549 -1.6512
   25MOL    H12 7260   4.225   3.396   1.746  2.0164 -1.2068  1.4984
   25MOL    H13 7261   4.165   3.921   1.579 -0.3204  1.0909 -2.6786
   25MOL    H14 7262   4.252   3.854   1.442 -1.5055 -0.7527  0.7951
   25MOL    H15 7263   4.330   3.973   1.558 -0.2936  0.7900 -1.9383
   25MOL    H16 7264   4.477   3.666   1.806  1.7400 -0.7426 -1.3809
   25MOL    C17 7265   4.505   3.530   1.571 -0.2192  0.3869  0.6990
   25MOL    C18 7266   4.517   3.495   1.417 -0.4518 -0.1799  0.3111
   25MOL    C19 7267   4.423   3.591   1.334  0.1632  0.0562  0.2052
   25MOL    C20 7268   4.663   3.521   1.382 -0.7620  0.2003 -0.3957
   25MOL    O21 7269   4.700   3.611   1.305  0.5198  0.0871 -0.6706
   25MOL    O22 7270   4.737   3.440   1.462  0.0259 -0.2810  0.1221
   25MOL    C23 7271   4.876   3.424   1.441 -0.0220  0.2684  0.4530
   25MOL    H24 7272   4.557   3.456   1.632 -0.3608  0.2106  0.6055
   25MOL    H25 7273   4.566   3.618   1.591 -0.1179  0.3954  0.3574
   25MOL    H26 7274   4.457   3.605   1.231 -0.0568  0.7466  0.2227
   25MOL    H27 7275   4.319   3.559   1.331  0.0549  0.5385 -3.6914
   25MOL    H28 7276   4.433   3.696   1.364 -0.5984  0.2110 -0.0609
   25MOL    H29 7277   4.918   3.364   1.521 -0.4110 -1.9328 -0.9676
   25MOL    H30 7278   4.923   3.521   1.458 -0.6401  0.8668 -1.1852
   25MOL    H31 7279   4.909   3.381   1.347  2.2343  1.9878  0.4309
   25MOL    C32 7280   4.476   3.343   1.394 -0.7508  0.0148 -0.4592
   25MOL    C33 7281   4.523   3.248   1.274 -0.2153  0.4112 -0.5861
   25MOL    C34 7282   4.519   3.333   1.145 -0.5179 -0.1381  0.2507
   25MOL    C35 7283   4.668   3.200   1.300 -0.2171 -0.7792  0.6815
   25MOL    O36 7284   4.759   3.228   1.218  0.1915 -0.0425 -0.5729
   25MOL    O37 7285   4.678   3.131   1.418 -0.2794 -0.1727 -0.6316
   25MOL    C38 7286   4.793   3.054   1.440 -0.0841  0.0487  0.6981
   25MOL    H39 7287   4.367   3.343   1.390 -0.7578  0.1408 -0.2279
   25MOL    H40 7288   4.497   3.300   1.491  1.5734  0.6990 -0.6402
   25MOL    H41 7289   4.582   3.420   1.164 -1.3107  0.4813  0.0906
   25MOL    H42 7290   4.543   3.277   1.054 -2.5652 -2.0262  0.8306
   25MOL    H43 7291   4.416   3.364   1.127 -0.2424  0.5081 -0.2463
   25MOL    H44 7292   4.767   2.958   1.395 -2.1260  2.1672 -2.8810
   25MOL    H45 7293   4.811   3.047   1.547  1.0706 -0.1727  0.4922
   25MOL    H46 7294   4.878   3.106   1.397 -0.7264  0.7453  0.2632
   25MOL    C47 7295   4.419   3.129   1.270 -0.5708 -1.0093 -0.0494
   25MOL    C48 7296   4.412   3.021   1.146 -0.3028  0.1458  0.1786
   25MOL    C49 7297   4.557   2.988   1.093 -0.6226 -0.5355  0.1983
   25MOL    C50 7298   4.349   2.896   1.224 -0.3208  0.4477  0.1547
   25MOL    O51 7299   4.414   2.796   1.241  0.4145 -0.6039 -0.2704
   25MOL    O52 7300   4.225   2.923   1.268 -0.7809  0.1016 -0.1015
   25MOL    C53 7301   4.151   2.821   1.332 -0.7289 -0.5310  0.2439
   25MOL    H54 7302   4.320   3.174   1.266  0.1798  0.5095 -3.2728
   25MOL    H55 7303   4.425   3.076   1.365  0.7824  0.1108  0.5088
   25MOL    H56 7304   4.617   3.069   1.050 -1.3205  0.3090  0.7840
   25MOL    H57 7305   4.610   2.951   1.180  0.7991  2.8680  0.8568
   25MOL    H58 7306   4.563   2.902   1.027  0.9632 -0.7200  0.5693
   25MOL    H59 7307   4.176   2.813   1.438  1.1955  2.1619  0.0437
   25MOL    H60 7308   4.164   2.723   1.287  0.7309 -0.0649 -0.3852
   25MOL    H61 7309   4.047   2.847   1.317 -0.6507 -0.4481 -0.1564
   25MOL    C62 7310   4.314   3.074   1.036 -0.9214 -0.4227 -0.6086
   25MOL    C63 7311   4.306   3.006   0.890 -0.5740  0.1693  0.3749
   25MOL    C64 7312   4.309   2.847   0.898  0.5667 -0.3637 -0.0539
   25MOL    C65 7313   4.162   3.039   0.837  0.3739 -0.5426 -0.3956
   25MOL    O66 7314   4.062   2.963   0.838  0.1304 -0.2233  0.3721
   25MOL    O67 7315   4.153   3.170   0.812 -0.4861 -0.1929 -0.5274
   25MOL    C68 7316   4.030   3.229   0.780 -1.0607 -0.3661  0.0686
   25MOL    H69 7317   4.337   3.179   1.015  1.2899 -1.2740 -2.6147
   25MOL    H70 7318   4.211   3.070   1.072 -0.8060  0.0203 -0.2200
   25MOL    H71 7319   4.403   2.796   0.920  0.3049 -0.4282  0.9373
   25MOL    H72 7320   4.235   2.813   0.970  0.5789 -2.6609 -1.0497
   25MOL    H73 7321   4.274   2.796   0.808  2.4061 -0.5011 -0.7356
   25MOL    H74 7322   3.966   3.154   0.735 -0.0587 -0.1965 -1.6693
   25MOL    H75 7323   4.023   3.322   0.724  3.7317 -0.4813 -0.8710
   25MOL    H76 7324   3.980   3.247   0.876 -0.7648 -0.1824  0.1891
   25MOL    C77 7325   4.421   3.070   0.798 -0.3095  0.6401 -0.2711
   25MOL    C78 7326   4.483   3.009   0.669 -0.3654 -0.6216  0.2946
   25MOL    C79 7327   4.598   2.919   0.725  0.3591 -0.9037  0.2670
   25MOL    C80 7328   4.374   2.935   0.584 -0.5299 -0.8651 -0.1041
   25MOL    O81 7329   4.275   2.987   0.532 -0.3081 -0.0974 -0.0149
   25MOL    O82 7330   4.403   2.808   0.575  0.3021 -0.1047 -0.4596
   25MOL    C83 7331   4.330   2.718   0.501 -0.5868  0.3794  0.1672
   25MOL    H84 7332   4.506   3.095   0.862 -1.3507  0.3536  1.2539
   25MOL    H85 7333   4.394   3.173   0.777  0.7570  0.9513 -0.1414
   25MOL    H86 7334   4.640   2.862   0.641 -0.5453 -0.5206 -0.4535
   25MOL    H87 7335   4.678   2.985   0.758  0.6853 -0.8578 -0.5938
   25MOL    H88 7336   4.569   2.847   0.801  0.6142 -0.4106  0.8364
   25MOL    H89 7337   4.352   2.724   0.395  1.2475 -0.2646  0.5054
   25MOL    H90 7338   4.222   2.732   0.510 -0.5656  0.3453  0.4735
   25MOL    H91 7339   4.358   2.617   0.532 -2.5845 -0.4647 -0.6921
   25MOL    C92 7340   4.533   3.135   0.585  0.0770  0.1250 -0.0883
   25MOL    C93 7341   4.624   3.143   0.459 -0.3057 -1.0558  0.1621
   25MOL    C94 7342   4.669   3.292   0.432 -0.2326 -0.5269  0.0141
   25MOL    C95 7343   4.757   3.062   0.480  0.1947  0.7432 -0.7938
   25MOL    O96 7344   4.790   2.954   0.425  0.2481  0.1866  0.2985
   25MOL    O97 7345   4.837   3.117   0.579 -0.4336 -0.3245  0.5978
   25MOL    C98 7346   4.965   3.054   0.598 -0.3650  0.2791  0.3534
   25MOL    H99 7347   4.586   3.204   0.651  0.5936 -0.7054  0.3708
   25MOL   H100 7348   4.444   3.192   0.557  0.1222 -0.2961 -1.0884
   25MOL   H101 7349   4.725   3.291   0.338  1.3464  0.6179  0.9135
   25MOL   H102 7350   4.602   3.378   0.435 -2.2107 -2.0337 -0.7874
   25MOL   H103 7351   4.746   3.325   0.503  0.6367  0.2727 -1.2677
   25MOL   H104 7352   5.022   3.120   0.663 -0.2448  0.7256 -0.2014
   25MOL   H105 7353   5.032   3.053   0.513  1.1891  0.4539  1.5433
   25MOL   H106 7354   4.947   2.958   0.646  1.1116 -0.1963 -0.0313
   25MOL   C107 7355   4.557   3.087   0.325  0.9953 -0.1047 -0.0839
   25MOL   C108 7356   4.454   3.156   0.233  0.2681 -0.6589  0.6923
   25MOL   C109 7357   4.339   3.221   0.312  0.2865 -0.0286  0.0142
   25MOL   C110 7358   4.517   3.272   0.150  0.5394  0.0082  0.6491
   25MOL   O111 7359   4.463   3.386   0.143  0.0236 -0.1365  0.1282
   25MOL   O112 7360   4.629   3.247   0.090  0.2009 -0.0142  0.3489
   25MOL   C113 7361   4.709   3.341   0.029 -0.2490 -1.0531  0.4827
   25MOL   H114 7362   4.504   3.002   0.368  1.7602  0.4979  2.1320
   25MOL   H115 7363   4.641   3.045   0.271 -0.8459 -4.6361  0.3675
   25MOL   H116 7364   4.355   3.294   0.391  1.2033 -1.8125  1.5347
   25MOL   H117 7365   4.261   3.269   0.252 -1.9078  0.3744  3.0739
   25MOL   H118 7366   4.277   3.146   0.360 -0.9439  0.8497 -0.1785
   25MOL   H119 7367   4.785   3.298   7.841  1.2249  2.9593 -0.5797
   25MOL   H120 7368   4.760   3.407   0.100 -1.0989  0.0302  0.1009
   25MOL   H121 7369   4.646   3.408   7.849 -1.0442 -0.2372  2.2406
   25MOL   C122 7370   4.380   3.051   0.135 -0.0595 -0.1788  0.1538
   25MOL   C123 7371   4.458   2.959   0.030 -0.3831  0.2700 -0.3061
   25MOL   C124 7372   4.530   3.046   7.794  0.0713 -0.6201 -0.0826
   25MOL   C125 7373   4.569   2.870   0.091  0.3466 -0.2660 -0.4247
   25MOL   O126 7374   4.674   2.848   0.038  0.4658 -0.3370  0.6243
   25MOL   O127 7375   4.528   2.800   0.198 -0.5479  0.3618 -0.2835
   25MOL   C128 7376   4.621   2.712   0.269  0.2442 -0.2162  0.1236
   25MOL   H129 7377   4.313   3.117   0.079 -2.2145  0.0657  2.8972
   25MOL   H130 7378   4.327   2.986   0.205 -1.4721 -0.9943 -1.6209
   25MOL   H131 7379   4.525   2.993   7.699  2.6792 -0.3393 -0.4216
   25MOL   H132 7380   4.483   3.139   7.763  1.8377  0.0970 -0.7003
   25MOL   H133 7381   4.639   3.057   7.798 -0.0050  0.8330 -1.7839
   25MOL   H134 7382   4.585   2.678   0.366  0.4461 -1.7653 -0.3350
   25MOL   H135 7383   4.720   2.757   0.278  0.7340 -1.1565 -0.4851
   25MOL   H136 7384   4.629   2.625   0.203  1.5390  0.1208 -0.1926
   25MOL   C137 7385   4.360   2.849   7.844 -1.1905 -0.1751  0.8955
   25MOL   C138 7386   4.221   2.883   7.777 -0.2741  0.2437 -0.1067
   25MOL   C139 7387   4.113   2.903   0.009  0.7215 -0.1337  0.4473
   25MOL   C140 7388   4.223   3.013   7.690 -1.0907 -0.0662 -0.4354
   25MOL   O141 7389   4.255   3.009   7.570  0.4972 -0.7824  0.2190
   25MOL   O142 7390   4.172   3.119   7.740 -0.0121  0.3300 -0.2648
   25MOL   C143 7391   4.163   3.239   7.670  0.1122  0.6508  0.2875
   25MOL   H144 7392   4.349   2.756   0.022  1.2232 -2.2711 -2.0064
   25MOL   H145 7393   4.426   2.809   7.768 -0.8592 -0.2169  1.2062
   25MOL   H146 7394   4.142   2.829   0.083 -0.7590 -0.3683  0.8111
   25MOL   H147 7395   4.113   3.004   0.051 -1.0272 -0.6149  1.6327
   25MOL   H148 7396   4.011   2.887   7.850  0.3591  3.1533 -0.1717
   25MOL   H149 7397   4.103   3.316   7.719 -0.5525 -0.5400  1.3740
   25MOL   H150 7398   4.122   3.222   7.570  0.2484  0.9408  0.1815
   25MOL   H151 7399   4.261   3.287   7.673 -0.0931  1.0008  2.3515
   25MOL   C152 7400   4.186   2.757   7.684  0.3483 -0.4243  1.1263
   25MOL   C153 7401   4.109   2.622   7.725 -0.3655 -0.5913 -0.1763
   25MOL   C154 7402   4.096   2.522   7.611 -0.5119  0.3283  0.3030
   25MOL   C155 7403   4.194   2.549   7.838  0.1591  0.1597  0.1362
   25MOL   O156 7404   4.151   2.517   0.066 -0.1637  0.5109 -0.3470
   25MOL   O157 7405   4.319   2.530   7.805  0.0956 -0.1958 -0.1990
   25MOL   C158 7406   4.401   2.463   0.019 -0.1971  0.1787 -0.4527
   25MOL   H159 7407   4.280   2.725   7.639  0.7304  1.7913  0.2950
   25MOL   H160 7408   4.143   2.786   7.588 -0.3321  0.4737  1.6989
   25MOL   H161 7409   4.035   2.433   7.630  0.4724 -0.3249  0.4933
   25MOL   H162 7410   4.049   2.562   7.521  0.3926  0.5842 -0.0591
   25MOL   H163 7411   4.193   2.507   7.562 -0.1340 -0.4055  1.2507
   25MOL   H164 7412   4.386   2.505   0.118  0.1701  0.3976 -0.4913
   25MOL   H165 7413   4.504   2.475   7.865 -0.2474 -1.5976 -1.3407
   25MOL   H166 7414   4.370   2.359   0.024 -0.6341  0.2195 -1.9558
   25MOL   C167 7415   3.963   2.639   7.779 -0.4330  0.0240 -0.4423
   25MOL   C168 7416   3.835   2.688   7.701  0.7911 -0.5621  0.0932
   25MOL   C169 7417   3.777   2.572   7.612 -0.0803  0.3048  0.2914
   25MOL   C170 7418   3.741   2.731   7.819 -0.2978  0.2949  0.2439
   25MOL   O171 7419   3.754   2.838   0.002  0.1539  0.6530 -0.2465
   25MOL   O172 7420   3.641   2.641   7.847  0.6104  0.5858 -0.1510
   25MOL   C173 7421   3.538   2.670   0.063  0.7889 -0.0801  0.2137
   25MOL   H174 7422   3.964   2.688   7.876 -0.4311 -1.0657  0.1029
   25MOL   H175 7423   3.930   2.536   7.793 -1.3600  0.3549 -0.1189
   25MOL   H176 7424   3.767   2.472   7.653  2.0794 -1.3517 -3.0347
   25MOL   H177 7425   3.677   2.592   7.574  0.8206  2.7269 -0.9015
   25MOL   H178 7426   3.831   2.557   7.519 -2.0520 -0.0958 -0.8198
   25MOL   H179 7427   3.452   2.603   0.060  0.1201  0.7902 -0.2926
   25MOL   H180 7428   3.508   2.769   0.029  0.9658 -0.2903 -0.5451
   25MOL   H181 7429   3.576   2.692   0.163 -1.7220  0.9415  0.9904
   25MOL   C182 7430   3.859   2.805   7.609  0.1311  0.0128  0.0180
   25MOL   C183 7431   3.759   2.880   7.511 -0.1562  0.3578 -0.4244
   25MOL   C184 7432   3.780   2.811   7.380  0.1459  0.4019  0.2290
   25MOL   C185 7433   3.611   2.871   7.554 -0.6093 -0.2477  0.6045
   25MOL   O186 7434   3.568   2.955   7.627  0.4571 -0.5530  0.2506
   25MOL   O187 7435   3.534   2.771   7.496  0.0924 -0.1107  0.3671
   25MOL   C188 7436   3.399   2.753   7.538  0.1352 -0.3561  0.2451
   25MOL   H189 7437   3.958   2.790   7.565 -0.3929  0.1641 -1.2329
   25MOL   H190 7438   3.893   2.885   7.675  0.0229  1.5604 -1.7601
   25MOL   H191 7439   3.726   2.850   7.294 -0.0630 -0.8322 -0.2153
   25MOL   H192 7440   3.885   2.806   7.350  0.7311  4.5507  1.3069
   25MOL   H193 7441   3.757   2.705   7.395  2.1537  0.3762  3.5509
   25MOL   H194 7442   3.387   2.646   7.554 -0.1756 -0.5079 -0.9809
   25MOL   H195 7443   3.329   2.788   7.462 -1.2487 -0.1227  1.5933
   25MOL   H196 7444   3.373   2.800   7.633 -1.0584 -1.6908  0.6044
   25MOL   C197 7445   3.807   3.032   7.516  0.2248  0.1369  0.1122
   25MOL   C198 7446   3.758   3.137   7.404 -0.1125 -0.1552 -0.1807
   25MOL   C199 7447   3.765   3.280   7.460 -0.2640  0.3262  0.1891
   25MOL   C200 7448   3.854   3.123   7.278 -0.7669 -0.2742  0.9193
   25MOL   O201 7449   3.852   3.025   7.204 -0.1943  0.2053 -0.3801
   25MOL   O202 7450   3.954   3.219   7.275  0.3352  0.5854  0.7237
   25MOL   C203 7451   4.050   3.211   7.176 -0.0461 -0.2406  1.0377
   25MOL   H204 7452   3.915   3.042   7.509  0.0170  0.8286 -3.2551
   25MOL   H205 7453   3.770   3.074   7.610 -1.6633 -0.9351 -0.1220
   25MOL   H206 7454   3.680   3.293   7.527  1.1239  1.3991  1.7755
   25MOL   H207 7455   3.853   3.287   7.523  1.7632 -1.0790 -2.3730
   25MOL   H208 7456   3.772   3.367   7.395 -2.4518  0.6216  0.2873
   25MOL   H209 7457   3.985   3.192   7.090  0.2760 -0.6584  0.8806
   25MOL   H210 7458   4.134   3.144   7.193  0.7875  0.6874  0.6173
   25MOL   H211 7459   4.091   3.311   7.166  1.6300 -1.0682 -0.7143
   25MOL   C212 7460   3.613   3.118   7.347  0.1151 -0.3320  0.3902
   25MOL   C213 7461   3.550   3.186   7.214  0.6794  0.5026  0.4496
   25MOL   C214 7462   3.578   3.336   7.216 -0.3360 -0.4822  0.4818
   25MOL   C215 7463   3.603   3.123   7.075 -0.1274 -0.7690 -0.0422
   25MOL   O216 7464   3.652   3.195   6.987 -0.1213  0.4543  0.5984
   25MOL   O217 7465   3.598   2.989   7.059  0.2987 -0.1202  0.1117
   25MOL   C218 7466   3.651   2.930   6.945 -0.3854  0.1156 -0.0230
   25MOL   H219 7467   3.549   3.156   7.427  0.6231 -1.1415  1.1939
   25MOL   H220 7468   3.603   3.010   7.340  1.4077 -0.4295  0.0077
   25MOL   H221 7469   3.524   3.386   7.135  3.1118  1.9955 -0.4135
   25MOL   H222 7470   3.542   3.387   7.305 -0.5616 -1.5039  0.9818
   25MOL   H223 7471   3.680   3.366   7.195 -0.6130  0.4927  0.5066
   25MOL   H224 7472   3.732   2.986   6.900 -0.2851  1.2823  1.5668
   25MOL   H225 7473   3.570   2.924   6.872 -0.8043  0.6185  0.3941
   25MOL   H226 7474   3.689   2.832   6.974  2.0825  0.8772 -0.5479
   25MOL   C227 7475   3.393   3.145   7.200 -0.9585 -0.1117  0.7645
   25MOL   C228 7476   3.273   3.193   7.288 -0.2902 -0.5952 -0.1671
   25MOL   C229 7477   3.292   3.176   7.438  0.4277  0.4791 -1.0137
   25MOL   C230 7478   3.239   3.344   7.270 -0.0222  0.4331 -0.1768
   25MOL   O231 7479   3.289   3.412   7.185 -0.0390 -0.2594  0.0370
   25MOL   O232 7480   3.148   3.397   7.356  0.2802  0.0286 -0.0912
   25MOL   C233 7481   3.085   3.517   7.320 -0.2167 -0.9118  0.1254
   25MOL   H234 7482   3.391   3.036   7.206  1.0616 -0.1961  0.0232
   25MOL   H235 7483   3.366   3.157   7.095  0.8438  1.8254  0.4988
   25MOL   H236 7484   3.342   3.080   7.448  0.4476  0.4087 -1.7728
   25MOL   H237 7485   3.351   3.252   7.490  0.0743  0.9102 -1.2426
   25MOL   H238 7486   3.197   3.155   7.487  0.7008  0.7869 -0.3342
   25MOL   H239 7487   2.984   3.495   7.285 -0.3827  1.7632 -1.1250
   25MOL   H240 7488   3.131   3.589   7.254 -0.6930 -1.6147 -0.9869
   25MOL   H241 7489   3.077   3.576   7.412 -2.1688  0.1075 -0.6741
   25MOL   C242 7490   3.149   3.101   7.259 -0.0541  0.1220 -0.5348
   25MOL   C243 7491   3.076   3.085   7.123  0.0430 -0.0207 -0.1106
   25MOL   C244 7492   3.054   3.225   7.055  0.5351  0.1959 -0.1983
   25MOL   C245 7493   3.160   2.997   7.021  0.4082  1.1640 -0.1682
   25MOL   O246 7494   3.194   3.039   6.911  0.0921  0.1724  0.1150
   25MOL   O247 7495   3.191   2.874   7.072 -0.1720  0.0433 -0.4007
   25MOL   C248 7496   3.270   2.787   6.993 -0.1456  0.2129 -0.0019
   25MOL   H249 7497   3.077   3.126   7.338  0.1269 -2.7317  0.5747
   25MOL   H250 7498   3.169   3.002   7.300  2.6672 -0.1340 -2.3706
   25MOL   H251 7499   3.147   3.274   7.028 -0.9608  3.0293 -0.4626
   25MOL   H252 7500   2.995   3.222   6.963  1.6943  0.5225 -0.9636
   25MOL   H253 7501   2.997   3.293   7.118 -0.1162 -0.2664 -0.2816
   25MOL   H254 7502   3.270   2.686   7.034  1.0966 -0.0364 -0.5851
   25MOL   H255 7503   3.377   2.809   6.997 -0.1546 -0.0285  1.8707
   25MOL   H256 7504   3.240   2.779   6.888 -2.5825  1.2166  0.5907
   25MOL   C257 7505   2.945   2.992   7.147 -0.3285  0.1226  0.4827
   25MOL   C258 7506   2.794   3.044   7.163  0.0241 -0.2554 -0.0072
   25MOL   C259 7507   2.783   3.114   7.302 -0.1312 -0.0612 -0.0159
   25MOL   C260 7508   2.762   3.136   7.043 -1.0658  0.0243  0.5088
   25MOL   O261 7509   2.723   3.251   7.063 -0.3608  0.5724 -0.6817
   25MOL   O262 7510   2.771   3.077   6.917  0.3787  0.4359  0.3476
   25MOL   C263 7511   2.729   3.146   6.804  0.7524 -0.5035 -0.0643
   25MOL   H264 7512   2.968   2.929   7.233  0.9060  0.2520  0.2518
   25MOL   H265 7513   2.933   2.916   7.070 -0.6953 -0.0797  0.7376
   25MOL   H266 7514   2.856   3.195   7.311  0.6675 -0.8209  0.5002
   25MOL   H267 7515   2.692   3.170   7.322  0.6316  1.0379  0.4463
   25MOL   H268 7516   2.801   3.045   7.385  1.2382 -2.7854 -2.4647
   25MOL   H269 7517   2.796   3.230   6.785  0.1390 -0.0970 -0.4636
   25MOL   H270 7518   2.627   3.178   6.823  0.9343 -0.3625  0.6804
   25MOL   H271 7519   2.729   3.075   6.721  3.0052  1.0430 -1.4643
   25MOL   C272 7520   2.706   2.916   7.162  0.3761 -0.1181  0.0161
   25MOL   C273 7521   2.542   2.913   7.168  0.6023 -0.2057  0.1316
   25MOL   C274 7522   2.502   2.773   7.218 -0.4848 -0.4147 -0.2637
   25MOL   C275 7523   2.483   3.017   7.270 -0.6160  0.3235 -0.0540
   25MOL   O276 7524   2.463   2.997   7.392  0.0740  0.0362 -0.1086
   25MOL   O277 7525   2.462   3.138   7.211 -0.7197 -0.0055 -0.1183
   25MOL   C278 7526   2.429   3.258   7.289  0.4739 -0.0578  0.5934
   25MOL   H279 7527   2.749   2.852   7.240 -0.9763 -2.1948 -0.9087
   25MOL   H280 7528   2.721   2.863   7.068 -2.9424  1.6805 -1.6112
   25MOL   H281 7529   2.562   2.754   7.307 -2.1322 -2.0608  0.5419
   25MOL   H282 7530   2.397   2.768   7.248  0.0332 -1.2263  1.4583
   25MOL   H283 7531   2.523   2.687   7.155  4.0154  1.5392 -1.5896
   25MOL   H284 7532   2.348   3.313   7.242  1.3861  1.2291  0.4994
   25MOL   H285 7533   2.517   3.320   7.303  1.7079 -1.8021  0.6741
   25MOL   H286 7534   2.394   3.247   7.392  2.3073  0.8382  1.3300
   25MOL   C287 7535   2.476   2.933   7.023 -0.4565  0.3719 -0.1809
   25MOL   C288 7536   2.317   2.954   7.011 -0.1773 -0.0684  0.4139
   25MOL   C289 7537   2.272   3.034   6.883 -0.1730  0.7398  0.2591
   25MOL   C290 7538   2.238   2.828   7.035  0.5843  0.2598 -0.6870
   25MOL   O291 7539   2.269   2.718   6.992  0.2178  0.3433  0.1233
   25MOL   O292 7540   2.136   2.851   7.112  0.0336  0.4834 -0.0062
   25MOL   C293 7541   2.048   2.736   7.140 -0.4161 -0.3777 -0.5428
   25MOL   H294 7542   2.509   2.853   6.957 -2.6546 -1.9040  1.4083
   25MOL   H295 7543   2.519   3.020   6.973  1.5030  0.2182  1.1572
   25MOL   H296 7544   2.295   2.972   6.796  3.5548  0.0865  1.6197
   25MOL   H297 7545   2.163   3.038   6.878 -0.1192  2.0507  0.0209
   25MOL   H298 7546   2.323   3.129   6.866 -1.4905  1.3010 -0.6705
   25MOL   H299 7547   1.990   2.722   7.048 -1.4924 -0.0526  0.0797
   25MOL   H300 7548   1.969   2.743   7.215  0.1713  2.2876 -0.1005
   25MOL   H301 7549   2.101   2.645   7.166  1.1903  0.6558 -0.1014
   25MOL   H302 7550   2.292   3.006   7.104 -0.3153 -0.2308  0.4679
   26MOL     C1 7551   3.944   5.467   0.747 -0.1885  0.0472  0.2876
   26MOL     C2 7552   3.989   5.320   0.766 -0.5952 -0.6960 -0.1781
   26MOL     C3 7553   3.887   5.239   0.684  0.1044 -0.8117  0.1131
   26MOL     C4 7554   4.128   5.310   0.694 -0.0039 -0.6296 -0.6206
   26MOL     O5 7555   4.193   5.412   0.656 -0.1655  0.7013 -1.0495
   26MOL     O6 7556   4.170   5.187   0.672  1.2786  0.3109 -0.2205
   26MOL     C7 7557   4.292   5.157   0.617  0.4237  0.2395 -0.2182
   26MOL     H8 7558   3.989   5.537   0.817  2.0088 -0.2518 -0.8106
   26MOL     H9 7559   3.967   5.508   0.649 -0.9239 -0.0654  0.0616
   26MOL    H10 7560   3.786   5.234   0.724 -0.2157 -0.5530 -0.6473
   26MOL    H11 7561   3.886   5.280   0.583  1.7187 -2.0170 -0.4248
   26MOL    H12 7562   3.923   5.136   0.674 -0.2857 -0.8278 -1.2395
   26MOL    H13 7563   4.370   5.180   0.690 -1.1944  0.9744  1.3103
   26MOL    H14 7564   4.323   5.203   0.523  2.4174 -0.6587 -0.0280
   26MOL    H15 7565   4.303   5.050   0.599  2.1298  0.2676  0.5902
   26MOL    H16 7566   3.836   5.462   0.762 -0.0395  0.7396  1.6569
   26MOL    C17 7567   4.018   5.264   0.915  1.1185 -0.2570 -0.2842
   26MOL    C18 7568   3.902   5.254   1.025 -0.4255  0.3117  1.1128
   26MOL    C19 7569   3.821   5.385   1.029 -0.7715 -0.8419  0.1670
   26MOL    C20 7570   3.798   5.140   1.002  0.4529  0.3803  0.2203
   26MOL    O21 7571   3.799   5.068   0.900 -0.2617  0.0603  0.6639
   26MOL    O22 7572   3.705   5.144   1.103  0.5062  0.5938  0.4973
   26MOL    C23 7573   3.600   5.049   1.108  0.4121  0.5327  0.4872
   26MOL    H24 7574   4.099   5.325   0.957  0.4655 -0.0441  0.6803
   26MOL    H25 7575   4.050   5.162   0.894 -0.0180  0.0032 -3.4525
   26MOL    H26 7576   3.900   5.459   1.029 -0.8788 -0.7253  0.8374
   26MOL    H27 7577   3.759   5.394   0.939 -1.1371 -0.9061  0.4126
   26MOL    H28 7578   3.755   5.397   1.115 -3.1483 -0.8075 -1.5983
   26MOL    H29 7579   3.601   5.003   1.207 -1.3611  0.4667  0.4913
   26MOL    H30 7580   3.603   4.971   1.033  0.6335  0.7952  0.2239
   26MOL    H31 7581   3.502   5.097   1.100 -0.6067 -1.1766  2.1940
   26MOL    C32 7582   3.971   5.233   1.166  0.1795 -0.0114  0.3351
   26MOL    C33 7583   4.063   5.117   1.215  0.4521  0.0774  0.2266
   26MOL    C34 7584   3.987   4.980   1.195  0.2201  0.4757 -0.1519
   26MOL    C35 7585   4.192   5.117   1.130  0.7223  0.6898 -0.4456
   26MOL    O36 7586   4.236   5.020   1.069  0.0788  0.6443  0.3391
   26MOL    O37 7587   4.253   5.231   1.126  0.7111  0.1193 -0.1457
   26MOL    C38 7588   4.345   5.244   1.022  0.3997 -0.3850  0.8689
   26MOL    H39 7589   3.897   5.234   1.245  0.1493 -2.6219  0.3980
   26MOL    H40 7590   4.039   5.317   1.183  0.2598 -0.1070  0.4911
   26MOL    H41 7591   4.054   4.902   1.232 -0.6153 -0.2588 -0.1884
   26MOL    H42 7592   3.886   4.966   1.232 -0.5282 -0.4478 -2.4647
   26MOL    H43 7593   3.975   4.963   1.088 -1.3633 -1.0903  0.2435
   26MOL    H44 7594   4.440   5.272   1.067  1.0307 -0.2579 -0.4932
   26MOL    H45 7595   4.318   5.334   0.967 -1.4214  0.1283  2.5620
   26MOL    H46 7596   4.348   5.162   0.949 -3.7177 -1.6756  1.9965
   26MOL    C47 7597   4.097   5.142   1.368  0.0587 -0.1058 -0.1437
   26MOL    C48 7598   4.150   5.038   1.475  0.1378 -0.3054  0.5625
   26MOL    C49 7599   4.030   4.949   1.520 -0.1550  0.1566 -0.9191
   26MOL    C50 7600   4.268   4.954   1.411  0.3923  0.5710  0.5148
   26MOL    O51 7601   4.256   4.833   1.389  0.8676  0.4216  0.4355
   26MOL    O52 7602   4.378   5.031   1.383  0.3372 -0.5303  0.2856
   26MOL    C53 7603   4.496   4.964   1.334 -0.4386 -0.0282 -0.0115
   26MOL    H54 7604   4.009   5.183   1.418 -0.9001 -0.7598 -1.2545
   26MOL    H55 7605   4.157   5.233   1.369 -2.0605  1.3572 -1.7081
   26MOL    H56 7606   4.075   4.870   1.579  0.1528 -0.4217 -1.9101
   26MOL    H57 7607   3.954   5.001   1.578  0.3143 -0.5672  0.3642
   26MOL    H58 7608   3.972   4.897   1.443 -2.8566  0.2402  0.9795
   26MOL    H59 7609   4.551   4.915   1.414  2.1106  0.8537 -1.1684
   26MOL    H60 7610   4.563   5.032   1.282  0.1689  3.7546  5.2892
   26MOL    H61 7611   4.459   4.888   1.265 -0.2950 -1.3689  1.3586
   26MOL    C62 7612   4.194   5.120   1.595 -0.2774  0.0873  0.1864
   26MOL    C63 7613   4.281   5.071   1.718 -0.2534  0.6046  0.3722
   26MOL    C64 7614   4.252   5.172   1.830 -0.1313 -0.4803  0.5238
   26MOL    C65 7615   4.230   4.927   1.767  0.2336 -0.1770 -0.1269
   26MOL    O66 7616   4.279   4.829   1.714 -0.5323 -0.1606  0.0805
   26MOL    O67 7617   4.136   4.933   1.857  0.2181  0.5933 -0.3065
   26MOL    C68 7618   4.079   4.810   1.899 -0.4930 -0.0460  0.6144
   26MOL    H69 7619   4.098   5.151   1.637  0.2268  1.4712  0.3245
   26MOL    H70 7620   4.244   5.211   1.560  1.3693 -1.3645 -1.3505
   26MOL    H71 7621   4.150   5.174   1.868 -0.1666  1.2122  0.3708
   26MOL    H72 7622   4.301   5.143   1.922  0.7198  1.1688  0.6038
   26MOL    H73 7623   4.278   5.275   1.807 -2.0685 -0.0638  0.0740
   26MOL    H74 7624   4.043   4.749   1.816 -1.0359  0.0245  0.7942
   26MOL    H75 7625   4.002   4.812   1.976 -3.0339  0.5651 -1.8286
   26MOL    H76 7626   4.153   4.745   1.946  0.6076 -0.9092 -2.2029
   26MOL    C77 7627   4.437   5.071   1.674  0.4939 -0.1184  0.2006
   26MOL    C78 7628   4.561   5.066   1.775 -0.1408  0.1930  0.0481
   26MOL    C79 7629   4.549   5.195   1.863  0.7916  0.2100 -0.5105
   26MOL    C80 7630   4.562   4.940   1.867 -0.4232  0.0716  0.8832
   26MOL    O81 7631   4.580   4.953   1.987  0.2611 -0.5698 -0.1489
   26MOL    O82 7632   4.558   4.825   1.804 -0.4572  0.9460 -0.0000
   26MOL    C83 7633   4.531   4.704   1.883  0.4165  0.0596 -0.4670
   26MOL    H84 7634   4.451   5.159   1.611 -0.5601  0.4793  0.7845
   26MOL    H85 7635   4.456   4.989   1.605 -1.9381 -0.7844  0.2618
   26MOL    H86 7636   4.499   5.175   1.958  0.7799 -0.0135 -0.5641
   26MOL    H87 7637   4.651   5.229   1.881  1.4648 -2.0431  0.0833
   26MOL    H88 7638   4.499   5.279   1.816 -0.1492 -0.5951 -0.9738
   26MOL    H89 7639   4.614   4.664   1.941  0.0917 -1.3429 -0.9492
   26MOL    H90 7640   4.495   4.626   1.817 -0.7661 -0.2505  0.5240
   26MOL    H91 7641   4.444   4.712   1.948  0.0923  1.7347 -1.0673
   26MOL    C92 7642   4.691   5.067   1.684 -0.3207  0.2808  0.1083
   26MOL    C93 7643   4.844   5.035   1.724  0.4598  0.0633 -0.0475
   26MOL    C94 7644   4.886   5.100   1.858 -0.1265 -0.1650  0.3818
   26MOL    C95 7645   4.880   4.882   1.738 -0.0490 -0.2178  0.3382
   26MOL    O96 7646   4.963   4.844   1.818  0.1308 -0.0057 -0.7286
   26MOL    O97 7647   4.815   4.801   1.656 -0.1345 -0.1492 -0.0861
   26MOL    C98 7648   4.835   4.657   1.668 -0.5269  0.0338 -0.3278
   26MOL    H99 7649   4.686   5.158   1.625 -1.9736  0.5151  0.6022
   26MOL   H100 7650   4.669   4.996   1.605 -0.6426 -0.3145  0.7215
   26MOL   H101 7651   4.837   5.054   1.944  1.1409 -0.7122  0.8123
   26MOL   H102 7652   4.993   5.102   1.875 -0.0650 -1.8913  0.3029
   26MOL   H103 7653   4.852   5.204   1.858  0.4387  0.0203  0.1164
   26MOL   H104 7654   4.814   4.610   1.764 -0.4521 -0.7414 -0.6851
   26MOL   H105 7655   4.939   4.638   1.641 -1.3841 -1.7846 -2.5062
   26MOL   H106 7656   4.775   4.610   1.590 -1.9763  0.7734  0.3109
   26MOL   C107 7657   4.939   5.093   1.619 -0.5580  0.7570 -0.4593
   26MOL   C108 7658   4.921   5.078   1.458 -1.6097 -0.0312 -0.1541
   26MOL   C109 7659   4.896   4.931   1.413  0.6181  0.4207  0.1407
   26MOL   C110 7660   4.825   5.181   1.387 -0.0248  0.2882 -0.6421
   26MOL   O111 7661   4.789   5.163   1.270  0.2847 -0.0995  0.2269
   26MOL   O112 7662   4.806   5.294   1.460  0.1325 -0.1616  0.2754
   26MOL   C113 7663   4.756   5.410   1.391 -0.4988  0.0524 -0.5552
   26MOL   H114 7664   5.040   5.065   1.649 -1.1055 -0.0300  0.6854
   26MOL   H115 7665   4.940   5.199   1.642 -1.6855  0.4955  0.8584
   26MOL   H116 7666   4.884   4.920   1.305 -2.1773  2.2870  0.1994
   26MOL   H117 7667   4.965   4.856   1.449  1.5264  2.8347  3.7203
   26MOL   H118 7668   4.797   4.900   1.448  1.1716  0.3959  1.7229
   26MOL   H119 7669   4.784   5.498   1.450 -1.4675 -0.5269  0.7882
   26MOL   H120 7670   4.648   5.406   1.401 -0.4486  1.1805  0.6980
   26MOL   H121 7671   4.799   5.427   1.292  1.3596 -1.0393  0.0342
   26MOL   C122 7672   5.072   5.097   1.405  0.1144 -0.6381 -0.2659
   26MOL   C123 7673   5.142   5.239   1.385 -0.2625 -0.3014 -0.0218
   26MOL   C124 7674   5.081   5.328   1.267  0.0424 -0.9156 -0.2906
   26MOL   C125 7675   5.151   5.328   1.512  0.1466 -0.5501 -1.1998
   26MOL   O126 7676   5.104   5.440   1.516 -0.7583  0.4472 -0.3583
   26MOL   O127 7677   5.210   5.264   1.618 -0.5826 -1.2172  0.6743
   26MOL   C128 7678   5.207   5.323   1.745  0.0513 -0.6385  0.1002
   26MOL   H129 7679   5.068   5.046   1.308  0.7433  2.1438 -1.8028
   26MOL   H130 7680   5.148   5.040   1.458  1.7203  0.1091 -1.7114
   26MOL   H131 7681   5.029   5.252   1.209  3.0083 -1.6589 -2.0641
   26MOL   H132 7682   5.005   5.398   1.304  0.8742 -0.4280  0.5322
   26MOL   H133 7683   5.147   5.394   1.211 -0.0300  1.5744  2.3915
   26MOL   H134 7684   5.107   5.350   1.777 -1.0532 -2.3275 -1.7756
   26MOL   H135 7685   5.260   5.418   1.748 -1.9707  0.4984  0.2024
   26MOL   H136 7686   5.258   5.255   1.813  0.5646  0.1120  0.4703
   26MOL   C137 7687   5.293   5.218   1.337 -0.2284  0.2928 -0.6389
   26MOL   C138 7688   5.354   5.117   1.227  0.0874 -0.0562  0.0886
   26MOL   C139 7689   5.356   4.975   1.288 -0.5883  0.0912  0.1430
   26MOL   C140 7690   5.258   5.122   1.103 -0.3689  0.9331  0.9375
   26MOL   O141 7691   5.194   5.026   1.061  0.1006  0.0118  0.7085
   26MOL   O142 7692   5.260   5.247   1.048  0.5297 -0.2182  0.3973
   26MOL   C143 7693   5.194   5.272   0.927  0.7283 -0.1672  0.4900
   26MOL   H144 7694   5.345   5.190   1.429 -1.1606 -1.2971 -0.5729
   26MOL   H145 7695   5.336   5.316   1.315 -0.1070  0.1736 -0.9366
   26MOL   H146 7696   5.396   4.907   1.212  1.3350  0.8432  0.4786
   26MOL   H147 7697   5.413   4.955   1.378 -0.6057 -2.2374 -0.3291
   26MOL   H148 7698   5.255   4.938   1.306  0.0194 -1.7064 -0.1023
   26MOL   H149 7699   5.216   5.374   0.894 -1.3365 -0.0867 -0.7764
   26MOL   H150 7700   5.088   5.256   0.950  0.4797 -0.8001 -0.9815
   26MOL   H151 7701   5.230   5.210   0.845  0.7523 -0.2989  0.6011
   26MOL   C152 7702   5.494   5.162   1.199  0.8700  0.3061 -0.2643
   26MOL   C153 7703   5.610   5.062   1.148 -0.1151  0.1214  0.3706
   26MOL   C154 7704   5.660   4.978   1.272 -0.5703  0.2696  0.1057
   26MOL   C155 7705   5.563   4.968   1.036 -0.0307 -0.2721 -0.2580
   26MOL   O156 7706   5.578   4.845   1.050  0.5691  0.3259 -0.1731
   26MOL   O157 7707   5.511   5.026   0.932 -0.3573  0.5568 -0.0166
   26MOL   C158 7708   5.472   4.954   0.814  0.0433 -0.1066  0.1057
   26MOL   H159 7709   5.545   5.219   1.277 -1.0236  0.1624  1.1205
   26MOL   H160 7710   5.483   5.244   1.129 -1.1724  0.5681  0.3363
   26MOL   H161 7711   5.672   5.031   1.367  1.0985 -3.1165  1.9073
   26MOL   H162 7712   5.600   4.888   1.287  2.1981 -1.5900  0.4664
   26MOL   H163 7713   5.762   4.941   1.257 -0.0025  1.5784  0.7223
   26MOL   H164 7714   5.516   4.855   0.806  1.1955  0.2954  1.3482
   26MOL   H165 7715   5.511   4.996   0.721  1.7688  0.7329  1.1935
   26MOL   H166 7716   5.363   4.956   0.816 -0.0302 -2.1149 -0.4119
   26MOL   C167 7717   5.733   5.148   1.113 -0.1186 -0.5694  0.4697
   26MOL   C168 7718   5.766   5.268   1.016 -0.8277 -0.5114  0.2014
   26MOL   C169 7719   5.734   5.223   0.874 -0.2041 -0.0687  0.2977
   26MOL   C170 7720   5.685   5.402   1.051  0.3014  0.9909  0.2133
   26MOL   O171 7721   5.627   5.466   0.959  0.2265 -0.1856 -0.3712
   26MOL   O172 7722   5.682   5.437   1.182 -0.1899 -0.7715 -0.5668
   26MOL   C173 7723   5.601   5.544   1.215  0.1325 -0.6100  0.1625
   26MOL   H174 7724   5.804   5.072   1.082  0.1573  0.0485 -0.4373
   26MOL   H175 7725   5.774   5.181   1.209  1.9987 -1.6607 -0.0378
   26MOL   H176 7726   5.625   5.209   0.875 -0.3043  0.5213 -1.5032
   26MOL   H177 7727   5.747   5.304   0.802 -3.3756 -0.5669 -0.9298
   26MOL   H178 7728   5.776   5.128   0.841 -2.6290 -2.0513  2.6286
   26MOL   H179 7729   5.616   5.629   1.148 -1.8771  0.0468  0.5047
   26MOL   H180 7730   5.598   5.574   1.320 -1.2364  0.7721 -0.2455
   26MOL   H181 7731   5.502   5.506   1.189 -0.1271  1.5775 -2.2533
   26MOL   C182 7732   5.926   5.280   1.025  0.0738 -0.1914  0.5753
   26MOL   C183 7733   6.013   5.401   0.964  0.1508 -0.7626  0.2161
   26MOL   C184 7734   5.992   5.533   1.040  0.1843  0.1324  0.0221
   26MOL   C185 7735   6.160   5.354   0.986  0.3531  0.0700 -0.3397
   26MOL   O186 7736   6.233   5.403   1.074 -0.2176  0.1246  0.3550
   26MOL   O187 7737   6.198   5.252   0.910  0.2711 -0.4410  0.0393
   26MOL   C188 7738   6.335   5.207   0.922 -0.0517 -0.3189 -0.0276
   26MOL   H189 7739   5.960   5.193   0.969  1.7504  2.0555 -2.0067
   26MOL   H190 7740   5.961   5.266   1.127  2.2671  0.2819 -0.0889
   26MOL   H191 7741   6.086   5.588   1.033  1.1601 -1.6379 -1.2514
   26MOL   H192 7742   5.903   5.589   1.014  0.8997  2.2113  1.9057
   26MOL   H193 7743   5.987   5.518   1.148 -2.1583 -0.8242 -0.1979
   26MOL   H194 7744   6.377   5.148   0.840  1.7374  0.8875 -0.0032
   26MOL   H195 7745   6.341   5.138   1.007  1.9633 -0.2873 -0.1119
   26MOL   H196 7746   6.396   5.296   0.938  1.3232 -1.1301 -0.6006
   26MOL   C197 7747   5.977   5.417   0.810 -0.2318 -0.3098  0.4829
   26MOL   C198 7748   6.065   5.499   0.701  0.3080 -0.2144 -0.2281
   26MOL   C199 7749   6.139   5.621   0.767 -0.0450  0.8439 -0.1509
   26MOL   C200 7750   6.179   5.402   0.659 -0.2649  0.6537 -0.2127
   26MOL   O201 7751   6.295   5.422   0.689 -0.2742  0.1279 -0.5009
   26MOL   O202 7752   6.143   5.289   0.589  0.2320 -0.0851 -0.6372
   26MOL   C203 7753   6.238   5.196   0.545 -0.0432 -0.2938 -0.3263
   26MOL   H204 7754   5.881   5.467   0.795  0.8587  1.7677  0.2871
   26MOL   H205 7755   5.964   5.315   0.772  0.7359  0.1829 -1.2124
   26MOL   H206 7756   6.062   5.690   0.801  0.4689  0.8463  1.0394
   26MOL   H207 7757   6.209   5.590   0.845 -1.2691 -0.4754  0.4472
   26MOL   H208 7758   6.216   5.672   0.709 -0.9889  1.8463 -0.5168
   26MOL   H209 7759   6.188   5.151   0.460 -2.8518 -1.3883  1.8259
   26MOL   H210 7760   6.280   5.118   0.609 -0.2778 -0.3104 -0.1906
   26MOL   H211 7761   6.321   5.257   0.508 -0.3265 -0.3592 -1.0787
   26MOL   C212 7762   5.959   5.545   0.590 -0.3969 -0.2296 -0.3748
   26MOL   C213 7763   6.001   5.580   0.444 -0.2412  0.0029 -0.2838
   26MOL   C214 7764   6.140   5.650   0.435  0.1335 -0.0485 -0.1408
   26MOL   C215 7765   5.997   5.475   0.341  0.2838  0.2435  0.2442
   26MOL   O216 7766   6.062   5.485   0.238 -0.5264  0.0301  0.5792
   26MOL   O217 7767   5.932   5.364   0.375 -0.0916 -0.4901 -0.8204
   26MOL   C218 7768   5.918   5.249   0.297  0.5875  0.3937 -0.1479
   26MOL   H219 7769   5.911   5.631   0.635  0.3076  1.0127 -1.9545
   26MOL   H220 7770   5.876   5.475   0.586  1.7242 -2.8000 -1.2446
   26MOL   H221 7771   6.139   5.741   0.495 -1.2150 -0.3065  0.2315
   26MOL   H222 7772   6.222   5.588   0.470 -0.8106 -1.1365  0.1620
   26MOL   H223 7773   6.181   5.673   0.336 -0.8066  0.2296 -0.4705
   26MOL   H224 7774   5.834   5.189   0.330 -0.4921  1.6019 -0.6766
   26MOL   H225 7775   6.005   5.186   0.316 -0.3637 -1.6581 -2.3245
   26MOL   H226 7776   5.913   5.282   0.193  0.4998 -0.5946 -0.4599
   26MOL   C227 7777   5.902   5.683   0.385 -1.0454  0.4167  0.7393
   26MOL   C228 7778   5.758   5.661   0.328 -0.0322 -0.6525 -0.3822
   26MOL   C229 7779   5.747   5.589   0.188  0.0164 -0.4531  0.3628
   26MOL   C230 7780   5.671   5.587   0.430 -0.0717 -0.3936 -0.3731
   26MOL   O231 7781   5.626   5.475   0.414 -0.7187 -0.2150 -0.7885
   26MOL   O232 7782   5.667   5.648   0.548  0.6281  0.3208 -0.4392
   26MOL   C233 7783   5.606   5.587   0.655  0.6036 -0.3124 -0.7907
   26MOL   H234 7784   5.952   5.730   0.300 -0.7800 -1.2490 -0.0507
   26MOL   H235 7785   5.898   5.767   0.455 -0.6058  0.3363  0.8592
   26MOL   H236 7786   5.814   5.639   0.118  0.1666 -1.2397 -0.0627
   26MOL   H237 7787   5.772   5.483   0.199  0.6742 -0.2859  0.4951
   26MOL   H238 7788   5.651   5.587   0.138  0.6335 -1.5032 -0.8102
   26MOL   H239 7789   5.499   5.582   0.632 -0.3635 -0.1843  3.1866
   26MOL   H240 7790   5.607   5.638   0.752  0.8565 -0.3453 -0.7771
   26MOL   H241 7791   5.629   5.481   0.660 -1.7801 -0.7823  1.0259
   26MOL   C242 7792   5.706   5.808   0.298  0.1243  0.0764  0.2347
   26MOL   C243 7793   5.559   5.852   0.275  0.2551 -0.2646  0.3752
   26MOL   C244 7794   5.571   6.001   0.233 -0.7084  0.2470  0.2342
   26MOL   C245 7795   5.474   5.778   0.167 -0.6383  0.0109  0.4190
   26MOL   O246 7796   5.489   5.806   0.048  0.3632  0.2781  0.3539
   26MOL   O247 7797   5.399   5.672   0.213  0.2243  0.0504 -0.2247
   26MOL   C248 7798   5.355   5.573   0.129  0.0875 -0.1754 -0.2639
   26MOL   H249 7799   5.748   5.854   0.209  1.1607  0.7213  1.0373
   26MOL   H250 7800   5.747   5.870   0.379 -1.9742 -1.3604  2.4698
   26MOL   H251 7801   5.630   6.020   0.142  1.0927 -0.3444  1.2511
   26MOL   H252 7802   5.481   6.034   0.182  1.5516  2.3093 -2.6395
   26MOL   H253 7803   5.608   6.070   0.309  2.5926 -0.1159 -0.9515
   26MOL   H254 7804   5.258   5.597   0.085  0.4429  0.4724 -0.6950
   26MOL   H255 7805   5.338   5.474   0.172  0.7057 -0.1294  0.0909
   26MOL   H256 7806   5.420   5.555   0.043  0.8686  1.1343  0.0440
   26MOL   C257 7807   5.477   5.856   0.406 -0.9032  0.7166 -0.0244
   26MOL   C258 7808   5.344   5.937   0.438 -0.6554  0.3330 -0.3040
   26MOL   C259 7809   5.246   5.912   0.319  0.2860 -0.2336  0.2545
   26MOL   C260 7810   5.283   5.861   0.563  0.7672  0.4801  0.6614
   26MOL   O261 7811   5.183   5.799   0.557  0.5369  0.1084  0.7763
   26MOL   O262 7812   5.353   5.868   0.675 -0.3689  1.1001 -0.1823
   26MOL   C263 7813   5.306   5.815   0.798  0.5147  0.5330  0.3440
   26MOL   H264 7814   5.551   5.875   0.484  3.6197 -1.2472 -3.5931
   26MOL   H265 7815   5.450   5.754   0.436 -0.9929  0.7296 -0.0609
   26MOL   H266 7816   5.285   5.954   0.227 -0.3869  1.4017  0.6963
   26MOL   H267 7817   5.211   5.810   0.303  3.7344 -1.6603  1.5581
   26MOL   H268 7818   5.153   5.969   0.327  0.9409  0.9800 -0.6568
   26MOL   H269 7819   5.232   5.874   0.851  1.7669  2.2775  0.2197
   26MOL   H270 7820   5.387   5.778   0.860 -0.0515 -2.7437 -0.7854
   26MOL   H271 7821   5.255   5.722   0.771  1.6533  0.0617 -0.2256
   26MOL   C272 7822   5.370   6.089   0.465 -0.3055 -0.0485 -0.5201
   26MOL   C273 7823   5.273   6.194   0.521 -0.0002 -0.0186 -0.1879
   26MOL   C274 7824   5.351   6.333   0.525 -1.1104 -0.3964  0.1472
   26MOL   C275 7825   5.157   6.217   0.420 -0.0541 -0.2108 -0.5988
   26MOL   O276 7826   5.043   6.171   0.443  0.0511  0.1678 -0.2570
   26MOL   O277 7827   5.203   6.288   0.309 -0.7404 -0.4445 -0.4521
   26MOL   C278 7828   5.110   6.353   0.219 -0.6576 -0.1779 -0.7570
   26MOL   H279 7829   5.409   6.126   0.370  1.3095 -0.0102  0.1507
   26MOL   H280 7830   5.442   6.097   0.546 -3.6267  1.0743  2.4547
   26MOL   H281 7831   5.414   6.342   0.613 -0.3143  1.7351 -0.5984
   26MOL   H282 7832   5.413   6.339   0.435  1.3079  0.7472  1.8319
   26MOL   H283 7833   5.283   6.417   0.536  0.6375  1.2941 -1.4558
   26MOL   H284 7834   5.120   6.458   0.247 -3.2542 -0.0700 -0.0664
   26MOL   H285 7835   5.007   6.330   0.248  0.1061 -1.1184  1.3590
   26MOL   H286 7836   5.129   6.333   0.114  0.8544 -1.2286 -0.2925
   26MOL   C287 7837   5.220   6.159   0.664 -0.1429 -0.1614 -0.6479
   26MOL   C288 7838   5.127   6.268   0.741  0.4318  0.4784  0.4806
   26MOL   C289 7839   5.036   6.198   0.845 -0.1718 -0.0295 -0.0978
   26MOL   C290 7840   5.200   6.386   0.810  0.3466 -0.8776  0.3051
   26MOL   O291 7841   5.289   6.372   0.895 -0.1679  0.3547  0.1700
   26MOL   O292 7842   5.154   6.505   0.774 -0.2129 -0.1713  0.1881
   26MOL   C293 7843   5.211   6.622   0.838 -0.4187  0.1616 -0.0986
   26MOL   H294 7844   5.302   6.141   0.733 -0.4535  0.0875 -0.2141
   26MOL   H295 7845   5.153   6.074   0.647  0.0226 -0.0674 -1.8533
   26MOL   H296 7846   5.091   6.125   0.905  0.6952 -0.3694 -1.2830
   26MOL   H297 7847   4.989   6.273   0.908  0.1824  0.1189 -0.0093
   26MOL   H298 7848   4.955   6.142   0.799  0.3287 -1.5435  0.8454
   26MOL   H299 7849   5.151   6.653   0.924  2.1160 -0.0595  1.8265
   26MOL   H300 7850   5.214   6.718   0.786  2.2403  0.0021 -0.3004
   26MOL   H301 7851   5.307   6.607   0.888 -0.9749 -2.5688  0.2145
   26MOL   H302 7852   5.062   6.307   0.663  0.8445  0.7073  0.2481
   27MOL     C1 7853   4.450   2.134   0.187 -0.5001  0.0527  0.0369
   27MOL     C2 7854   4.335   2.135   0.294 -0.3066  1.0670 -0.3920
   27MOL     C3 7855   4.209   2.195   0.236 -0.8254  0.0378 -0.1527
   27MOL     C4 7856   4.290   1.986   0.324  0.1936  0.7605  0.1129
   27MOL     O5 7857   4.282   1.941   0.436 -0.0058 -0.3727  0.1042
   27MOL     O6 7858   4.233   1.920   0.225 -0.5867  0.2233 -0.0932
   27MOL     C7 7859   4.161   1.793   0.245 -0.0345 -0.5007 -0.3628
   27MOL     H8 7860   4.547   2.107   0.229 -0.2814 -0.0941 -0.5481
   27MOL     H9 7861   4.427   2.059   0.110 -0.7057  0.5796 -0.4238
   27MOL    H10 7862   4.205   2.303   0.220 -1.0398  0.1604  0.6636
   27MOL    H11 7863   4.205   2.161   0.133 -0.6165  2.6818 -1.0892
   27MOL    H12 7864   4.117   2.163   0.285  0.6860  0.2229  2.9527
   27MOL    H13 7865   4.108   1.766   0.154 -2.3627  0.0760  0.7956
   27MOL    H14 7866   4.103   1.788   0.337 -0.2835 -3.5975 -0.6463
   27MOL    H15 7867   4.240   1.719   0.261 -1.0760 -2.1732 -2.6665
   27MOL    H16 7868   4.471   2.225   0.131 -0.6072 -0.4554 -0.8482
   27MOL    C17 7869   4.371   2.208   0.431  0.3019  1.0745  0.1645
   27MOL    C18 7870   4.508   2.189   0.515 -0.2150 -0.1014  0.3614
   27MOL    C19 7871   4.554   2.038   0.525 -0.3024 -0.1092  0.6224
   27MOL    C20 7872   4.617   2.280   0.448 -1.0915 -0.4351  0.5679
   27MOL    O21 7873   4.597   2.403   0.444  0.1956 -0.4454 -0.1543
   27MOL    O22 7874   4.730   2.213   0.398 -0.1815  0.2128  0.5404
   27MOL    C23 7875   4.816   2.295   0.316  0.2948 -0.3860  0.0942
   27MOL    H24 7876   4.291   2.185   0.501  0.0344 -1.3047 -0.8881
   27MOL    H25 7877   4.353   2.314   0.411 -0.0713  0.9160 -0.3644
   27MOL    H26 7878   4.659   2.022   0.550 -0.9232 -1.9301  2.1847
   27MOL    H27 7879   4.500   1.986   0.604 -0.5084 -0.8885 -0.0314
   27MOL    H28 7880   4.534   1.982   0.434 -2.1259 -0.2011  1.0632
   27MOL    H29 7881   4.881   2.232   0.255  0.4310  2.9976 -3.3909
   27MOL    H30 7882   4.869   2.371   0.372 -0.1289  1.5246 -2.0320
   27MOL    H31 7883   4.748   2.345   0.247  1.0943 -0.0351 -0.4364
   27MOL    C32 7884   4.480   2.240   0.666 -0.0347  0.4880 -0.0419
   27MOL    C33 7885   4.575   2.256   0.788  0.3440  0.1689 -0.2813
   27MOL    C34 7886   4.672   2.130   0.802  0.7541 -0.2170  0.2393
   27MOL    C35 7887   4.666   2.376   0.773  0.2753  1.2025 -0.2142
   27MOL    O36 7888   4.785   2.374   0.810  0.0299  0.1953 -0.5413
   27MOL    O37 7889   4.617   2.479   0.705 -0.1304  0.2001 -0.8848
   27MOL    C38 7890   4.684   2.601   0.679 -0.3737  0.3790 -0.1032
   27MOL    H39 7891   4.400   2.174   0.701 -0.4637  1.2064  0.3469
   27MOL    H40 7892   4.429   2.335   0.652  1.6387  1.0538 -2.6282
   27MOL    H41 7893   4.707   2.119   0.904  2.4587  1.4018 -0.1269
   27MOL    H42 7894   4.624   2.034   0.783  1.8470 -0.4199 -1.6663
   27MOL    H43 7895   4.762   2.134   0.741  2.0374  1.5265  2.1794
   27MOL    H44 7896   4.793   2.592   0.677 -0.5493 -2.4952  1.0752
   27MOL    H45 7897   4.658   2.658   0.768 -2.3183  0.9976 -1.0462
   27MOL    H46 7898   4.664   2.651   0.584 -0.9083  0.8521  0.2519
   27MOL    C47 7899   4.494   2.269   0.921  0.6574  0.0616 -0.6677
   27MOL    C48 7900   4.380   2.362   0.962  0.1644  0.1836 -0.0924
   27MOL    C49 7901   4.420   2.507   0.932 -0.3281  0.1095  0.1430
   27MOL    C50 7902   4.244   2.333   0.890 -0.7775 -0.2439 -0.1307
   27MOL    O51 7903   4.185   2.431   0.846 -0.9128  0.0121 -0.2911
   27MOL    O52 7904   4.211   2.210   0.875  0.4971  0.5143 -0.3577
   27MOL    C53 7905   4.114   2.177   0.781  0.3530 -0.1637  0.2474
   27MOL    H54 7906   4.576   2.284   0.992 -0.0769 -0.3698  0.2738
   27MOL    H55 7907   4.470   2.165   0.942  0.2949  0.5319  1.3730
   27MOL    H56 7908   4.417   2.527   0.825  1.0132  0.1863  0.1084
   27MOL    H57 7909   4.347   2.575   0.975 -0.0691 -0.0208  0.8041
   27MOL    H58 7910   4.516   2.538   0.974  0.4816 -1.2470 -0.6688
   27MOL    H59 7911   4.066   2.084   0.813  1.3566 -0.7508  0.0828
   27MOL    H60 7912   4.166   2.150   0.689 -0.9605  0.4396 -0.6808
   27MOL    H61 7913   4.039   2.251   0.756  0.5441 -0.2966 -0.7414
   27MOL    C62 7914   4.366   2.350   1.122 -0.6637  0.2871 -0.5759
   27MOL    C63 7915   4.238   2.340   1.211 -0.4031  0.0584 -0.8233
   27MOL    C64 7916   4.148   2.458   1.178 -0.5503 -0.3862  0.2132
   27MOL    C65 7917   4.162   2.207   1.175 -0.0696  0.2614 -0.3423
   27MOL    O66 7918   4.043   2.205   1.136  0.5378 -0.0802  0.2195
   27MOL    O67 7919   4.238   2.093   1.199  0.1838  0.0051  0.2506
   27MOL    C68 7920   4.179   1.967   1.177  0.4070  0.1100  0.1919
   27MOL    H69 7921   4.439   2.420   1.162  0.8379 -0.2664 -2.2759
   27MOL    H70 7922   4.423   2.260   1.149  1.1676  2.1442  1.9814
   27MOL    H71 7923   4.116   2.509   1.269  2.0660  1.8679 -0.0521
   27MOL    H72 7924   4.200   2.541   1.130  1.7592 -1.9597 -0.1212
   27MOL    H73 7925   4.066   2.434   1.110  1.2549 -1.3141 -1.7123
   27MOL    H74 7926   4.179   1.947   1.070 -0.1866 -0.0922  0.2318
   27MOL    H75 7927   4.074   1.952   1.200 -0.3218  0.8019 -2.5032
   27MOL    H76 7928   4.237   1.890   1.229  0.5460 -0.8693 -1.3915
   27MOL    C77 7929   4.275   2.348   1.362  0.7675 -0.3786 -0.3006
   27MOL    C78 7930   4.175   2.296   1.476 -0.1796  0.0516 -0.2645
   27MOL    C79 7931   4.028   2.323   1.443  0.6857  0.2224 -0.0829
   27MOL    C80 7932   4.200   2.148   1.496 -0.2762  0.0607  0.7027
   27MOL    O81 7933   4.109   2.069   1.504  0.1322 -0.1021  0.1737
   27MOL    O82 7934   4.325   2.121   1.524  0.3490  0.4275 -0.1509
   27MOL    C83 7935   4.360   1.993   1.569  0.4337 -0.2310  0.8640
   27MOL    H84 7936   4.306   2.450   1.384 -0.3408 -0.1943  0.4652
   27MOL    H85 7937   4.376   2.308   1.369 -0.4381 -3.8324 -1.4619
   27MOL    H86 7938   3.970   2.293   1.531  0.2256 -1.3817 -0.9159
   27MOL    H87 7939   4.010   2.430   1.428 -2.0784 -0.1881  0.0523
   27MOL    H88 7940   3.981   2.273   1.359 -2.2176  1.6740  0.5959
   27MOL    H89 7941   4.305   1.974   1.661 -2.0382 -1.0386 -0.7418
   27MOL    H90 7942   4.467   1.982   1.590  1.1118 -0.8867 -2.5206
   27MOL    H91 7943   4.327   1.918   1.497  0.5571  1.8700 -1.4465
   27MOL    C92 7944   4.203   2.366   1.617 -0.3504  1.0611  0.1520
   27MOL    C93 7945   4.137   2.489   1.678  0.0548 -0.2958 -0.0670
   27MOL    C94 7946   4.151   2.615   1.582  0.1587 -0.1896 -0.0469
   27MOL    C95 7947   3.989   2.466   1.714 -0.5134  0.3656 -0.1490
   27MOL    O96 7948   3.966   2.369   1.786  0.1064 -0.5008 -0.1536
   27MOL    O97 7949   3.900   2.565   1.691 -0.4938 -0.2530  1.1585
   27MOL    C98 7950   3.761   2.540   1.686 -0.1278 -0.2132  0.2937
   27MOL    H99 7951   4.311   2.381   1.612 -0.2266  0.0636 -0.4684
   27MOL   H100 7952   4.206   2.295   1.699  0.0395  0.4209 -0.4063
   27MOL   H101 7953   4.241   2.602   1.521 -0.8486  0.0344 -1.5914
   27MOL   H102 7954   4.073   2.625   1.507  2.7070 -2.0119 -3.0604
   27MOL   H103 7955   4.163   2.713   1.628 -0.3859 -0.7847  1.4116
   27MOL   H104 7956   3.755   2.439   1.645  0.7501 -0.2837  0.3324
   27MOL   H105 7957   3.695   2.613   1.639 -2.7088 -2.0312  0.9636
   27MOL   H106 7958   3.722   2.526   1.787 -1.2164  0.8769  0.0427
   27MOL   C107 7959   4.221   2.536   1.798  0.3167  0.8239  0.8763
   27MOL   C108 7960   4.282   2.443   1.907 -0.1669  1.0770 -0.1200
   27MOL   C109 7961   4.308   2.549   2.024 -0.2493  0.0039  0.3046
   27MOL   C110 7962   4.195   2.336   1.981 -0.0067  0.1734 -0.0945
   27MOL   O111 7963   4.126   2.364   2.078  0.8614  0.3152 -0.0523
   27MOL   O112 7964   4.211   2.216   1.920  0.0842 -0.5145  0.2528
   27MOL   C113 7965   4.133   2.111   1.962 -0.3629  0.2832 -0.1100
   27MOL   H114 7966   4.159   2.602   1.859 -0.8130 -0.0545  0.6950
   27MOL   H115 7967   4.302   2.602   1.768  0.3350  0.6733  0.5916
   27MOL   H116 7968   4.216   2.589   2.067 -1.6163 -2.9717  0.2672
   27MOL   H117 7969   4.357   2.495   2.105  0.7292 -1.1685 -1.0501
   27MOL   H118 7970   4.373   2.630   1.992 -0.7010 -0.7273 -2.6203
   27MOL   H119 7971   4.147   2.028   1.893  0.5508 -0.2280  0.6823
   27MOL   H120 7972   4.030   2.142   1.982 -0.7045 -0.2369 -1.0194
   27MOL   H121 7973   4.171   2.080   2.060 -0.1037  1.3978  0.1482
   27MOL   C122 7974   4.412   2.381   1.853  0.1635  0.1347  0.0518
   27MOL   C123 7975   4.541   2.332   1.932  0.9759  0.0033 -0.1115
   27MOL   C124 7976   4.632   2.461   1.946 -0.0690  0.6736  0.5111
   27MOL   C125 7977   4.515   2.266   2.063 -0.2030  0.6734 -0.3658
   27MOL   O126 7978   4.547   2.327   2.165  0.3120 -0.5633  0.1865
   27MOL   O127 7979   4.462   2.138   2.060  0.1006 -0.1514  0.4044
   27MOL   C128 7980   4.425   2.063   2.172  0.4096  1.2752 -0.1008
   27MOL   H129 7981   4.454   2.458   1.787  2.0508  0.1090  1.1789
   27MOL   H130 7982   4.392   2.290   1.795  0.6248  0.9130 -1.3521
   27MOL   H131 7983   4.588   2.543   2.003 -2.0783 -1.1740  1.7057
   27MOL   H132 7984   4.713   2.436   2.015  0.5366  0.8704 -0.1273
   27MOL   H133 7985   4.662   2.491   1.846 -0.1735 -1.0877 -0.0707
   27MOL   H134 7986   4.510   2.059   2.241 -0.1106 -2.5597  0.4478
   27MOL   H135 7987   4.386   1.968   2.136 -0.9127  1.8636 -0.2465
   27MOL   H136 7988   4.346   2.111   2.229 -0.4011  0.6047 -0.6606
   27MOL   C137 7989   4.619   2.231   1.841  0.5789  0.1492  1.0009
   27MOL   C138 7990   4.759   2.162   1.871  0.1560  0.0384  0.0100
   27MOL   C139 7991   4.786   2.070   1.752 -0.2609 -0.4216 -0.0592
   27MOL   C140 7992   4.870   2.267   1.864 -0.2752 -0.2435  0.6558
   27MOL   O141 7993   4.902   2.319   1.756 -0.4670  0.4625 -0.0355
   27MOL   O142 7994   4.925   2.299   1.984  0.0514  0.0589 -0.4245
   27MOL   C143 7995   5.039   2.373   1.995  0.0734  0.0332  0.1251
   27MOL   H144 7996   4.644   2.289   1.752 -1.3201 -2.2699 -1.2014
   27MOL   H145 7997   4.554   2.154   1.801 -0.7570  0.6375  2.2039
   27MOL   H146 7998   4.755   1.969   1.779  0.7916 -0.1376  2.3372
   27MOL   H147 7999   4.738   2.102   1.659 -0.1519 -0.3303 -0.0840
   27MOL   H148 8000   4.889   2.062   1.717 -1.3829 -0.2954 -3.6056
   27MOL   H149 8001   5.051   2.416   2.095  2.0753  0.3180 -0.2090
   27MOL   H150 8002   5.021   2.464   1.937  0.7180 -0.2472 -0.5281
   27MOL   H151 8003   5.127   2.326   1.951  1.1109  1.4585  0.6287
   27MOL   C152 8004   4.750   2.066   2.001 -0.3240 -0.2262 -1.0267
   27MOL   C153 8005   4.870   1.975   2.050  0.5035 -0.2212 -0.2887
   27MOL   C154 8006   4.968   1.941   1.929  0.1094 -0.5981  0.1721
   27MOL   C155 8007   4.952   2.050   2.161 -0.1373 -0.7208 -0.4379
   27MOL   O156 8008   5.075   2.054   2.146 -0.6151 -0.3673  0.1212
   27MOL   O157 8009   4.890   2.113   2.263  0.2472 -0.1290 -0.3269
   27MOL   C158 8010   4.967   2.204   2.340 -0.1726 -0.3751  1.0521
   27MOL   H159 8011   4.665   2.005   1.970 -0.1399  0.2938 -2.6167
   27MOL   H160 8012   4.727   2.131   2.085  2.6198 -0.9362  0.4074
   27MOL   H161 8013   5.061   1.890   1.955 -0.7015 -1.3491  1.6508
   27MOL   H162 8014   4.930   1.873   1.853  1.0768 -0.8747 -0.0682
   27MOL   H163 8015   5.024   2.027   1.891  0.7107 -0.9781  0.1909
   27MOL   H164 8016   4.921   2.211   2.439 -0.3243 -0.4327  0.9850
   27MOL   H165 8017   4.962   2.305   2.299 -0.8808 -0.4211  1.0221
   27MOL   H166 8018   5.070   2.176   2.359 -0.0995 -0.0337  1.1730
   27MOL   C167 8019   4.791   1.851   2.107 -0.2566 -0.0774  0.0650
   27MOL   C168 8020   4.862   1.725   2.161 -0.0059 -0.3624 -0.2186
   27MOL   C169 8021   4.944   1.660   2.045 -0.7772 -0.2042  0.7168
   27MOL   C170 8022   4.953   1.754   2.285 -0.2423 -0.0888  0.5777
   27MOL   O171 8023   5.070   1.712   2.286 -0.4943 -0.2725  0.1708
   27MOL   O172 8024   4.897   1.830   2.384  0.0100  0.0652  0.0626
   27MOL   C173 8025   4.982   1.875   2.489 -0.5269 -0.3458  0.2220
   27MOL   H174 8026   4.718   1.817   2.034  0.3339 -2.3632  0.5103
   27MOL   H175 8027   4.726   1.889   2.185  0.9562  0.8720  0.6374
   27MOL   H176 8028   5.051   1.679   2.040 -0.9036  0.6447  1.1769
   27MOL   H177 8029   4.945   1.551   2.051  1.0283 -0.2354 -0.0014
   27MOL   H178 8030   4.912   1.683   1.943 -0.4171 -0.9900  0.4180
   27MOL   H179 8031   5.059   1.943   2.453 -2.1043  2.1444  1.4024
   27MOL   H180 8032   5.042   1.796   2.535 -0.9987 -1.4541 -1.0499
   27MOL   H181 8033   4.924   1.934   2.561 -0.9489  1.5027 -1.5980
   27MOL   C182 8034   4.749   1.623   2.216 -0.2290  0.1360  0.0825
   27MOL   C183 8035   4.614   1.591   2.147  0.4570 -0.3111 -0.1488
   27MOL   C184 8036   4.514   1.714   2.165 -0.4138 -0.3937  0.5503
   27MOL   C185 8037   4.632   1.559   1.992  0.7026 -0.7225 -0.3561
   27MOL   O186 8038   4.597   1.641   1.904  0.4253 -0.3994 -0.5151
   27MOL   O187 8039   4.698   1.444   1.963 -0.3953  0.1465  0.1627
   27MOL   C188 8040   4.705   1.399   1.835  0.3046  0.0441  0.3232
   27MOL   H189 8041   4.717   1.651   2.316 -0.4233 -0.5510  0.2142
   27MOL   H190 8042   4.798   1.526   2.226 -1.2532 -0.4367 -0.2869
   27MOL   H191 8043   4.515   1.776   2.076  3.0337 -0.7335  0.2625
   27MOL   H192 8044   4.410   1.690   2.185 -0.6450  0.3605  0.2513
   27MOL   H193 8045   4.528   1.781   2.250 -1.7853  0.0973  0.3878
   27MOL   H194 8046   4.737   1.476   1.765 -0.9504 -0.5530 -0.9175
   27MOL   H195 8047   4.604   1.374   1.801  1.0402 -1.2319 -0.9763
   27MOL   H196 8048   4.773   1.318   1.809 -0.9079 -1.1633  0.8960
   27MOL   C197 8049   4.552   1.473   2.230  0.4653 -0.2036  0.1677
   27MOL   C198 8050   4.426   1.390   2.192  0.2061 -0.3952 -0.0513
   27MOL   C199 8051   4.322   1.481   2.115  0.4101 -0.0151  0.1619
   27MOL   C200 8052   4.463   1.268   2.095  0.6918  0.2435  0.2274
   27MOL   O201 8053   4.412   1.261   1.985 -0.3806 -0.8703 -0.0039
   27MOL   O202 8054   4.560   1.193   2.156 -0.2354 -0.1378 -0.2864
   27MOL   C203 8055   4.633   1.091   2.087 -0.2470 -0.1387 -0.4470
   27MOL   H204 8056   4.547   1.507   2.334 -1.5019 -0.3102  0.1247
   27MOL   H205 8057   4.633   1.403   2.248 -0.5862 -1.3087  0.7036
   27MOL   H206 8058   4.242   1.417   2.078  1.6198 -1.3159 -0.2797
   27MOL   H207 8059   4.267   1.560   2.165  1.6206  0.2977  1.0285
   27MOL   H208 8060   4.369   1.525   2.027  0.9809 -1.0506 -0.0734
   27MOL   H209 8061   4.715   1.043   2.141  0.3874 -0.4718 -1.6941
   27MOL   H210 8062   4.678   1.122   1.993 -0.6413  1.1384 -0.2268
   27MOL   H211 8063   4.563   1.013   2.058 -0.9624  0.3304 -0.0054
   27MOL   C212 8064   4.357   1.336   2.326 -0.4566 -0.3849 -0.0501
   27MOL   C213 8065   4.254   1.223   2.344 -0.0549 -0.0881 -0.0661
   27MOL   C214 8066   4.141   1.235   2.232  0.8980  0.0662  0.3300
   27MOL   C215 8067   4.319   1.081   2.320  0.3219  0.2031  0.4240
   27MOL   O216 8068   4.295   1.013   2.225  0.0614  0.2304  0.0643
   27MOL   O217 8069   4.411   1.050   2.415  0.0526 -0.2485 -0.1505
   27MOL   C218 8070   4.481   0.928   2.425  0.1958 -0.0342 -0.5745
   27MOL   H219 8071   4.316   1.423   2.376  0.1587 -1.9977  3.4637
   27MOL   H220 8072   4.437   1.311   2.396  0.7727 -0.0668 -1.3287
   27MOL   H221 8073   4.096   1.334   2.232 -1.0719 -0.7573  2.9194
   27MOL   H222 8074   4.168   1.212   2.129 -2.1625  1.0907 -0.7749
   27MOL   H223 8075   4.068   1.155   2.242  0.5528  0.4169  0.6607
   27MOL   H224 8076   4.513   0.922   2.529 -0.2987  3.1408 -0.1890
   27MOL   H225 8077   4.562   0.920   2.353  1.9903  1.0361  1.2792
   27MOL   H226 8078   4.418   0.842   2.403  2.3290 -2.0155  0.8955
   27MOL   C227 8079   4.198   1.225   2.490  0.1393  0.3042  0.0722
   27MOL   C228 8080   4.057   1.297   2.524 -1.0278  0.7732  0.1390
   27MOL   C229 8081   4.074   1.447   2.497 -0.2040  0.4473 -0.5588
   27MOL   C230 8082   3.929   1.239   2.453 -0.2951 -0.8527 -0.5747
   27MOL   O231 8083   3.839   1.317   2.430 -0.1040  0.2753  0.4715
   27MOL   O232 8084   3.931   1.105   2.432  0.0898  0.1772  0.2643
   27MOL   C233 8085   3.813   1.042   2.403  0.0441  0.5573  0.0078
   27MOL   H234 8086   4.274   1.261   2.559  0.6495  0.2491 -0.4558
   27MOL   H235 8087   4.181   1.120   2.514  0.5422  0.7186  2.2225
   27MOL   H236 8088   3.986   1.509   2.513 -0.9579 -0.5835 -0.5953
   27MOL   H237 8089   4.161   1.477   2.555  0.5676 -0.3225 -1.2868
   27MOL   H238 8090   4.098   1.464   2.392  0.9784 -0.3422 -0.4220
   27MOL   H239 8091   3.734   1.071   2.473 -1.6697 -0.3421 -1.4998
   27MOL   H240 8092   3.816   0.934   2.417  1.8566  0.4369 -1.1766
   27MOL   H241 8093   3.772   1.063   2.304 -0.2405  4.4147  0.8746
   27MOL   C242 8094   4.030   1.289   2.684 -0.2944  0.6842  0.3260
   27MOL   C243 8095   3.952   1.180   2.766 -0.0574 -0.5969  0.6008
   27MOL   C244 8096   3.804   1.193   2.742 -0.2380  0.1479 -1.5324
   27MOL   C245 8097   3.999   1.044   2.724 -0.7563  0.0989  0.7071
   27MOL   O246 8098   3.924   0.943   2.708  0.2220 -0.7039 -0.1987
   27MOL   O247 8099   4.136   1.028   2.720  0.0107 -0.1814  0.4330
   27MOL   C248 8100   4.195   0.901   2.698 -0.3344  0.3853  0.5088
   27MOL   H249 8101   3.976   1.381   2.706 -1.4947 -0.0941  0.6510
   27MOL   H250 8102   4.132   1.299   2.721 -0.0872  0.9666 -0.3165
   27MOL   H251 8103   3.757   1.127   2.669 -3.1114  1.5511 -1.0092
   27MOL   H252 8104   3.735   1.188   2.827 -1.0288  1.7684 -2.0741
   27MOL   H253 8105   3.772   1.288   2.701 -2.1373  0.2107  0.0043
   27MOL   H254 8106   4.145   0.855   2.612  0.2048  2.2154 -0.8230
   27MOL   H255 8107   4.197   0.847   2.792  0.7766  2.2489  1.5862
   27MOL   H256 8108   4.300   0.905   2.667 -0.6018  0.4346 -0.4220
   27MOL   C257 8109   3.985   1.218   2.913  0.6409 -0.3990  0.4324
   27MOL   C258 8110   3.971   1.116   3.035  0.2342  0.2703  0.0552
   27MOL   C259 8111   4.068   0.994   3.019  0.3918  0.8468  1.1749
   27MOL   C260 8112   4.009   1.197   3.156 -0.9843 -0.6299 -0.5761
   27MOL   O261 8113   4.109   1.171   3.225 -0.0904 -0.2153 -0.1795
   27MOL   O262 8114   3.923   1.290   3.193  0.4480  0.2804  0.5599
   27MOL   C263 8115   3.915   1.348   3.326 -0.7102 -0.1553  0.2246
   27MOL   H264 8116   3.944   1.318   2.929  0.0259 -0.5201 -0.3589
   27MOL   H265 8117   4.089   1.248   2.922  0.5648 -0.1204  0.4008
   27MOL   H266 8118   4.035   0.920   2.946 -0.1266  1.0217  1.2280
   27MOL   H267 8119   4.166   1.030   2.988  0.6812 -1.1685 -0.3657
   27MOL   H268 8120   4.100   0.945   3.111  1.0768  2.4244  1.7911
   27MOL   H269 8121   3.871   1.274   3.393  1.9415  0.2561  2.4800
   27MOL   H270 8122   3.866   1.445   3.325  0.7712  0.6159  1.2332
   27MOL   H271 8123   4.016   1.369   3.359 -0.8973  0.5318  0.3581
   27MOL   C272 8124   3.826   1.069   3.056  0.5041 -0.2131  0.0425
   27MOL   C273 8125   3.780   0.948   3.146  0.0816 -0.5291 -0.7723
   27MOL   C274 8126   3.630   0.957   3.166  0.2263 -0.7849  0.7489
   27MOL   C275 8127   3.820   0.809   3.087  0.2792 -0.1445 -0.2651
   27MOL   O276 8128   3.881   0.726   3.147  0.3680  0.3988 -0.1867
   27MOL   O277 8129   3.775   0.794   2.959 -0.5161 -0.2585  0.3641
   27MOL   C278 8130   3.808   0.675   2.882  0.1687  0.1036 -0.2370
   27MOL   H279 8131   3.788   1.032   2.961  2.5403 -2.0401 -0.1093
   27MOL   H280 8132   3.755   1.148   3.080  1.8781  0.8756  0.5646
   27MOL   H281 8133   3.576   0.889   3.232 -2.0480  0.8270  0.5955
   27MOL   H282 8134   3.606   1.054   3.208  0.0708  0.6431 -2.5216
   27MOL   H283 8135   3.573   0.954   3.073  1.4427  3.6485 -0.2531
   27MOL   H284 8136   3.750   0.588   2.914  1.0261 -0.1663  0.5980
   27MOL   H285 8137   3.916   0.659   2.885  0.2320  0.4441 -0.6248
   27MOL   H286 8138   3.796   0.681   2.774  0.2415 -0.4687 -0.2816
   27MOL   C287 8139   3.842   0.956   3.286  0.3514 -0.2839  0.4882
   27MOL   C288 8140   3.796   0.857   3.397  0.2526 -0.2465  0.2907
   27MOL   C289 8141   3.918   0.793   3.468  0.0788 -0.5481  0.3620
   27MOL   C290 8142   3.690   0.903   3.491 -0.0410 -0.4484 -0.0520
   27MOL   O291 8143   3.641   1.019   3.490  0.2880 -0.1881  0.0936
   27MOL   O292 8144   3.653   0.806   3.572  0.6339 -0.4111 -0.0763
   27MOL   C293 8145   3.560   0.836   3.679  0.3856 -0.1117  0.2682
   27MOL   H294 8146   3.823   1.053   3.332 -1.0730 -1.3277  2.1213
   27MOL   H295 8147   3.950   0.943   3.272  0.5544  1.7754 -0.1351
   27MOL   H296 8148   4.003   0.777   3.401  0.9030  1.1215  0.9768
   27MOL   H297 8149   3.941   0.853   3.556 -1.0226  1.0020 -0.3826
   27MOL   H298 8150   3.891   0.696   3.510 -1.7081  0.3176  1.2626
   27MOL   H299 8151   3.458   0.854   3.643  0.8111  0.9396 -0.3950
   27MOL   H300 8152   3.604   0.915   3.739  0.8908 -0.3187  0.1673
   27MOL   H301 8153   3.571   0.748   3.743 -2.9869 -1.3274 -0.6698
   27MOL   H302 8154   3.746   0.783   3.334 -1.3488  1.8739 -0.9982
   28MOL     C1 8155   0.095   6.959   4.964  1.1475  0.4035 -0.0102
   28MOL     C2 8156   0.141   6.857   5.073 -0.5839  0.3248 -0.0910
   28MOL     C3 8157   0.296   6.880   5.067 -0.0473 -0.0125  0.0032
   28MOL     C4 8158   0.090   6.889   5.211  0.1130 -0.1793 -0.9602
   28MOL     O5 8159   0.087   6.803   5.299 -0.0811 -0.3131  0.6284
   28MOL     O6 8160   0.047   7.020   5.227 -0.2820 -0.4053 -1.0318
   28MOL     C7 8161   7.855   7.048   5.346 -0.0234  0.4767  0.1951
   28MOL     H8 8162   0.128   7.062   4.977  0.5860  0.5052  0.6643
   28MOL     H9 8163   0.109   6.930   4.860  0.2940  0.5180 -0.1630
   28MOL    H10 8164   0.333   6.864   4.966  0.1567  0.1303  0.0534
   28MOL    H11 8165   0.325   6.981   5.098 -1.3226 -0.0859  1.5259
   28MOL    H12 8166   0.339   6.802   5.130 -0.1402 -0.2139 -0.1879
   28MOL    H13 8167   7.748   7.026   5.345 -0.1526  1.1135 -0.2566
   28MOL    H14 8168   7.868   7.156   5.357  1.0493  0.3076  0.5937
   28MOL    H15 8169   0.029   6.996   5.426 -0.2842  1.0861  0.7638
   28MOL    H16 8170   7.864   6.969   4.961  0.7568 -2.9932 -0.2322
   28MOL    C17 8171   0.124   6.707   5.045  0.4680  0.5132 -0.0864
   28MOL    C18 8172   7.875   6.647   4.967  0.1198  0.5909 -0.0010
   28MOL    C19 8173   7.748   6.688   5.051 -0.4627  0.0591  0.4848
   28MOL    C20 8174   7.876   6.691   4.820  0.3824 -0.6508 -0.2326
   28MOL    O21 8175   7.780   6.742   4.771 -0.3649 -0.3771  0.0983
   28MOL    O22 8176   0.110   6.665   4.751  0.0760 -0.3425 -0.5094
   28MOL    C23 8177   0.113   6.702   4.616  0.3079 -0.5487 -0.9736
   28MOL    H24 8178   0.130   6.655   5.140  1.7715 -0.8584 -0.9051
   28MOL    H25 8179   0.216   6.671   4.999  1.0261  1.1503  0.5227
   28MOL    H26 8180   7.660   6.634   5.019 -0.3666 -0.1264  0.5312
   28MOL    H27 8181   7.756   6.667   5.158 -2.0534 -0.5576  0.4856
   28MOL    H28 8182   7.734   6.796   5.046  0.4701  0.1059 -1.7913
   28MOL    H29 8183   0.056   6.792   4.595  1.2285  0.6674  1.5359
   28MOL    H30 8184   0.068   6.625   4.553 -0.5636  1.3669 -2.7568
   28MOL    H31 8185   0.217   6.715   4.583  0.8286  0.0931  0.8526
   28MOL    C32 8186   0.028   6.490   4.965  1.1091 -0.1041  1.0609
   28MOL    C33 8187   7.825   6.378   4.883  0.5354 -0.2155 -0.0819
   28MOL    C34 8188   7.852   6.247   4.955 -0.5119 -0.4296  0.2346
   28MOL    C35 8189   7.666   6.402   4.887  0.0319  0.7797  0.5784
   28MOL    O36 8190   7.593   6.322   4.944 -0.4519 -0.4265 -0.0690
   28MOL    O37 8191   7.628   6.506   4.817 -0.1672 -0.2281 -0.3069
   28MOL    C38 8192   7.493   6.554   4.800 -0.3034  0.2061  0.0811
   28MOL    H39 8193   0.019   6.463   5.070  4.0199 -2.3188  0.7923
   28MOL    H40 8194   0.130   6.481   4.928  1.1886  2.1512  0.6693
   28MOL    H41 8195   7.837   6.252   5.063  1.3653 -1.0203  0.5316
   28MOL    H42 8196   7.779   6.168   4.937 -0.6448 -0.4391  0.7999
   28MOL    H43 8197   0.076   6.211   4.943  1.0198  3.7031  0.0754
   28MOL    H44 8198   7.498   6.649   4.747 -1.3050 -0.1955 -0.7336
   28MOL    H45 8199   7.440   6.559   4.895  1.4612  0.4833  1.0954
   28MOL    H46 8200   7.439   6.484   4.737 -1.8171 -1.0320  2.7015
   28MOL    C47 8201   7.865   6.380   4.735 -0.4101 -0.3249 -0.3605
   28MOL    C48 8202   7.833   6.265   4.634 -0.5520 -0.3311 -0.6027
   28MOL    C49 8203   0.041   6.311   4.506  0.5401 -0.3943  0.8198
   28MOL    C50 8204   0.009   6.124   4.678 -0.0733 -0.1974 -0.2324
   28MOL    O51 8205   7.814   6.025   4.689 -0.2579  0.4850  0.0219
   28MOL    O52 8206   0.144   6.142   4.702  0.0727 -0.0847  0.3124
   28MOL    C53 8207   0.229   6.034   4.732 -0.3450 -0.0457  0.1721
   28MOL    H54 8208   0.096   6.393   4.742 -0.3825  0.1730 -1.5957
   28MOL    H55 8209   7.819   6.465   4.685 -0.7049 -1.1431 -1.4958
   28MOL    H56 8210   0.056   6.224   4.442  0.0530  0.9571 -1.1805
   28MOL    H57 8211   7.864   6.383   4.445 -0.8575 -0.7836  1.5839
   28MOL    H58 8212   0.135   6.356   4.537  1.9407 -2.6114 -0.1037
   28MOL    H59 8213   0.295   5.990   4.658  1.8963  2.6212  0.5129
   28MOL    H60 8214   0.179   5.960   4.794  1.7589 -0.5447  1.3262
   28MOL    H61 8215   0.310   6.083   4.785 -0.4120  0.7160 -0.4170
   28MOL    C62 8216   7.677   6.248   4.603  0.4537 -0.1202 -0.4619
   28MOL    C63 8217   7.618   6.185   4.470  0.5297  0.5142  0.0569
   28MOL    C64 8218   7.713   6.085   4.391 -0.2117 -0.5086 -0.0003
   28MOL    C65 8219   7.484   6.122   4.508  0.1068  0.4908 -0.3631
   28MOL    O66 8220   7.466   6.004   4.480  0.2460  0.1037 -0.2786
   28MOL    O67 8221   7.409   6.205   4.583 -0.2492 -0.7183 -0.0722
   28MOL    C68 8222   7.304   6.160   4.664  0.1545  0.2497 -1.2542
   28MOL    H69 8223   7.628   6.341   4.631  1.7309  0.2856  0.4919
   28MOL    H70 8224   7.631   6.196   4.687  0.8477 -0.6030 -0.5366
   28MOL    H71 8225   7.778   6.023   4.452 -1.2644  0.0396  1.6895
   28MOL    H72 8226   7.653   6.014   4.333 -0.0905 -0.1559 -0.5591
   28MOL    H73 8227   7.783   6.143   4.332 -1.0200 -0.2099 -0.6761
   28MOL    H74 8228   7.360   6.116   4.747  0.8102  1.0925 -1.2432
   28MOL    H75 8229   7.233   6.093   4.616 -0.5007 -0.3910  0.5662
   28MOL    H76 8230   7.253   6.245   4.711  1.7285 -0.0488  1.0643
   28MOL    C77 8231   7.580   6.310   4.378  0.4626 -0.2058 -0.1335
   28MOL    C78 8232   7.505   6.304   4.238  0.1454 -0.1712  0.6406
   28MOL    C79 8233   7.601   6.247   4.129  0.7337  0.4384 -0.7564
   28MOL    C80 8234   7.360   6.249   4.226  0.2462  0.1810  0.6279
   28MOL    O81 8235   7.336   6.163   4.133 -0.3426  0.6256 -0.6514
   28MOL    O82 8236   7.276   6.288   4.320 -0.1436  0.6729 -0.3013
   28MOL    C83 8237   7.144   6.238   4.326 -0.0875  0.0151  0.5671
   28MOL    H84 8238   7.678   6.358   4.370  0.6754 -0.8424 -1.5604
   28MOL    H85 8239   7.518   6.371   4.443  3.6761 -0.2694  3.1560
   28MOL    H86 8240   7.695   6.302   4.116  0.2643  1.6384  0.7935
   28MOL    H87 8241   7.632   6.144   4.146 -1.4803  0.1755  1.9326
   28MOL    H88 8242   7.553   6.232   4.032  2.1846 -3.2996 -0.9699
   28MOL    H89 8243   7.085   6.266   4.238  0.4823  0.6079  0.3657
   28MOL    H90 8244   7.093   6.267   4.418  0.6441 -0.9843  1.2935
   28MOL    H91 8245   7.156   6.130   4.329 -0.7069 -0.0991 -0.7917
   28MOL    C92 8246   7.498   6.454   4.206  0.1244 -0.6640  0.6314
   28MOL    C93 8247   7.433   6.532   4.089 -0.1469  0.2227  0.5179
   28MOL    C94 8248   7.452   6.463   3.954 -0.3524  0.2282  1.0617
   28MOL    C95 8249   7.284   6.567   4.107 -0.6135 -0.1475  0.6091
   28MOL    O96 8250   7.231   6.561   4.217  0.2465  0.5966 -0.1256
   28MOL    O97 8251   7.224   6.615   4.000  0.0951  0.7546  0.3008
   28MOL    C98 8252   7.106   6.698   4.024  0.4315  0.5453 -0.3575
   28MOL    H99 8253   7.600   6.492   4.206 -0.5378  1.2095  1.9745
   28MOL   H100 8254   7.454   6.507   4.291  0.9255 -0.3576  0.8635
   28MOL   H101 8255   7.388   6.376   3.941  0.8378 -0.2391 -2.1597
   28MOL   H102 8256   7.407   6.528   3.879 -1.5376  0.8131  2.2626
   28MOL   H103 8257   7.554   6.430   3.932 -1.0339 -2.5265  1.8684
   28MOL   H104 8258   7.107   6.755   3.931  1.0355 -1.3001 -1.5073
   28MOL   H105 8259   7.102   6.767   4.108  1.5634 -1.0237  1.0398
   28MOL   H106 8260   7.008   6.651   4.030  0.4592  0.3987 -1.1014
   28MOL   C107 8261   7.509   6.675   4.075  0.0551 -0.1241 -0.4453
   28MOL   C108 8262   7.508   6.793   4.180  0.1519 -0.5064 -0.0315
   28MOL   C109 8263   7.366   6.861   4.165 -0.4668  0.3716 -0.4008
   28MOL   C110 8264   7.518   6.750   4.329  0.3908  0.3500 -0.0255
   28MOL   O111 8265   7.439   6.772   4.416 -0.3095 -0.3511  0.0523
   28MOL   O112 8266   7.631   6.678   4.344  0.5588  0.2471 -0.2472
   28MOL   C113 8267   7.667   6.633   4.471 -0.3544 -0.5567  0.4316
   28MOL   H114 8268   7.481   6.707   3.974  0.9323 -0.7544 -0.8941
   28MOL   H115 8269   7.613   6.644   4.065  0.7934  2.4274 -1.1588
   28MOL   H116 8270   7.294   6.800   4.219 -1.3787  2.1698  0.4380
   28MOL   H117 8271   7.346   6.955   4.216 -0.0610  0.3263 -0.1549
   28MOL   H118 8272   7.352   6.872   4.057 -0.1832  0.5881 -0.4190
   28MOL   H119 8273   7.596   6.561   4.513  0.6613 -1.7109  0.2118
   28MOL   H120 8274   7.687   6.720   4.533 -0.3530 -0.9788  1.0338
   28MOL   H121 8275   7.763   6.581   4.474  0.1977  0.3879 -0.5165
   28MOL   C122 8276   7.615   6.900   4.128  0.4749  0.4455 -0.5905
   28MOL   C123 8277   7.666   7.020   4.208 -0.5173 -0.6558  0.3385
   28MOL   C124 8278   7.542   7.100   4.267 -0.0027 -0.5699 -0.3676
   28MOL   C125 8279   7.759   6.991   4.333 -0.3019  0.5597 -0.3434
   28MOL   O126 8280   7.801   6.882   4.363  0.5189  0.5594  0.0998
   28MOL   O127 8281   7.796   7.105   4.393  0.4123 -0.4267  0.1432
   28MOL   C128 8282   7.870   7.096   4.512 -0.1751  0.1719 -0.2976
   28MOL   H129 8283   7.582   6.914   4.026 -1.3604 -3.3269 -0.6040
   28MOL   H130 8284   7.707   6.842   4.121 -0.3650 -0.9698 -0.1562
   28MOL   H131 8285   7.569   7.196   4.313 -1.0506  1.5573 -4.0036
   28MOL   H132 8286   7.465   7.126   4.195 -0.2424 -1.4929 -0.4388
   28MOL   H133 8287   7.500   7.048   4.353 -0.2279  1.5383  0.8390
   28MOL   H134 8288   0.084   7.038   4.501 -0.4039 -0.0861 -0.8857
   28MOL   H135 8289   7.807   7.039   4.579  1.5382 -0.3431  0.9101
   28MOL   H136 8290   0.018   7.193   4.555 -2.0930  1.1908 -1.4112
   28MOL   C137 8291   7.731   7.116   4.101 -0.4177  0.0310  0.1504
   28MOL   C138 8292   7.863   7.082   4.013 -0.5043  0.5182 -0.8502
   28MOL   C139 8293   0.097   7.015   4.104 -0.1704 -0.0512  0.5142
   28MOL   C140 8294   7.823   6.991   3.897 -0.0359 -0.1224 -0.1842
   28MOL   O141 8295   0.020   6.899   3.865  0.1689  0.0085  0.1336
   28MOL   O142 8296   7.711   7.027   3.839  0.2057  0.2597  0.3594
   28MOL   C143 8297   7.646   6.942   3.747 -0.9994  0.2271  0.0250
   28MOL   H144 8298   7.758   7.206   4.157 -1.0742  1.0188 -1.1089
   28MOL   H145 8299   7.650   7.153   4.037 -0.1851 -1.3378 -0.9622
   28MOL   H146 8300   0.065   6.914   4.129  1.3174 -0.8681 -0.7945
   28MOL   H147 8301   0.195   7.006   4.057  0.1925 -0.1580  1.2895
   28MOL   H148 8302   0.112   7.069   4.198 -0.6288 -0.4312  0.8036
   28MOL   H149 8303   7.555   6.896   3.786 -0.6541 -1.6087 -1.2295
   28MOL   H150 8304   7.699   6.848   3.733  0.3018  0.3617  3.5587
   28MOL   H151 8305   7.620   6.986   3.650  0.0542  1.7457  0.4254
   28MOL   C152 8306   0.032   7.223   3.959 -0.0814 -0.3281 -0.1881
   28MOL   C153 8307   0.132   7.241   3.844  0.9117 -0.6614  0.0464
   28MOL   C154 8308   0.166   7.387   3.866  0.7020  0.3414 -0.5764
   28MOL   C155 8309   0.256   7.156   3.861  0.0825 -0.4901  0.6040
   28MOL   O156 8310   0.343   7.196   3.938 -0.0289 -0.3541 -0.4729
   28MOL   O157 8311   0.269   7.045   3.787 -0.0164  0.1909 -0.2018
   28MOL   C158 8312   0.381   6.958   3.799 -0.2317 -0.0454  0.0464
   28MOL   H159 8313   0.075   7.267   4.049  0.9705 -3.4043  0.8913
   28MOL   H160 8314   7.826   7.289   3.937  0.1794 -0.1125 -0.5385
   28MOL   H161 8315   0.232   7.437   3.795  1.8450  2.0564  1.6414
   28MOL   H162 8316   0.076   7.448   3.857  0.7742  0.5699  0.1946
   28MOL   H163 8317   0.200   7.407   3.968 -0.7875  0.5998 -0.1288
   28MOL   H164 8318   0.377   6.917   3.899 -1.6401  0.4429  0.2054
   28MOL   H165 8319   0.471   7.018   3.785  0.2139 -0.3974  1.3350
   28MOL   H166 8320   0.386   6.871   3.732 -0.0610  0.7268 -0.9575
   28MOL   C167 8321   0.061   7.210   3.706 -0.5140  0.0618  0.1679
   28MOL   C168 8322   0.096   7.292   3.576  0.1921 -0.0836  0.1192
   28MOL   C169 8323   0.004   7.249   3.463  0.2957  0.9636 -0.0870
   28MOL   C170 8324   0.060   7.443   3.592 -0.3840 -0.7528  0.3051
   28MOL   O171 8325   0.133   7.538   3.546  0.0266  0.3836 -0.6640
   28MOL   O172 8326   7.817   7.470   3.648  0.2565 -0.2815 -0.1391
   28MOL   C173 8327   7.784   7.607   3.683 -0.9494 -0.7854  0.2468
   28MOL   H174 8328   7.832   7.226   3.715 -0.7337 -0.2464 -1.7582
   28MOL   H175 8329   0.074   7.105   3.677 -0.6361  0.1675 -0.2729
   28MOL   H176 8330   0.026   7.316   3.379  0.8801  1.6276  0.5948
   28MOL   H177 8331   0.014   7.148   3.424 -0.1693  1.0503 -0.4400
   28MOL   H178 8332   7.778   7.264   3.494  0.1265 -0.7565  0.2160
   28MOL   H179 8333   7.679   7.623   3.708 -0.2853  1.5871  1.5737
   28MOL   H180 8334   7.806   7.677   3.602  0.2724  0.7150  1.8418
   28MOL   H181 8335   7.841   7.636   3.771  1.3733 -1.6113 -0.9396
   28MOL   C182 8336   0.247   7.287   3.535  0.6506  0.3002 -0.1519
   28MOL   C183 8337   0.312   7.193   3.428 -0.1405  0.4125  0.2347
   28MOL   C184 8338   0.277   7.253   3.286  0.7039  0.3612 -0.4373
   28MOL   C185 8339   0.469   7.216   3.447  0.2438  0.3263 -0.1455
   28MOL   O186 8340   0.550   7.248   3.359  0.1667  0.6258 -0.4686
   28MOL   O187 8341   0.512   7.171   3.568  0.6936 -0.7001 -0.2958
   28MOL   C188 8342   0.652   7.164   3.599  0.0271 -0.1029 -0.2603
   28MOL   H189 8343   0.307   7.278   3.626 -0.5583 -1.6161  0.4873
   28MOL   H190 8344   0.285   7.378   3.490  1.5597  0.3806  0.7566
   28MOL   H191 8345   0.340   7.208   3.209  3.7269 -0.4491  2.3842
   28MOL   H192 8346   0.173   7.229   3.266 -0.2164  3.4476  0.2745
   28MOL   H193 8347   0.277   7.362   3.278  1.2255  0.4236  0.3870
   28MOL   H194 8348   0.657   7.206   3.700 -1.0061  1.0787 -0.6816
   28MOL   H195 8349   0.711   7.237   3.544 -2.0083  2.6333  0.9958
   28MOL   H196 8350   0.688   7.062   3.594  1.0313  0.1298  1.7724
   28MOL   C197 8351   0.286   7.042   3.450  0.4903 -0.6342  0.4998
   28MOL   C198 8352   0.308   6.927   3.341 -0.4408  0.4219  0.3570
   28MOL   C199 8353   0.189   6.938   3.240  0.8239  0.1384  0.6607
   28MOL   C200 8354   0.449   6.941   3.275  0.3753 -0.0339 -0.5192
   28MOL   O201 8355   0.457   6.986   3.160  0.1889  0.1153 -0.2288
   28MOL   O202 8356   0.551   6.927   3.350  0.9200  0.2148  0.3347
   28MOL   C203 8357   0.680   6.955   3.297  0.1523  0.8191 -0.5339
   28MOL   H204 8358   0.181   7.030   3.474  0.0098 -0.8693 -1.5707
   28MOL   H205 8359   0.343   7.002   3.533  0.3132 -0.2788  0.7909
   28MOL   H206 8360   0.165   6.856   3.172 -0.8019 -0.3679  1.8085
   28MOL   H207 8361   0.101   6.954   3.302  1.1398  0.2002  1.0977
   28MOL   H208 8362   0.191   7.022   3.170 -1.4440  0.3525  0.8025
   28MOL   H209 8363   0.686   6.914   3.196 -3.3880  0.3644 -0.6213
   28MOL   H210 8364   0.758   6.915   3.362  0.7376 -0.1022 -1.7714
   28MOL   H211 8365   0.694   7.062   3.283  0.6197  1.1117  1.9336
   28MOL   C212 8366   0.306   6.788   3.418  0.4066 -0.4301 -1.0329
   28MOL   C213 8367   0.267   6.638   3.357 -0.1406  0.9344  0.6149
   28MOL   C214 8368   0.115   6.644   3.374 -0.0554 -0.1183  0.4301
   28MOL   C215 8369   0.295   6.622   3.214  0.6308 -0.3772 -0.4420
   28MOL   O216 8370   0.226   6.547   3.139  0.3825 -0.3716  0.3896
   28MOL   O217 8371   0.416   6.670   3.173 -0.2019 -0.1055 -0.2187
   28MOL   C218 8372   0.462   6.653   3.039 -0.5490  0.7245  0.3497
   28MOL   H219 8373   0.251   6.806   3.511 -0.2778 -0.6746 -1.3899
   28MOL   H220 8374   0.404   6.764   3.460  0.5202 -2.1718 -2.2754
   28MOL   H221 8375   0.072   6.741   3.350  0.4772 -0.2305 -1.0404
   28MOL   H222 8376   0.063   6.562   3.325  2.0527 -0.7787 -0.7973
   28MOL   H223 8377   0.086   6.622   3.476 -2.0736 -2.5705 -0.6363
   28MOL   H224 8378   0.557   6.704   3.029  0.7035 -1.2039  2.0193
   28MOL   H225 8379   0.387   6.687   2.968  1.0315  3.0455 -0.2550
   28MOL   H226 8380   0.483   6.547   3.020  0.6534  1.0647 -0.2119
   28MOL   C227 8381   0.321   6.520   3.446 -0.9896  0.6638 -0.1915
   28MOL   C228 8382   0.470   6.454   3.454  0.1785 -0.4592  1.2519
   28MOL   C229 8383   0.502   6.400   3.310  0.7321  0.8926  0.0940
   28MOL   C230 8384   0.569   6.560   3.505 -0.5604 -0.0148  0.7621
   28MOL   O231 8385   0.665   6.596   3.440  0.3330  0.2003  0.3227
   28MOL   O232 8386   0.525   6.613   3.624 -0.2458 -0.6766 -0.1138
   28MOL   C233 8387   0.614   6.705   3.680 -0.4875 -0.1199 -0.3175
   28MOL   H234 8388   0.261   6.431   3.429 -0.0452  0.0373 -0.2786
   28MOL   H235 8389   0.285   6.535   3.548  0.5713  0.8446  0.3453
   28MOL   H236 8390   0.529   6.485   3.247 -2.1145  1.9464  0.2217
   28MOL   H237 8391   0.594   6.342   3.304  0.7936  1.0671 -0.7205
   28MOL   H238 8392   0.422   6.345   3.260  2.9579 -1.0824 -1.3759
   28MOL   H239 8393   0.717   6.670   3.681 -0.6287 -0.5544  1.7538
   28MOL   H240 8394   0.590   6.738   3.782 -1.0776 -0.6967 -0.2711
   28MOL   H241 8395   0.616   6.796   3.620 -1.2446 -0.9435 -1.5845
   28MOL   C242 8396   0.457   6.328   3.545  0.3108  0.6283 -0.3059
   28MOL   C243 8397   0.581   6.254   3.619 -0.4701 -0.3409  0.4528
   28MOL   C244 8398   0.696   6.227   3.513 -0.7883  0.8654 -0.3444
   28MOL   C245 8399   0.639   6.341   3.723 -0.1380  0.6706 -0.4555
   28MOL   O246 8400   0.756   6.381   3.721  0.4749 -0.1040 -0.0439
   28MOL   O247 8401   0.552   6.361   3.823 -0.1351  0.0594 -0.3769
   28MOL   C248 8402   0.583   6.448   3.922  0.0078 -1.0582  0.5455
   28MOL   H249 8403   0.409   6.248   3.490  0.2683  1.2014 -1.1061
   28MOL   H250 8404   0.389   6.347   3.628  1.1087 -0.3703  0.5953
   28MOL   H251 8405   0.732   6.318   3.465 -0.2678  0.2899 -1.0381
   28MOL   H252 8406   0.779   6.184   3.568 -0.1447  2.2705 -0.1896
   28MOL   H253 8407   0.656   6.159   3.438 -1.3086 -0.1324  0.8259
   28MOL   H254 8408   0.690   6.441   3.943 -0.1374 -1.5154  1.1409
   28MOL   H255 8409   0.516   6.432   4.007 -0.9073  1.4542  0.3409
   28MOL   H256 8410   0.555   6.540   3.871 -1.5661 -2.4371 -1.1586
   28MOL   C257 8411   0.531   6.117   3.680 -0.0842  1.0534 -0.4858
   28MOL   C258 8412   0.612   5.998   3.743 -0.1656  0.5971  0.3939
   28MOL   C259 8413   0.706   6.051   3.855 -0.3489 -0.3368  0.1915
   28MOL   C260 8414   0.507   5.903   3.809 -0.6802  0.3525 -0.8881
   28MOL   O261 8415   0.506   5.880   3.934 -0.0166  0.6077 -0.2875
   28MOL   O262 8416   0.431   5.849   3.722  0.1047 -0.2615  0.3437
   28MOL   C263 8417   0.328   5.763   3.760 -0.3864  0.0345 -0.0756
   28MOL   H264 8418   0.460   6.082   3.605  0.7704  1.1860 -1.3607
   28MOL   H265 8419   0.459   6.143   3.758  0.0132 -1.7913  0.6018
   28MOL   H266 8420   0.641   6.120   3.909 -1.9468 -0.7663 -1.1404
   28MOL   H267 8421   0.734   5.973   3.926  2.2600  2.0321  1.9023
   28MOL   H268 8422   0.796   6.098   3.816 -0.8143 -0.5271 -1.1368
   28MOL   H269 8423   0.254   5.792   3.835 -0.7856 -2.0610  0.3594
   28MOL   H270 8424   0.367   5.677   3.814 -1.2070 -0.7008 -0.6354
   28MOL   H271 8425   0.270   5.732   3.673  1.4289 -4.1149  0.1197
   28MOL   C272 8426   0.693   5.923   3.624  0.2682 -0.2290 -0.1029
   28MOL   C273 8427   0.780   5.791   3.641 -0.0357  0.3202 -0.0579
   28MOL   C274 8428   0.882   5.772   3.521  0.2953  0.5237  0.1548
   28MOL   C275 8429   0.866   5.789   3.767 -0.5258 -0.2575 -0.6615
   28MOL   O276 8430   0.833   5.719   3.865  0.1108 -0.1206 -0.1340
   28MOL   O277 8431   0.955   5.891   3.773  0.2739 -0.3219  0.3358
   28MOL   C278 8432   1.010   5.925   3.900  0.1466 -0.5735 -0.2095
   28MOL   H279 8433   0.776   5.985   3.588 -0.3878  0.8956  0.3079
   28MOL   H280 8434   0.627   5.923   3.537  0.7965 -2.0324 -0.5332
   28MOL   H281 8435   0.935   5.678   3.537 -1.1691 -0.0883  1.5994
   28MOL   H282 8436   0.832   5.751   3.426 -2.8720 -2.2918  2.3201
   28MOL   H283 8437   0.949   5.854   3.497  1.4191 -0.4609 -0.1318
   28MOL   H284 8438   1.113   5.889   3.904  0.4655 -0.1246 -3.0867
   28MOL   H285 8439   0.953   5.883   3.982 -0.6819  0.5176 -0.2076
   28MOL   H286 8440   1.004   6.034   3.909  1.7720 -0.5698  1.0058
   28MOL   C287 8441   0.678   5.669   3.643 -0.5623 -0.6247  0.8872
   28MOL   C288 8442   0.736   5.522   3.650  0.8703 -0.6748 -0.3637
   28MOL   C289 8443   0.630   5.428   3.715  0.5014  0.0420 -0.2285
   28MOL   C290 8444   0.792   5.465   3.516 -0.0871  0.2401  0.0472
   28MOL   O291 8445   0.904   5.409   3.508  0.4211  0.6296 -0.0759
   28MOL   O292 8446   0.708   5.470   3.410 -0.0220 -0.4473  0.1718
   28MOL   C293 8447   0.735   5.434   3.279 -0.3995  0.2017 -0.5827
   28MOL   H294 8448   0.610   5.685   3.559 -0.5677  0.7706  1.1367
   28MOL   H295 8449   0.608   5.679   3.726  0.3520  3.1159  1.2999
   28MOL   H296 8450   0.539   5.413   3.656  1.0634 -0.6412 -0.9457
   28MOL   H297 8451   0.673   5.330   3.735  0.0612 -0.6634 -2.5509
   28MOL   H298 8452   0.601   5.459   3.815 -1.5811  2.6775 -1.5797
   28MOL   H299 8453   0.824   5.492   3.253  0.7662 -1.1755  0.2085
   28MOL   H300 8454   0.653   5.459   3.212 -0.4164 -0.1171 -0.6843
   28MOL   H301 8455   0.766   5.330   3.282  3.0894  1.1622 -0.9186
   28MOL   H302 8456   0.821   5.518   3.718  0.3550 -0.5331  0.2801
   29MOL     C1 8457   3.694   4.572   0.705  0.3043  0.1933  0.1822
   29MOL     C2 8458   3.645   4.606   0.849 -0.2047  0.9055 -0.2115
   29MOL     C3 8459   3.759   4.705   0.896 -0.7926  0.5036  0.4178
   29MOL     C4 8460   3.515   4.688   0.845  0.1833  0.1656 -0.2929
   29MOL     O5 8461   3.440   4.688   0.748  0.2207 -0.4568  0.0470
   29MOL     O6 8462   3.496   4.758   0.964  0.5373  0.0955  0.1488
   29MOL     C7 8463   3.370   4.828   0.983 -1.7134  0.2500 -0.1333
   29MOL     H8 8464   3.613   4.541   0.639  0.3022  0.2503  0.1581
   29MOL     H9 8465   3.725   4.667   0.662 -2.1617  1.8798  1.9393
   29MOL    H10 8466   3.762   4.721   1.004 -0.4895  2.0845  0.1994
   29MOL    H11 8467   3.857   4.681   0.858 -0.4695 -1.4054  2.3540
   29MOL    H12 8468   3.731   4.799   0.848  1.1808  1.2077  0.6221
   29MOL    H13 8469   3.360   4.886   1.075 -0.7208  0.5475 -0.2038
   29MOL    H14 8470   3.293   4.753   0.964 -0.0366 -1.4976 -0.1619
   29MOL    H15 8471   3.366   4.891   0.894 -0.3806  0.1814 -0.2475
   29MOL    H16 8472   3.776   4.500   0.704 -0.8142 -1.1218  0.6574
   29MOL    C17 8473   3.632   4.481   0.942  0.3279  0.0124 -0.1696
   29MOL    C18 8474   3.506   4.382   0.963 -0.8677 -0.4682 -0.1237
   29MOL    C19 8475   3.379   4.459   0.999  0.1282 -0.0469 -1.0361
   29MOL    C20 8476   3.472   4.303   0.836  0.2236  0.0540 -0.3967
   29MOL    O21 8477   3.536   4.319   0.731 -0.1878  0.0998  0.1315
   29MOL    O22 8478   3.360   4.232   0.842  0.2337  0.0237 -0.3201
   29MOL    C23 8479   3.344   4.135   0.739  0.0322  0.0799  0.3405
   29MOL    H24 8480   3.641   4.523   1.042  1.8667 -0.5854 -0.0459
   29MOL    H25 8481   3.719   4.417   0.928 -0.3060 -0.9025  0.0119
   29MOL    H26 8482   3.313   4.396   1.059  3.1224 -0.3190  2.0757
   29MOL    H27 8483   3.406   4.538   1.069  0.4863  0.1307 -1.3741
   29MOL    H28 8484   3.329   4.501   0.911 -1.2754  2.0909  0.7186
   29MOL    H29 8485   3.435   4.079   0.719  0.3714  1.1257 -1.0957
   29MOL    H30 8486   3.327   4.188   0.646 -0.0305 -2.2102 -0.9837
   29MOL    H31 8487   3.261   4.065   0.748 -0.3024  0.5725  1.2039
   29MOL    C32 8488   3.527   4.285   1.093  0.3523 -0.4665 -0.2319
   29MOL    C33 8489   3.648   4.190   1.108 -0.3101  0.7230 -0.3200
   29MOL    C34 8490   3.684   4.118   0.975 -0.5128 -0.3871 -0.8425
   29MOL    C35 8491   3.776   4.263   1.159  0.2646 -0.4547 -0.2067
   29MOL    O36 8492   3.785   4.383   1.169 -0.0747  0.2847 -0.6438
   29MOL    O37 8493   3.880   4.191   1.186 -0.1681 -0.3669 -0.2457
   29MOL    C38 8494   4.002   4.250   1.219 -0.2560  0.1533 -0.1187
   29MOL    H39 8495   3.445   4.215   1.085 -1.4324  1.6282 -0.7097
   29MOL    H40 8496   3.504   4.335   1.188  0.6582 -0.2946 -0.2452
   29MOL    H41 8497   3.599   4.077   0.921 -0.5992 -1.8315  0.3844
   29MOL    H42 8498   3.729   4.189   0.905 -0.3762 -1.4434 -1.8545
   29MOL    H43 8499   3.758   4.039   0.988  0.0063  0.3170  0.6130
   29MOL    H44 8500   4.030   4.338   1.162  1.5467  0.3045  0.9673
   29MOL    H45 8501   4.073   4.167   1.213 -0.4228 -0.1776  2.0829
   29MOL    H46 8502   4.000   4.284   1.322 -1.7335  2.6799 -0.9452
   29MOL    C47 8503   3.608   4.069   1.200 -0.1812 -0.0196 -0.0921
   29MOL    C48 8504   3.557   4.092   1.349  0.7314  0.4166 -0.0387
   29MOL    C49 8505   3.639   4.192   1.430 -0.2913  0.2483  0.0879
   29MOL    C50 8506   3.411   4.163   1.348 -0.3793  0.4700 -0.4054
   29MOL    O51 8507   3.400   4.278   1.387 -0.1091 -0.2251 -0.2410
   29MOL    O52 8508   3.313   4.094   1.301  0.5713  0.7327  0.0371
   29MOL    C53 8509   3.196   4.162   1.254 -0.1027 -0.1785 -0.0948
   29MOL    H54 8510   3.687   3.995   1.204  1.8592  2.0272 -1.3386
   29MOL    H55 8511   3.528   4.017   1.148  1.8394 -0.9289 -2.3776
   29MOL    H56 8512   3.743   4.165   1.418  0.5497  2.0638  2.8209
   29MOL    H57 8513   3.632   4.297   1.401 -0.5439  0.0971 -0.3976
   29MOL    H58 8514   3.630   4.193   1.539  2.8411  1.2560  0.3794
   29MOL    H59 8515   3.125   4.087   1.219  1.1173 -1.8153  0.8590
   29MOL    H60 8516   3.226   4.218   1.165  0.0622  0.2114  0.2067
   29MOL    H61 8517   3.165   4.240   1.323 -0.0098 -1.0821  0.9881
   29MOL    C62 8518   3.538   3.955   1.424 -0.4090 -0.2666 -0.3243
   29MOL    C63 8519   3.654   3.873   1.505 -0.6607 -0.7678 -0.1238
   29MOL    C64 8520   3.776   3.846   1.411  0.3404  0.0431  0.5366
   29MOL    C65 8521   3.702   3.950   1.635  0.3809 -0.3361 -0.3016
   29MOL    O66 8522   3.820   3.968   1.671  0.5947 -0.0129 -0.1477
   29MOL    O67 8523   3.594   4.004   1.697 -0.3047  0.1254  0.5797
   29MOL    C68 8524   3.617   4.083   1.816  0.5475  0.7346  0.4992
   29MOL    H69 8525   3.486   3.887   1.357 -0.4770 -0.9181  0.3734
   29MOL    H70 8526   3.453   3.963   1.493  1.0945  0.4323  1.5118
   29MOL    H71 8527   3.822   3.926   1.352  3.3701 -2.1295 -0.1606
   29MOL    H72 8528   3.863   3.817   1.470  2.3265 -0.9959 -2.7040
   29MOL    H73 8529   3.761   3.757   1.349  1.5455  0.3777 -0.2590
   29MOL    H74 8530   3.634   4.187   1.787 -0.4032  0.3399 -1.5813
   29MOL    H75 8531   3.697   4.047   1.880  0.9771  1.5751  0.4464
   29MOL    H76 8532   3.525   4.084   1.874 -0.3653 -0.6163 -0.8759
   29MOL    C77 8533   3.580   3.736   1.540 -0.0266 -0.0306 -0.3896
   29MOL    C78 8534   3.632   3.627   1.647 -0.0998 -0.4068  0.1597
   29MOL    C79 8535   3.535   3.509   1.623 -0.1996  0.1917  0.2348
   29MOL    C80 8536   3.777   3.589   1.603  0.2054  0.9392 -0.2097
   29MOL    O81 8537   3.872   3.608   1.679  0.5522  0.0049 -0.0593
   29MOL    O82 8538   3.779   3.527   1.473  0.6765  0.5753  0.5923
   29MOL    C83 8539   3.906   3.498   1.423  0.5568  0.1256  0.6206
   29MOL    H84 8540   3.577   3.692   1.441  1.4075 -1.4564  0.1712
   29MOL    H85 8541   3.473   3.752   1.553  0.2030  0.1553  1.4901
   29MOL    H86 8542   3.528   3.481   1.518 -2.2642  1.3955  0.0038
   29MOL    H87 8543   3.569   3.416   1.669  0.0710 -0.3472 -1.0486
   29MOL    H88 8544   3.429   3.522   1.646 -0.0967  0.1362  0.7632
   29MOL    H89 8545   3.960   3.589   1.396  1.9794 -1.1614 -1.0351
   29MOL    H90 8546   3.890   3.452   1.325  3.0985 -1.9451  1.1209
   29MOL    H91 8547   3.976   3.442   1.486  0.3634 -1.4403 -0.5135
   29MOL    C92 8548   3.615   3.685   1.795 -0.1450 -0.0182  0.5448
   29MOL    C93 8549   3.602   3.599   1.923  0.4026 -0.4247  0.7703
   29MOL    C94 8550   3.449   3.574   1.936  0.6134  0.2481 -0.1545
   29MOL    C95 8551   3.679   3.465   1.911  0.0598 -0.5012 -0.3850
   29MOL    O96 8552   3.616   3.361   1.893  0.2940  0.0643 -0.0113
   29MOL    O97 8553   3.815   3.476   1.913 -0.6105  0.2118 -0.7618
   29MOL    C98 8554   3.903   3.363   1.912  0.2250 -0.0492 -0.1628
   29MOL    H99 8555   3.543   3.766   1.800  1.5414  1.6643 -1.4006
   29MOL   H100 8556   3.708   3.741   1.812  1.3011 -1.7768 -1.2990
   29MOL   H101 8557   3.431   3.510   2.022 -2.1360  1.5465  0.2757
   29MOL   H102 8558   3.379   3.658   1.941 -0.4499 -0.5835 -0.9121
   29MOL   H103 8559   3.412   3.520   1.849  0.6263 -0.8215  0.5012
   29MOL   H104 8560   3.933   3.335   1.811 -1.6268 -1.3891 -0.3591
   29MOL   H105 8561   3.864   3.282   1.973  0.4000  0.1785  0.2482
   29MOL   H106 8562   3.995   3.401   1.957 -1.3739  0.8023  2.5084
   29MOL   C107 8563   3.658   3.676   2.041 -0.6591  0.5649 -0.0539
   29MOL   C108 8564   3.604   3.654   2.190  0.0738 -0.4369 -0.3144
   29MOL   C109 8565   3.461   3.697   2.200  0.7599 -0.1260  0.1945
   29MOL   C110 8566   3.622   3.505   2.235 -0.3352  0.0569  0.3327
   29MOL   O111 8567   3.527   3.440   2.275 -0.6356  0.5710  0.3231
   29MOL   O112 8568   3.745   3.453   2.223 -0.2112  0.1341  0.8013
   29MOL   C113 8569   3.758   3.321   2.263 -0.2559 -0.0595  0.3379
   29MOL   H114 8570   3.649   3.784   2.030  0.3232  0.6144 -0.4641
   29MOL   H115 8571   3.767   3.672   2.046 -0.6397  1.9201  0.9943
   29MOL   H116 8572   3.440   3.788   2.145 -0.8086  0.0827  1.1106
   29MOL   H117 8573   3.378   3.632   2.171  0.1242 -0.3490  2.4651
   29MOL   H118 8574   3.423   3.716   2.300 -0.2962 -2.9982  0.4012
   29MOL   H119 8575   3.703   3.293   2.353 -1.1890  1.2547  0.1887
   29MOL   H120 8576   3.865   3.304   2.276  0.0530  0.8689 -0.8807
   29MOL   H121 8577   3.738   3.255   2.179 -0.5802 -0.3689  0.6541
   29MOL   C122 8578   3.690   3.735   2.291 -0.1510 -0.2489  0.5244
   29MOL   C123 8579   3.735   3.883   2.291 -0.3274  0.2510 -0.7204
   29MOL   C124 8580   3.847   3.903   2.185 -0.5775 -0.0203 -0.2244
   29MOL   C125 8581   3.617   3.981   2.260 -0.4420  0.0715 -1.0092
   29MOL   O126 8582   3.624   4.046   2.157 -0.1036 -0.4206  0.7561
   29MOL   O127 8583   3.514   3.989   2.338  0.4535 -0.3062 -0.4736
   29MOL   C128 8584   3.405   4.071   2.319 -0.7305 -0.2370  0.0670
   29MOL   H129 8585   3.778   3.674   2.309 -1.1755 -1.4628  1.5510
   29MOL   H130 8586   3.632   3.712   2.381  0.1890 -2.8105  0.1275
   29MOL   H131 8587   3.930   3.833   2.189  0.2699  0.9250 -0.9205
   29MOL   H132 8588   3.826   3.898   2.079 -1.4265  0.3229 -0.0746
   29MOL   H133 8589   3.895   4.001   2.187  1.7554 -1.1281 -0.2065
   29MOL   H134 8590   3.319   4.038   2.377 -2.3798  0.7734 -1.7355
   29MOL   H135 8591   3.362   4.076   2.219 -1.3222 -2.0628  0.2052
   29MOL   H136 8592   3.431   4.169   2.359  1.4500 -0.5726 -0.4785
   29MOL   C137 8593   3.798   3.929   2.423  0.6321  0.0073 -0.2113
   29MOL   C138 8594   3.766   3.884   2.573  0.7546 -0.1293 -0.0957
   29MOL   C139 8595   3.615   3.896   2.604  0.0667 -0.1610 -0.2914
   29MOL   C140 8596   3.811   3.734   2.589  0.5864  0.0659  0.3352
   29MOL   O141 8597   3.907   3.688   2.526  0.8578  0.2300 -0.2713
   29MOL   O142 8598   3.741   3.672   2.676 -1.2621 -0.8147 -0.5321
   29MOL   C143 8599   3.779   3.546   2.719 -0.1626  0.2197 -0.0873
   29MOL   H144 8600   3.809   4.037   2.412  0.3918 -0.2034 -2.9825
   29MOL   H145 8601   3.901   3.897   2.407  0.5300  0.6424 -2.2700
   29MOL   H146 8602   3.581   3.876   2.706  0.0174  1.2434 -0.0221
   29MOL   H147 8603   3.599   4.002   2.588  1.4821  0.1203  0.0677
   29MOL   H148 8604   3.560   3.835   2.533  0.0288  1.7469 -1.9152
   29MOL   H149 8605   3.878   3.544   2.763 -0.3794 -1.0870  0.3738
   29MOL   H150 8606   3.796   3.484   2.631  1.5890  1.7733 -0.8674
   29MOL   H151 8607   3.704   3.510   2.789  1.4874 -1.0874  1.0350
   29MOL   C152 8608   3.852   3.989   2.663 -0.1609  1.1774 -0.6897
   29MOL   C153 8609   3.887   3.973   2.817  0.0816 -0.1235  0.2589
   29MOL   C154 8610   3.754   3.943   2.891  0.1834 -0.2014  0.7685
   29MOL   C155 8611   3.992   3.853   2.842  0.2922 -0.2648 -0.4462
   29MOL   O156 8612   4.048   3.798   2.753 -0.4217 -0.0896  0.1389
   29MOL   O157 8613   4.017   3.833   2.976  0.2690 -0.9892 -0.4711
   29MOL   C158 8614   4.099   3.724   3.016  0.2878  0.1598 -0.4007
   29MOL   H159 8615   3.797   4.081   2.641 -0.2220  1.8925  2.3135
   29MOL   H160 8616   3.952   4.005   2.623  1.8366 -3.3197  2.1802
   29MOL   H161 8617   3.672   4.006   2.855  1.2982 -0.5421 -2.4693
   29MOL   H162 8618   3.726   3.839   2.875  0.3224 -0.3495  1.4676
   29MOL   H163 8619   3.769   3.947   2.999 -0.0797 -1.3618  0.8551
   29MOL   H164 8620   4.199   3.754   2.985  0.2549 -2.2509 -2.9682
   29MOL   H165 8621   4.063   3.635   2.965 -0.4998  0.8518 -1.0771
   29MOL   H166 8622   4.106   3.699   3.122 -0.4769  0.1205 -0.3555
   29MOL   C167 8623   3.933   4.115   2.875 -0.0832  0.1138 -0.8146
   29MOL   C168 8624   4.048   4.208   2.814  0.6640 -1.0269 -0.0992
   29MOL   C169 8625   4.179   4.121   2.796  0.2573 -0.3461 -0.2657
   29MOL   C170 8626   3.998   4.269   2.683  0.3831  0.0024  0.2571
   29MOL   O171 8627   4.066   4.257   2.579 -0.6008 -0.4003  0.6859
   29MOL   O172 8628   3.879   4.332   2.695 -0.1475  0.1090 -0.2610
   29MOL   C173 8629   3.811   4.367   2.573 -0.1637 -1.1479 -0.6137
   29MOL   H174 8630   3.970   4.094   2.976 -0.0234  1.9081 -0.4516
   29MOL   H175 8631   3.839   4.169   2.886 -1.1989 -1.8177 -0.5877
   29MOL   H176 8632   4.166   4.038   2.728 -0.4171  1.3386 -2.2516
   29MOL   H177 8633   4.260   4.181   2.753  1.2322 -0.3403  1.5285
   29MOL   H178 8634   4.215   4.090   2.894 -0.3303  2.5023  0.9204
   29MOL   H179 8635   3.732   4.435   2.606 -0.0325 -0.7881 -1.0398
   29MOL   H180 8636   3.761   4.285   2.523 -2.0191 -0.2310 -0.3320
   29MOL   H181 8637   3.874   4.430   2.510  2.4951 -1.0897  2.0012
   29MOL   C182 8638   4.078   4.306   2.932 -0.0129  0.4865 -0.2064
   29MOL   C183 8639   4.167   4.436   2.932 -0.1765  0.0638  0.4970
   29MOL   C184 8640   4.122   4.533   2.815  0.2146 -0.3825  0.7328
   29MOL   C185 8641   4.159   4.507   3.071  0.1124  1.0006 -0.2951
   29MOL   O186 8642   4.117   4.618   3.079  0.7099  0.5480 -0.0597
   29MOL   O187 8643   4.198   4.431   3.173  0.2296 -0.1166 -0.7523
   29MOL   C188 8644   4.184   4.478   3.305 -0.1387 -0.2573 -1.9544
   29MOL   H189 8645   4.121   4.246   3.013 -0.8813  0.5797  0.3218
   29MOL   H190 8646   3.990   4.345   2.983  1.2255  2.3338  0.5674
   29MOL   H191 8647   4.172   4.630   2.827  0.2568  0.0219 -2.2737
   29MOL   H192 8648   4.142   4.492   2.716 -1.3575  2.8964 -1.0348
   29MOL   H193 8649   4.015   4.554   2.816  1.0526  4.8332 -0.6559
   29MOL   H194 8650   4.081   4.504   3.327  1.1203  1.4807  2.4007
   29MOL   H195 8651   4.235   4.575   3.309 -1.1613  0.1942  1.3656
   29MOL   H196 8652   4.215   4.403   3.377 -2.2841  0.3826 -0.3132
   29MOL   C197 8653   4.315   4.387   2.897  0.4165 -0.8225 -0.0697
   29MOL   C198 8654   4.454   4.463   2.917 -0.6789  0.1007  0.2831
   29MOL   C199 8655   4.436   4.612   2.875 -0.2141  0.5759 -0.1744
   29MOL   C200 8656   4.485   4.455   3.067 -0.2760  0.5413  0.1651
   29MOL   O201 8657   4.479   4.554   3.141 -0.7554  0.1973 -0.2819
   29MOL   O202 8658   4.503   4.327   3.106  0.3266  0.3294 -0.5644
   29MOL   C203 8659   4.519   4.306   3.239  0.0089 -0.1233  0.0146
   29MOL   H204 8660   4.312   4.369   2.790  0.6754 -3.4867  0.3546
   29MOL   H205 8661   4.324   4.295   2.955 -0.0672  0.4091  2.0174
   29MOL   H206 8662   4.528   4.668   2.894 -0.7488  1.4711 -0.2299
   29MOL   H207 8663   4.401   4.615   2.772 -1.9948 -1.0808  0.3471
   29MOL   H208 8664   4.362   4.664   2.935 -0.1809  2.8453 -2.0448
   29MOL   H209 8665   4.554   4.209   3.275 -1.6786 -0.8812 -0.3028
   29MOL   H210 8666   4.421   4.316   3.286  0.7560  0.9856  1.3612
   29MOL   H211 8667   4.592   4.381   3.268  0.6627  0.2404 -2.4227
   29MOL   C212 8668   4.559   4.387   2.823 -0.1344  0.1201  0.3382
   29MOL   C213 8669   4.707   4.445   2.785  0.9440 -0.4106 -0.3730
   29MOL   C214 8670   4.681   4.530   2.654 -0.4796  0.2668 -0.1425
   29MOL   C215 8671   4.761   4.535   2.899  0.8450  0.4912  0.5147
   29MOL   O216 8672   4.809   4.648   2.869 -0.1912  0.1119 -0.4732
   29MOL   O217 8673   4.770   4.487   3.020 -0.8551 -0.0492 -0.1230
   29MOL   C218 8674   4.815   4.568   3.122  0.4569  0.5175 -0.2481
   29MOL   H219 8675   4.512   4.373   2.725  1.4493  0.4180 -0.4714
   29MOL   H220 8676   4.563   4.285   2.863  0.2649 -0.1621 -0.4196
   29MOL   H221 8677   4.651   4.476   2.564  1.1387 -0.4101 -0.2802
   29MOL   H222 8678   4.596   4.596   2.673 -0.2761  0.5008 -0.0471
   29MOL   H223 8679   4.763   4.597   2.628 -0.6573  0.7290  0.4706
   29MOL   H224 8680   4.752   4.652   3.153  0.4525  1.0172 -1.5848
   29MOL   H225 8681   4.908   4.613   3.086 -0.3652  1.1419 -1.6199
   29MOL   H226 8682   4.836   4.501   3.205  2.6555 -0.1194 -1.2933
   29MOL   C227 8683   4.796   4.321   2.745  0.7798  0.5090 -0.7399
   29MOL   C228 8684   4.949   4.311   2.719 -0.4724 -0.7167 -1.2052
   29MOL   C229 8685   4.974   4.413   2.614  0.2524 -0.4285 -0.1681
   29MOL   C230 8686   5.027   4.343   2.854  0.1091 -0.3671 -0.6182
   29MOL   O231 8687   5.131   4.408   2.856 -0.0273  0.2045 -0.1160
   29MOL   O232 8688   4.975   4.276   2.957  0.0667  0.4093 -0.5743
   29MOL   C233 8689   5.033   4.289   3.083 -0.2181 -0.4787  0.1656
   29MOL   H234 8690   4.764   4.282   2.649 -0.2450 -1.3539  0.3115
   29MOL   H235 8691   4.766   4.241   2.813 -3.2415  2.9220  0.5238
   29MOL   H236 8692   5.071   4.399   2.567  0.6349  0.3898  0.3660
   29MOL   H237 8693   4.910   4.396   2.527  0.7968  0.8556 -0.8336
   29MOL   H238 8694   4.970   4.516   2.649  1.9720 -0.2287 -0.5431
   29MOL   H239 8695   5.136   4.254   3.091 -0.4036 -0.7798  1.4047
   29MOL   H240 8696   4.967   4.238   3.153 -0.3790  0.6282  0.8267
   29MOL   H241 8697   5.022   4.392   3.118  0.0301 -0.0903 -0.8644
   29MOL   C242 8698   4.982   4.168   2.662 -0.3522 -0.0915 -0.3316
   29MOL   C243 8699   5.128   4.090   2.645 -0.7014 -0.1771  0.1859
   29MOL   C244 8700   5.073   3.952   2.604  0.4050  0.5589  0.2256
   29MOL   C245 8701   5.195   4.151   2.521  0.3806 -0.1503  0.5865
   29MOL   O246 8702   5.191   4.087   2.413 -0.0415 -0.4924  0.3282
   29MOL   O247 8703   5.250   4.274   2.531 -0.2797 -0.3451  0.1864
   29MOL   C248 8704   5.294   4.331   2.410 -0.2897 -0.5053 -0.0699
   29MOL   H249 8705   4.942   4.166   2.560  0.1372 -1.5266 -0.5140
   29MOL   H250 8706   4.910   4.101   2.709 -1.4516 -0.0513 -1.9258
   29MOL   H251 8707   5.027   3.899   2.687  0.1720 -0.4315 -0.5255
   29MOL   H252 8708   5.009   3.933   2.518  0.5213 -1.1105  0.4888
   29MOL   H253 8709   5.154   3.886   2.573 -1.1348 -0.9883 -0.6091
   29MOL   H254 8710   5.351   4.424   2.422 -0.4207 -0.4109 -0.1764
   29MOL   H255 8711   5.210   4.373   2.354  1.3582  1.3158 -1.2634
   29MOL   H256 8712   5.350   4.257   2.353  0.0869  0.2481 -0.7006
   29MOL   C257 8713   5.204   4.100   2.779  0.1553  0.5696 -0.5933
   29MOL   C258 8714   5.338   4.017   2.812  0.0903 -1.1800 -0.3316
   29MOL   C259 8715   5.384   4.071   2.944  0.2023 -0.2323  0.3583
   29MOL   C260 8716   5.293   3.874   2.829 -0.5260  0.1413 -0.0275
   29MOL   O261 8717   5.329   3.781   2.756 -0.0867  0.1297 -0.3068
   29MOL   O262 8718   5.211   3.870   2.945 -0.2364  0.2204  0.0746
   29MOL   C263 8719   5.134   3.745   2.965  0.3035  0.2881 -0.3373
   29MOL   H264 8720   5.133   4.072   2.856  0.3098  0.3899 -0.5165
   29MOL   H265 8721   5.244   4.201   2.787  0.2990  0.3668  1.4267
   29MOL   H266 8722   5.429   4.168   2.920 -1.1846 -0.1934 -2.2380
   29MOL   H267 8723   5.300   4.087   3.013  0.3042  0.2988  0.3663
   29MOL   H268 8724   5.446   3.995   2.991 -1.2748 -0.5078  1.9443
   29MOL   H269 8725   5.189   3.659   2.927  0.1816 -1.9333  4.2059
   29MOL   H270 8726   5.038   3.743   2.914 -0.1887  2.2866  0.4787
   29MOL   H271 8727   5.113   3.721   3.069  2.3003 -0.9198 -0.1875
   29MOL   C272 8728   5.450   4.042   2.697  0.2653  0.0646 -0.4987
   29MOL   C273 8729   5.607   4.041   2.727 -0.3245  0.0520  0.3141
   29MOL   C274 8730   5.657   4.191   2.774 -0.5058 -0.0063  0.4112
   29MOL   C275 8731   5.651   3.945   2.839  0.9460  0.3031 -0.4167
   29MOL   O276 8732   5.729   3.980   2.932  0.7348 -0.2349 -0.9104
   29MOL   O277 8733   5.613   3.818   2.829 -0.1721  0.0654 -0.4433
   29MOL   C278 8734   5.668   3.723   2.928 -0.2437  0.8994  0.3476
   29MOL   H279 8735   5.422   4.134   2.646 -2.5601  0.4048  1.5632
   29MOL   H280 8736   5.426   3.965   2.624  0.9294  0.2519 -0.9201
   29MOL   H281 8737   5.623   4.270   2.708  1.2641 -0.1940 -0.7318
   29MOL   H282 8738   5.619   4.217   2.873 -3.6395  0.4638 -0.8521
   29MOL   H283 8739   5.765   4.193   2.785 -0.3923  0.9143 -0.7470
   29MOL   H284 8740   5.632   3.621   2.911  0.9144  0.7751 -1.5707
   29MOL   H285 8741   5.630   3.734   3.029 -1.9860 -0.0064 -0.1924
   29MOL   H286 8742   5.777   3.723   2.931 -0.2607  0.9069  0.9144
   29MOL   C287 8743   5.676   4.011   2.594 -0.2241  0.6133  0.0945
   29MOL   C288 8744   5.669   3.868   2.524 -0.1909  0.5577  0.0212
   29MOL   C289 8745   5.700   3.885   2.378 -0.4753 -0.7014 -0.0466
   29MOL   C290 8746   5.772   3.775   2.580  0.7832  0.3630  0.4399
   29MOL   O291 8747   5.882   3.827   2.607 -0.0538 -0.0556 -0.0294
   29MOL   O292 8748   5.735   3.645   2.594 -0.2154 -0.2969 -0.2672
   29MOL   C293 8749   5.832   3.541   2.641  0.9884  0.5533 -0.8274
   29MOL   H294 8750   5.780   4.040   2.602 -0.0049 -0.8114  3.0901
   29MOL   H295 8751   5.638   4.087   2.525  0.9163  1.8697  0.8157
   29MOL   H296 8752   5.613   3.933   2.332 -0.0273 -0.3994 -0.5819
   29MOL   H297 8753   5.781   3.957   2.364  1.6209 -3.4077 -2.4824
   29MOL   H298 8754   5.722   3.794   2.322 -1.1150 -0.3363 -0.9013
   29MOL   H299 8755   5.797   3.461   2.705 -1.7004  2.0927 -0.2831
   29MOL   H300 8756   5.917   3.583   2.695 -0.6408 -0.1060  2.3777
   29MOL   H301 8757   5.878   3.498   2.552  2.0149 -0.2825  0.1050
   29MOL   H302 8758   5.569   3.826   2.532 -1.0266  2.1887 -1.4329
   30MOL     C1 8759   1.632   3.945   7.877 -0.8029 -0.5862  0.3017
   30MOL     C2 8760   1.481   3.953   0.025  0.8693  0.5583 -0.4986
   30MOL     C3 8761   1.425   3.825   7.838  0.1549 -0.2941 -1.3305
   30MOL     C4 8762   1.451   3.959   0.176  0.1704 -0.6802 -0.0434
   30MOL     O5 8763   1.537   3.987   0.263  0.2430  0.0739  0.2227
   30MOL     O6 8764   1.322   3.927   0.202 -0.3964  0.2329  0.6309
   30MOL     C7 8765   1.262   3.980   0.316 -0.8851  0.5559 -0.0829
   30MOL     H8 8766   1.665   3.847   0.033  0.7284  0.2507  1.2747
   30MOL     H9 8767   1.664   3.953   7.774  2.2039 -0.1245  1.2337
   30MOL    H10 8768   1.456   3.809   7.735 -0.0332 -2.6573 -1.0487
   30MOL    H11 8769   1.460   3.738   0.016 -0.5457  0.7234  0.7622
   30MOL    H12 8770   1.317   3.811   7.851  0.0562  0.4596 -1.3359
   30MOL    H13 8771   1.277   4.088   0.325 -2.6587  0.5542  3.3919
   30MOL    H14 8772   1.289   3.925   0.406 -1.8376  0.8825  0.4021
   30MOL    H15 8773   1.155   3.964   0.311 -0.7792 -0.0999 -0.3377
   30MOL    H16 8774   1.675   4.030   0.051 -0.5088 -0.8141  0.4344
   30MOL    C17 8775   1.412   4.068   7.828  0.0728  0.1268 -0.0716
   30MOL    C18 8776   1.452   4.222   7.844 -0.2157  0.3999 -0.1255
   30MOL    C19 8777   1.463   4.262   0.120 -0.0191 -0.8873 -0.4332
   30MOL    C20 8778   1.589   4.248   7.784 -0.3824 -0.8606 -1.1001
   30MOL    O21 8779   1.634   4.182   7.693 -0.0522 -0.2127  0.0738
   30MOL    O22 8780   1.636   4.370   7.832  0.1181 -0.2875 -0.3133
   30MOL    C23 8781   1.760   4.413   7.787 -0.1037  0.1147  1.1678
   30MOL    H24 8782   1.310   4.054   7.865  0.1446 -1.1988 -0.3424
   30MOL    H25 8783   1.423   4.051   7.721 -0.4334  0.7396 -0.2269
   30MOL    H26 8784   1.387   4.217   0.183 -2.8289  0.1751 -2.9266
   30MOL    H27 8785   1.554   4.229   0.171 -0.6160  1.0332  1.9813
   30MOL    H28 8786   1.448   4.370   0.130 -2.3500 -1.2585  0.3119
   30MOL    H29 8787   1.755   4.481   7.703  0.3092 -0.4955  0.6361
   30MOL    H30 8788   1.829   4.330   7.771 -1.7782 -1.1994  0.6361
   30MOL    H31 8789   1.803   4.474   7.867 -1.0685  2.6596 -0.2137
   30MOL    C32 8790   1.340   4.309   7.789 -0.0442  0.4571 -0.0908
   30MOL    C33 8791   1.276   4.290   7.648  0.3415 -1.2432  0.0840
   30MOL    C34 8792   1.387   4.290   7.547 -0.0534 -0.1123 -0.4275
   30MOL    C35 8793   1.177   4.170   7.639 -0.6273  0.1867 -0.7569
   30MOL    O36 8794   1.172   4.090   7.543  0.1144  0.2139  0.7345
   30MOL    O37 8795   1.104   4.160   7.753  0.5815 -0.0407 -0.0369
   30MOL    C38 8796   1.013   4.051   7.757  0.2757 -0.2757 -0.4101
   30MOL    H39 8797   1.390   4.405   7.790  0.4736  0.1883  1.5170
   30MOL    H40 8798   1.262   4.300   7.865  0.2219  0.0658  0.1408
   30MOL    H41 8799   1.441   4.197   7.529  0.6404  0.3969 -1.0568
   30MOL    H42 8800   1.344   4.304   7.448 -0.5953 -0.1965 -0.2015
   30MOL    H43 8801   1.459   4.371   7.564  0.2491 -0.6415  0.8332
   30MOL    H44 8802   1.076   3.962   7.747  1.2963  0.4114 -0.0883
   30MOL    H45 8803   0.937   4.043   7.679 -0.6610 -2.6247  0.6724
   30MOL    H46 8804   0.964   4.046   7.855  1.3157 -1.4263  0.0736
   30MOL    C47 8805   1.184   4.425   7.638  0.6927 -0.0613 -0.5876
   30MOL    C48 8806   1.136   4.483   7.497  0.2454 -0.2093  0.1792
   30MOL    C49 8807   1.245   4.578   7.443 -0.3500 -0.5165  0.1015
   30MOL    C50 8808   1.106   4.380   7.387 -0.0789  0.5324 -0.0555
   30MOL    O51 8809   1.186   4.369   7.288 -0.2195 -0.8714  0.0743
   30MOL    O52 8810   1.008   4.297   7.413 -0.2805 -0.6777 -0.1785
   30MOL    C53 8811   0.979   4.193   7.326  0.0306  0.2375  0.1147
   30MOL    H54 8812   1.223   4.505   7.700  0.6937  0.0947 -0.7900
   30MOL    H55 8813   1.098   4.392   7.696  0.9165 -3.3069 -1.9595
   30MOL    H56 8814   1.213   4.637   7.357 -1.8283  0.0813  1.0435
   30MOL    H57 8815   1.278   4.640   7.525 -1.3679  2.2395 -1.5186
   30MOL    H58 8816   1.329   4.515   7.414 -0.4391 -0.4922 -0.2090
   30MOL    H59 8817   0.925   4.232   7.239 -0.1273 -0.2257  0.0005
   30MOL    H60 8818   0.905   4.132   7.377 -0.2231  1.5331  1.3075
   30MOL    H61 8819   1.072   4.143   7.299 -0.4169 -1.5458  1.7557
   30MOL    C62 8820   1.000   4.546   7.540 -0.8516 -0.2185 -0.1023
   30MOL    C63 8821   0.917   4.634   7.444 -0.1290 -0.1106 -0.4235
   30MOL    C64 8822   0.773   4.628   7.517  0.3797 -0.2244  0.1422
   30MOL    C65 8823   0.966   4.778   7.459 -0.3030  0.6388  0.1580
   30MOL    O66 8824   0.915   4.853   7.545 -0.6074  0.0450 -0.2609
   30MOL    O67 8825   1.065   4.814   7.383  0.1344 -0.5186 -0.4972
   30MOL    C68 8826   1.122   4.946   7.397 -0.0787  0.1801  0.3156
   30MOL    H69 8827   1.009   4.604   7.632 -1.2482  0.4401 -0.4771
   30MOL    H70 8828   0.939   4.458   7.561  0.8825 -0.9788  1.9382
   30MOL    H71 8829   0.717   4.719   7.496  1.8393  0.6891  0.1969
   30MOL    H72 8830   0.714   4.541   7.489  1.3509  0.5802 -4.8532
   30MOL    H73 8831   0.782   4.634   7.626 -4.4652  1.2139  0.5750
   30MOL    H74 8832   1.048   5.024   7.416 -1.2546 -1.4405  2.5547
   30MOL    H75 8833   1.172   4.974   7.304  0.5899 -1.2224  0.2412
   30MOL    H76 8834   1.199   4.958   7.473 -0.4885  1.4020  0.5513
   30MOL    C77 8835   0.904   4.590   7.295  0.4128  0.2842  0.1207
   30MOL    C78 8836   0.798   4.646   7.184 -0.4301 -0.3163  0.0585
   30MOL    C79 8837   0.811   4.540   7.072 -0.0350  0.1308 -0.0749
   30MOL    C80 8838   0.652   4.640   7.236  0.3025  0.2544  0.0833
   30MOL    O81 8839   0.585   4.537   7.229  0.5667  0.3817 -0.5021
   30MOL    O82 8840   0.610   4.752   7.287  0.0458  0.3311 -0.4570
   30MOL    C83 8841   0.475   4.776   7.321 -0.4841 -0.1214  0.8240
   30MOL    H84 8842   0.881   4.484   7.301  0.3663  0.2193 -1.0586
   30MOL    H85 8843   1.003   4.596   7.250  1.0895  1.5883  1.7255
   30MOL    H86 8844   0.776   4.440   7.098  1.4158 -0.4983 -0.5002
   30MOL    H87 8845   0.751   4.578   6.990 -0.2216 -1.8829 -0.8804
   30MOL    H88 8846   0.911   4.528   7.032 -0.7394 -1.3945 -1.4211
   30MOL    H89 8847   0.464   4.884   7.305  1.3852  0.0896  0.8433
   30MOL    H90 8848   0.444   4.745   7.421 -0.3580 -0.2657  0.8176
   30MOL    H91 8849   0.408   4.734   7.246 -1.3206  0.8857  1.0025
   30MOL    C92 8850   0.846   4.791   7.144  0.7982 -0.4121  0.5445
   30MOL    C93 8851   0.814   4.865   7.013 -1.0137 -0.2171  0.0332
   30MOL    C94 8852   0.929   4.817   6.912  0.2514 -1.0650 -0.2226
   30MOL    C95 8853   0.677   4.830   6.963 -0.2321 -1.0417  0.3709
   30MOL    O96 8854   0.664   4.780   6.850  0.7934  0.8889  0.1369
   30MOL    O97 8855   0.572   4.860   7.036  0.1103 -0.1251 -0.4694
   30MOL    C98 8856   0.436   4.858   6.975  0.3308  0.3818 -0.2677
   30MOL    H99 8857   0.954   4.797   7.160  0.5477  0.1067  2.1183
   30MOL   H100 8858   0.818   4.858   7.225 -0.5328  1.2907 -1.2563
   30MOL   H101 8859   0.918   4.801   6.805 -1.7957 -4.2453  0.3899
   30MOL   H102 8860   1.022   4.871   6.933  0.4311 -1.5938  0.3577
   30MOL   H103 8861   0.946   4.716   6.948  2.7717 -0.2309  1.0438
   30MOL   H104 8862   0.365   4.916   7.034  0.9870 -0.7865  1.7334
   30MOL   H105 8863   0.407   4.753   6.977 -0.5259  0.6247  0.0816
   30MOL   H106 8864   0.436   4.899   6.874 -0.2106 -0.6429 -0.6951
   30MOL   C107 8865   0.801   5.026   7.032 -0.6429 -0.2639 -0.1884
   30MOL   C108 8866   0.781   5.138   6.924  0.2462 -0.0829 -0.0438
   30MOL   C109 8867   0.881   5.124   6.796 -0.0710  0.1528 -0.4759
   30MOL   C110 8868   0.633   5.133   6.874  0.0099 -0.0300  0.2334
   30MOL   O111 8869   0.604   5.100   6.764  0.4673 -0.1287  0.8540
   30MOL   O112 8870   0.542   5.150   6.968 -1.2139 -0.1217  0.2779
   30MOL   C113 8871   0.409   5.184   6.921 -0.4907  0.6678 -0.4711
   30MOL   H114 8872   0.894   5.059   7.078 -0.1513 -0.4041 -1.0618
   30MOL   H115 8873   0.729   5.049   7.111  0.0283 -0.7639  0.5734
   30MOL   H116 8874   0.881   5.199   6.717 -1.0800  2.0797  1.3119
   30MOL   H117 8875   0.986   5.113   6.824 -0.4428  1.8441  1.7419
   30MOL   H118 8876   0.859   5.028   6.750  1.4025  0.6602 -2.3238
   30MOL   H119 8877   0.371   5.253   6.996 -0.3361  0.1184  0.1115
   30MOL   H120 8878   0.347   5.095   6.910 -0.2264  0.3970  0.2193
   30MOL   H121 8879   0.422   5.238   6.827  0.4576  0.3690 -0.5226
   30MOL   C122 8880   0.808   5.281   6.995 -0.1761 -0.2225 -0.1422
   30MOL   C123 8881   0.802   5.416   6.910 -0.7520 -0.4561  0.8291
   30MOL   C124 8882   0.692   5.428   6.802 -0.2373 -0.0720  0.1852
   30MOL   C125 8883   0.776   5.526   7.019  0.0385  0.4660  0.6189
   30MOL   O126 8884   0.676   5.595   7.003 -0.0797 -0.7017 -0.2599
   30MOL   O127 8885   0.862   5.540   7.115  0.4337  0.0904  0.3538
   30MOL   C128 8886   0.854   5.657   7.198 -0.5049 -0.4786 -0.6586
   30MOL   H129 8887   0.902   5.275   7.051 -1.1436 -2.1835  1.3231
   30MOL   H130 8888   0.730   5.289   7.071  0.0834 -1.9815  0.3222
   30MOL   H131 8889   0.677   5.522   6.748  1.8212 -0.4180 -1.0174
   30MOL   H132 8890   0.711   5.357   6.722 -1.4292 -2.5271  2.0224
   30MOL   H133 8891   0.597   5.395   6.844  1.0267 -0.4902  2.8147
   30MOL   H134 8892   0.750   5.686   7.209  0.1302  1.5348  0.2879
   30MOL   H135 8893   0.905   5.739   7.148 -0.3528  0.6589  1.3369
   30MOL   H136 8894   0.898   5.641   7.297 -1.3967 -1.9564 -0.4817
   30MOL   C137 8895   0.943   5.448   6.840 -0.1514  1.0912 -0.3391
   30MOL   C138 8896   0.980   5.546   6.723 -0.5512  1.1119 -0.4121
   30MOL   C139 8897   0.932   5.489   6.588 -0.0503  0.8598  0.5547
   30MOL   C140 8898   0.923   5.691   6.744  0.3032  0.4838  0.9577
   30MOL   O141 8899   0.854   5.747   6.657 -0.6580 -0.7349  0.6826
   30MOL   O142 8900   0.975   5.751   6.841 -0.3316  0.0570 -0.1091
   30MOL   C143 8901   0.911   5.866   6.901 -0.2035 -0.2344  0.3910
   30MOL   H144 8902   0.988   5.355   6.806 -0.1022  0.6581  0.8879
   30MOL   H145 8903   1.006   5.473   6.925  2.7360 -0.7986 -1.8480
   30MOL   H146 8904   0.823   5.491   6.585 -0.1479 -0.0984  2.3721
   30MOL   H147 8905   0.974   5.536   6.500 -1.8446  0.1937 -0.6800
   30MOL   H148 8906   0.959   5.384   6.588  3.5032  1.7260  1.1492
   30MOL   H149 8907   0.969   5.902   6.986  2.3423 -1.0743 -0.9566
   30MOL   H150 8908   0.805   5.852   6.924  0.0611 -0.7841  1.3114
   30MOL   H151 8909   0.900   5.949   6.831  1.6008 -1.6435 -1.6292
   30MOL   C152 8910   1.138   5.550   6.731  0.0273 -0.0064  0.5415
   30MOL   C153 8911   1.238   5.611   6.620 -0.8304 -0.1741 -0.3600
   30MOL   C154 8912   1.252   5.506   6.510 -0.8183 -0.0050 -0.1734
   30MOL   C155 8913   1.177   5.738   6.553  0.3313 -0.0629  0.0023
   30MOL   O156 8914   1.131   5.734   6.437 -0.3499  0.2427 -0.3305
   30MOL   O157 8915   1.179   5.846   6.630  0.0822 -0.1076  0.2974
   30MOL   C158 8916   1.138   5.968   6.577 -0.1148  0.0709 -0.1440
   30MOL   H159 8917   1.165   5.450   6.762  1.5660  0.6948  1.5193
   30MOL   H160 8918   1.158   5.612   6.819  0.6310 -0.5087  0.7571
   30MOL   H161 8919   1.162   5.473   6.458 -0.6053  1.6586 -1.6587
   30MOL   H162 8920   1.306   5.548   6.425  0.1884  0.6373  0.7742
   30MOL   H163 8921   1.304   5.420   6.551  0.4515  1.3727  1.1837
   30MOL   H164 8922   1.186   6.052   6.626  0.9324 -0.3275 -0.4720
   30MOL   H165 8923   1.031   5.981   6.590  0.1379  3.8484 -1.0807
   30MOL   H166 8924   1.154   5.985   6.470  5.0225  1.0749  0.6608
   30MOL   C167 8925   1.380   5.639   6.697 -0.2467  0.1346  0.0786
   30MOL   C168 8926   1.512   5.649   6.623 -0.1500 -0.2449 -0.1558
   30MOL   C169 8927   1.546   5.509   6.566 -0.3229  0.3359  0.1127
   30MOL   C170 8928   1.501   5.748   6.502  0.1915 -0.2177  0.7732
   30MOL   O171 8929   1.511   5.711   6.382 -0.4272 -0.0989 -0.5088
   30MOL   O172 8930   1.473   5.868   6.548 -0.4674  0.0341  1.1049
   30MOL   C173 8931   1.474   5.978   6.456  0.7181 -0.1187 -0.6175
   30MOL   H174 8932   1.382   5.553   6.764 -0.3886  0.0756  0.0046
   30MOL   H175 8933   1.372   5.732   6.753  1.0870  0.0387  0.4564
   30MOL   H176 8934   1.652   5.501   6.543  0.1829  0.3697  2.3249
   30MOL   H177 8935   1.521   5.429   6.637 -0.2430 -0.8672 -1.1835
   30MOL   H178 8936   1.498   5.473   6.475  0.0136 -0.0489  0.0848
   30MOL   H179 8937   1.574   5.991   6.414  0.7630 -0.2706 -0.5600
   30MOL   H180 8938   1.446   6.061   6.520 -0.7452 -2.7651  2.3091
   30MOL   H181 8939   1.400   5.962   6.378  0.3931  1.3098 -0.6061
   30MOL   C182 8940   1.630   5.707   6.720  0.0398 -0.0966  0.0634
   30MOL   C183 8941   1.699   5.631   6.836  0.0972 -0.6014 -0.5069
   30MOL   C184 8942   1.585   5.574   6.936  0.1132 -0.1202 -0.2160
   30MOL   C185 8943   1.793   5.509   6.790  0.5187 -0.7528  0.0330
   30MOL   O186 8944   1.868   5.523   6.695  0.9116  0.1866 -0.2194
   30MOL   O187 8945   1.780   5.397   6.866  0.1227 -0.2372  0.5945
   30MOL   C188 8946   1.849   5.272   6.832 -0.0220  0.1655 -0.8633
   30MOL   H189 8947   1.602   5.804   6.759  0.1621 -0.5860  1.3947
   30MOL   H190 8948   1.704   5.734   6.645  0.0273 -0.8493 -0.2259
   30MOL   H191 8949   1.518   5.644   6.987  2.3021 -0.1649  2.8681
   30MOL   H192 8950   1.526   5.496   6.887  2.3795 -1.3661 -1.0195
   30MOL   H193 8951   1.618   5.522   7.026  0.1205  0.1541 -0.0581
   30MOL   H194 8952   1.946   5.259   6.881  0.1476 -0.8082 -1.4381
   30MOL   H195 8953   1.861   5.261   6.724 -0.4545 -3.6118 -0.5697
   30MOL   H196 8954   1.789   5.184   6.856 -1.6922  0.8396 -2.4528
   30MOL   C197 8955   1.782   5.717   6.930 -0.4577 -0.1078 -0.1434
   30MOL   C198 8956   1.893   5.815   6.884  0.1033  0.5841 -0.1247
   30MOL   C199 8957   2.002   5.741   6.800  0.0382  0.0025 -0.4940
   30MOL   C200 8958   1.829   5.931   6.805  0.3659  0.0642  0.0590
   30MOL   O201 8959   1.731   5.992   6.843  0.0327 -0.1292  0.3119
   30MOL   O202 8960   1.886   5.961   6.690 -0.4166  0.7490 -0.1681
   30MOL   C203 8961   1.815   6.045   6.605  0.5782 -0.0535  0.7618
   30MOL   H204 8962   1.824   5.638   6.993 -0.1986  0.3787  0.3028
   30MOL   H205 8963   1.711   5.778   6.986  0.0538  0.9004 -0.5811
   30MOL   H206 8964   1.982   5.755   6.693 -0.1202 -0.4180 -0.5191
   30MOL   H207 8965   2.100   5.788   6.811 -1.0602  2.3739 -0.5678
   30MOL   H208 8966   2.017   5.638   6.831  1.1481  0.7627  1.6109
   30MOL   H209 8967   1.712   6.011   6.605  0.2628  0.7717 -2.4918
   30MOL   H210 8968   1.851   6.042   6.502  0.0039 -1.6655  0.5847
   30MOL   H211 8969   1.820   6.149   6.637 -0.9577  0.0675  0.6090
   30MOL   C212 8970   1.952   5.885   7.016  0.2378  0.6228  0.9549
   30MOL   C213 8971   2.027   5.806   7.136  0.0416 -0.7041 -0.3732
   30MOL   C214 8972   1.913   5.764   7.236 -0.3091  0.6438  0.4938
   30MOL   C215 8973   2.106   5.685   7.087 -0.0086  0.0431  0.6766
   30MOL   O216 8974   2.228   5.694   7.048  0.4738  0.1481  0.1551
   30MOL   O217 8975   2.038   5.572   7.080  0.1780 -0.0133  0.3035
   30MOL   C218 8976   2.097   5.454   7.027 -0.1873  0.8682  0.4319
   30MOL   H219 8977   1.880   5.952   7.062 -1.8121 -0.3430 -0.7732
   30MOL   H220 8978   2.026   5.957   6.979  1.7096 -0.6417  1.3638
   30MOL   H221 8979   1.849   5.684   7.199 -0.8306  1.6444 -0.8175
   30MOL   H222 8980   1.943   5.729   7.334 -0.0294 -3.4778 -0.9400
   30MOL   H223 8981   1.855   5.855   7.251 -1.0752  0.3593 -0.6582
   30MOL   H224 8982   2.186   5.424   7.083  0.5409 -0.6904 -1.5188
   30MOL   H225 8983   2.141   5.464   6.928 -2.6182  0.3576 -0.7364
   30MOL   H226 8984   2.016   5.383   7.013 -0.4170  0.9206  1.4308
   30MOL   C227 8985   2.124   5.912   7.207 -0.1977  0.1248  0.8640
   30MOL   C228 8986   2.181   5.889   7.354  0.6117 -0.2743 -0.0177
   30MOL   C229 8987   2.074   5.952   7.447  0.1080  1.0731  0.0929
   30MOL   C230 8988   2.214   5.745   7.392  0.1953  0.3112  0.1540
   30MOL   O231 8989   2.152   5.683   7.472 -0.5668 -0.2421 -0.0685
   30MOL   O232 8990   2.324   5.703   7.328 -0.3840  0.9784  0.2258
   30MOL   C233 8991   2.361   5.570   7.335  0.3879  0.7216  0.2534
   30MOL   H234 8992   2.078   6.010   7.203 -1.1646 -0.3489 -0.0109
   30MOL   H235 8993   2.213   5.919   7.145  1.4068  0.5652  3.1762
   30MOL   H236 8994   1.972   5.940   7.409  0.2318 -2.1888  0.6746
   30MOL   H237 8995   2.073   5.904   7.545  1.3326 -0.7591 -0.7748
   30MOL   H238 8996   2.083   6.060   7.459 -1.7045  1.3297 -0.6961
   30MOL   H239 8997   2.286   5.521   7.273  0.6185  2.6222 -1.5826
   30MOL   H240 8998   2.351   5.533   7.437 -1.8081 -0.1441 -0.2491
   30MOL   H241 8999   2.458   5.548   7.291  0.6110  1.2808  0.4678
   30MOL   C242 9000   2.314   5.982   7.362  0.1034 -0.2530 -0.4471
   30MOL   C243 9001   2.406   5.990   7.497  0.1489  0.3640  0.3948
   30MOL   C244 9002   2.323   5.975   7.626 -0.1524 -0.3794 -0.1296
   30MOL   C245 9003   2.505   5.872   7.503  0.1996 -0.4455  0.6844
   30MOL   O246 9004   2.515   5.803   7.602  0.0477  0.0961  0.5514
   30MOL   O247 9005   2.574   5.858   7.380  0.1039 -0.1200 -0.6737
   30MOL   C248 9006   2.661   5.745   7.366  0.1441  0.0512 -0.8871
   30MOL   H249 9007   2.291   6.087   7.344  3.2039  0.2317 -1.8311
   30MOL   H250 9008   2.374   5.968   7.272  1.2862  4.6603 -0.5259
   30MOL   H251 9009   2.259   6.062   7.640 -0.0398 -0.1442 -1.0675
   30MOL   H252 9010   2.266   5.883   7.626  0.6313 -0.8951  2.0090
   30MOL   H253 9011   2.385   5.971   7.716 -1.4548  0.2408  0.8076
   30MOL   H254 9012   2.728   5.750   7.453 -0.5217  1.3931 -0.4359
   30MOL   H255 9013   2.715   5.748   7.272 -0.8197  0.1309 -1.4355
   30MOL   H256 9014   2.618   5.648   7.391 -2.2702  0.7559 -2.1907
   30MOL   C257 9015   2.485   6.129   7.491 -0.1237 -0.5280 -0.1174
   30MOL   C258 9016   2.610   6.179   7.574  0.2286  0.2763  0.4399
   30MOL   C259 9017   2.583   6.143   7.719 -0.1458 -0.5121  0.1541
   30MOL   C260 9018   2.740   6.112   7.517  0.5230 -0.1237  0.0405
   30MOL   O261 9019   2.792   6.021   7.585  0.0798  0.8287  0.4387
   30MOL   O262 9020   2.785   6.161   7.402  0.1697  0.1154 -0.2017
   30MOL   C263 9021   2.880   6.079   7.332  1.1688  0.5204  0.0372
   30MOL   H264 9022   2.409   6.204   7.511  1.4092  0.8045  0.7828
   30MOL   H265 9023   2.515   6.140   7.387 -2.4176  0.5160 -0.6975
   30MOL   H266 9024   2.589   6.034   7.725  0.6290 -0.4784  0.0558
   30MOL   H267 9025   2.663   6.166   7.789 -0.5250 -1.7292  1.0203
   30MOL   H268 9026   2.487   6.169   7.763  0.4306 -0.2142  1.2474
   30MOL   H269 9027   2.839   5.978   7.334 -0.0520  1.0270  1.5507
   30MOL   H270 9028   2.982   6.084   7.370  0.9900  0.4616  0.5303
   30MOL   H271 9029   2.884   6.108   7.227  1.3494  0.6361  0.0766
   30MOL   C272 9030   2.603   6.340   7.549 -0.1978 -0.6508  0.3173
   30MOL   C273 9031   2.698   6.446   7.614 -0.1953  0.1504  0.0042
   30MOL   C274 9032   2.683   6.478   7.767  0.8818 -0.2773 -0.4581
   30MOL   C275 9033   2.850   6.412   7.587  0.3511 -0.3947  0.4233
   30MOL   O276 9034   2.916   6.356   7.679 -0.0280  0.1479  0.6444
   30MOL   O277 9035   2.903   6.434   7.467 -0.0356  0.0883  0.1199
   30MOL   C278 9036   3.044   6.409   7.456 -0.4175 -0.1861  0.4816
   30MOL   H279 9037   2.505   6.386   7.566  0.2248  0.9511 -1.4254
   30MOL   H280 9038   2.617   6.364   7.444  0.1620 -0.6117  0.3716
   30MOL   H281 9039   2.688   6.384   7.821  0.9184  1.1004  1.9908
   30MOL   H282 9040   2.763   6.546   7.795  0.6125  0.0896 -0.5647
   30MOL   H283 9041   2.582   6.517   7.786 -0.1520 -1.9300 -2.3117
   30MOL   H284 9042   3.092   6.467   7.534 -0.1964  1.7676 -1.0625
   30MOL   H285 9043   3.082   6.439   7.358 -1.1869  1.2218  0.5994
   30MOL   H286 9044   3.062   6.302   7.463  0.1149 -0.1013  0.4420
   30MOL   C287 9045   2.662   6.576   7.526 -0.3337  0.0069  0.1999
   30MOL   C288 9046   2.730   6.706   7.554  0.3970  0.1095  0.1085
   30MOL   C289 9047   2.758   6.791   7.422 -0.3058  0.0180 -0.5208
   30MOL   C290 9048   2.654   6.792   7.667 -0.5519  0.2485 -0.1416
   30MOL   O291 9049   2.691   6.791   7.787  0.9598  0.2856 -0.2769
   30MOL   O292 9050   2.557   6.864   7.619  1.3743 -0.2914 -0.5034
   30MOL   C293 9051   2.493   6.963   7.709 -0.5277  0.3658 -0.0553
   30MOL   H294 9052   2.555   6.594   7.521 -0.0022  1.9235 -0.5437
   30MOL   H295 9053   2.670   6.549   7.421 -2.2757  0.2114 -0.0190
   30MOL   H296 9054   2.664   6.831   7.383  1.1079  2.2427 -1.7528
   30MOL   H297 9055   2.837   6.865   7.435 -0.5044  0.0219  0.7071
   30MOL   H298 9056   2.795   6.727   7.343  2.7539  0.2899  0.6091
   30MOL   H299 9057   2.546   7.054   7.735  1.5748 -2.1159  4.8227
   30MOL   H300 9058   2.459   6.919   7.802 -1.0164 -1.6578 -1.1480
   30MOL   H301 9059   2.398   6.997   7.666 -1.3281 -0.2962  1.1800
   30MOL   H302 9060   2.828   6.687   7.598  0.7454 -1.5909 -1.3077
   31MOL     C1 9061   1.808   2.584   6.762 -0.4169 -0.1940  0.1914
   31MOL     C2 9062   1.689   2.575   6.867  0.0746 -0.0917 -0.0122
   31MOL     C3 9063   1.755   2.508   6.987  0.2129 -0.0838 -0.6862
   31MOL     C4 9064   1.647   2.720   6.906 -0.0678  0.4565  1.4969
   31MOL     O5 9065   1.567   2.733   6.996  0.7069  0.2797  0.1775
   31MOL     O6 9066   1.686   2.814   6.820 -0.1416 -0.0208  0.4210
   31MOL     C7 9067   1.616   2.937   6.816 -0.2797 -0.9518 -0.2585
   31MOL     H8 9068   1.839   2.485   6.729  0.9536 -0.2868  1.7308
   31MOL     H9 9069   1.785   2.632   6.667  0.7469 -1.1000 -0.5542
   31MOL    H10 9070   1.679   2.495   7.064  1.2509 -0.9509  0.2079
   31MOL    H11 9071   1.811   2.415   6.970 -0.7125 -0.9572  0.8670
   31MOL    H12 9072   1.823   2.579   7.034  1.3139  0.7368 -3.3955
   31MOL    H13 9073   1.605   2.980   6.915 -1.0865 -1.0353 -0.3125
   31MOL    H14 9074   1.520   2.910   6.772  0.0550  0.4367 -1.9124
   31MOL    H15 9075   1.665   3.010   6.751 -0.1213 -0.2747  0.6134
   31MOL    H16 9076   1.897   2.630   6.805  1.1830 -1.4925 -1.6685
   31MOL    C17 9077   1.583   2.478   6.812  0.0563  0.7592 -0.8016
   31MOL    C18 9078   1.476   2.515   6.698  0.1910  0.7685  0.5692
   31MOL    C19 9079   1.349   2.589   6.761  0.0094 -0.3656 -0.2992
   31MOL    C20 9080   1.536   2.600   6.583 -0.2944  0.3444 -0.4428
   31MOL    O21 9081   1.510   2.717   6.572  0.2228  0.3290  0.5673
   31MOL    O22 9082   1.632   2.531   6.512 -0.6910  0.5445  0.3259
   31MOL    C23 9083   1.677   2.585   6.391  0.2512 -0.3484  0.5125
   31MOL    H24 9084   1.519   2.444   6.894 -1.6303  0.8086 -2.0738
   31MOL    H25 9085   1.644   2.393   6.783  0.1309  0.4248  0.3038
   31MOL    H26 9086   1.383   2.675   6.818 -1.0314  0.4751 -0.9362
   31MOL    H27 9087   1.273   2.607   6.684  0.3075 -0.3383 -0.5899
   31MOL    H28 9088   1.298   2.519   6.827  1.5945 -3.0685 -1.8610
   31MOL    H29 9089   1.743   2.669   6.413  0.9371 -0.7247 -0.0914
   31MOL    H30 9090   1.588   2.603   6.329  0.2148 -1.5361  0.2120
   31MOL    H31 9091   1.743   2.510   6.347  1.5169  0.7327  0.5414
   31MOL    C32 9092   1.420   2.379   6.633 -0.1111  0.1947  0.0368
   31MOL    C33 9093   1.333   2.267   6.706  0.5126  0.3579  0.7321
   31MOL    C34 9094   1.387   2.243   6.847 -0.1723  0.1266  0.3737
   31MOL    C35 9095   1.180   2.300   6.707  0.4863 -0.0141  0.3785
   31MOL    O36 9096   1.131   2.385   6.637 -0.2088  0.5689  0.6012
   31MOL    O37 9097   1.103   2.210   6.780  0.9238  0.0936  0.3100
   31MOL    C38 9098   0.964   2.223   6.788 -0.9310 -0.3080  0.3767
   31MOL    H39 9099   1.512   2.328   6.603 -0.5682 -0.7565  0.2056
   31MOL    H40 9100   1.372   2.403   6.539 -0.6985  2.0652  0.7960
   31MOL    H41 9101   1.344   2.150   6.885 -0.7969  0.3566  0.2282
   31MOL    H42 9102   1.493   2.223   6.865 -0.3585  0.9262  2.6212
   31MOL    H43 9103   1.355   2.309   6.928  0.8343  0.1566  0.7577
   31MOL    H44 9104   0.916   2.158   6.715  0.8172 -3.0420  1.5553
   31MOL    H45 9105   0.941   2.328   6.769 -1.6472  0.0157  2.8666
   31MOL    H46 9106   0.930   2.195   6.888 -2.1615 -2.1353 -0.5313
   31MOL    C47 9107   1.359   2.117   6.641  0.6004 -0.4412 -0.2272
   31MOL    C48 9108   1.341   2.078   6.489 -0.9838 -0.5712 -0.8513
   31MOL    C49 9109   1.223   2.150   6.420  0.3989 -0.1191 -0.4524
   31MOL    C50 9110   1.480   2.115   6.429 -0.1641 -0.7491  0.2273
   31MOL    O51 9111   1.592   2.089   6.475 -0.0339  0.2814 -0.1485
   31MOL    O52 9112   1.465   2.179   6.309 -0.7037 -0.2547 -0.2346
   31MOL    C53 9113   1.581   2.239   6.265 -0.4636 -0.6351  0.0270
   31MOL    H54 9114   1.299   2.049   6.701 -0.3228  0.5814  0.0355
   31MOL    H55 9115   1.459   2.097   6.677  0.2506  0.9710  1.6190
   31MOL    H56 9116   1.218   2.113   6.318 -0.5646 -0.8432 -0.1484
   31MOL    H57 9117   1.122   2.139   6.461  0.4235 -0.8159 -0.5736
   31MOL    H58 9118   1.242   2.257   6.412 -0.5552  0.1949  1.1356
   31MOL    H59 9119   1.558   2.299   6.177  0.3368 -0.6830 -0.2128
   31MOL    H60 9120   1.652   2.160   6.243  0.4881  0.3204 -0.3666
   31MOL    H61 9121   1.622   2.306   6.341 -1.5264  1.3624 -1.1087
   31MOL    C62 9122   1.319   1.915   6.481  0.7666 -0.3437 -0.2862
   31MOL    C63 9123   1.376   1.825   6.367 -1.0668 -0.0949  0.2877
   31MOL    C64 9124   1.347   1.881   6.226  0.6865 -0.4824 -0.0292
   31MOL    C65 9125   1.532   1.805   6.377 -0.3149 -0.1772 -0.3760
   31MOL    O66 9126   1.610   1.804   6.283  0.5275  0.0178 -0.1309
   31MOL    O67 9127   1.575   1.792   6.509 -0.1267  0.5553 -0.4410
   31MOL    C68 9128   1.716   1.793   6.523  0.1135 -0.5021  0.4483
   31MOL    H69 9129   1.211   1.900   6.486  0.7108  0.2504  0.3265
   31MOL    H70 9130   1.348   1.878   6.579  0.8439  1.1309  0.2596
   31MOL    H71 9131   1.242   1.896   6.200  0.6810  0.5180  0.5347
   31MOL    H72 9132   1.393   1.979   6.209 -1.1237  0.0967 -1.7170
   31MOL    H73 9133   1.395   1.817   6.152 -1.1906 -3.1288  0.9936
   31MOL    H74 9134   1.771   1.739   6.446 -0.4347 -1.5442  0.7698
   31MOL    H75 9135   1.754   1.748   6.615  1.0139  0.6644  0.6629
   31MOL    H76 9136   1.750   1.896   6.519  2.8143 -1.3718 -0.7413
   31MOL    C77 9137   1.318   1.680   6.381 -0.5302 -0.6764  0.2726
   31MOL    C78 9138   1.171   1.633   6.330  0.4779  0.9805  0.1586
   31MOL    C79 9139   1.062   1.732   6.370 -0.5304 -0.3031  0.6948
   31MOL    C80 9140   1.176   1.623   6.169 -0.7178  1.2941  0.6251
   31MOL    O81 9141   1.087   1.677   6.099 -0.4398 -0.2024 -0.1386
   31MOL    O82 9142   1.280   1.550   6.123 -0.3120  0.3339 -0.0082
   31MOL    C83 9143   1.330   1.567   5.989 -0.4487  0.3892 -0.1686
   31MOL    H84 9144   1.322   1.642   6.483  0.3268 -0.8605  0.1731
   31MOL    H85 9145   1.393   1.617   6.333 -1.0496  0.4435 -2.1038
   31MOL    H86 9146   0.975   1.704   6.311  1.2837 -3.5760 -0.5455
   31MOL    H87 9147   1.032   1.729   6.474 -0.8540 -1.5137  0.5660
   31MOL    H88 9148   1.067   1.832   6.325 -0.0642 -1.2780 -1.4602
   31MOL    H89 9149   1.259   1.524   5.919 -0.1114  2.8805 -2.1382
   31MOL    H90 9150   1.418   1.504   5.976  0.0088  0.3501  2.7855
   31MOL    H91 9151   1.349   1.672   5.963 -1.1965  0.6246  0.2286
   31MOL    C92 9152   1.144   1.494   6.402 -0.1349  0.0038  0.1829
   31MOL    C93 9153   1.015   1.406   6.378 -0.1798 -0.5539  0.0125
   31MOL    C94 9154   1.058   1.272   6.451  0.3718 -0.2373 -0.2430
   31MOL    C95 9155   0.893   1.459   6.454  0.2345 -0.1309 -1.2088
   31MOL    O96 9156   0.866   1.417   6.569 -0.5711  0.5304 -0.2636
   31MOL    O97 9157   0.823   1.548   6.383 -0.6382 -0.1873 -0.4854
   31MOL    C98 9158   0.703   1.603   6.430  0.0522  0.1726 -0.3346
   31MOL    H99 9159   1.150   1.510   6.510  0.1173  0.0803  0.1569
   31MOL   H100 9160   1.230   1.434   6.373  0.9919  1.4308  0.4920
   31MOL   H101 9161   1.117   1.295   6.539  1.1130  0.6904 -0.9589
   31MOL   H102 9162   0.977   1.210   6.489  2.4262 -3.3997 -0.8814
   31MOL   H103 9163   1.117   1.197   6.397  0.9315 -2.4363  3.2860
   31MOL   H104 9164   0.650   1.527   6.488 -0.9380  1.1980  0.1300
   31MOL   H105 9165   0.630   1.617   6.350 -2.3954 -2.6594  1.2895
   31MOL   H106 9166   0.706   1.692   6.492  3.6830 -1.8189  2.5573
   31MOL   C107 9167   0.981   1.394   6.226 -0.0088  0.2339 -0.2820
   31MOL   C108 9168   0.882   1.290   6.162  0.4602  0.3247  0.8039
   31MOL   C109 9169   0.939   1.148   6.167 -1.0805 -0.6154  0.4491
   31MOL   C110 9170   0.742   1.291   6.236  0.6254  0.1938 -0.5806
   31MOL   O111 9171   0.651   1.364   6.206  0.1026  0.3911 -0.0900
   31MOL   O112 9172   0.738   1.206   6.339 -0.2951  0.1037 -0.4040
   31MOL   C113 9173   0.617   1.198   6.409 -0.3988 -0.0574 -0.2838
   31MOL   H114 9174   1.076   1.393   6.172 -0.1199 -1.0192 -0.4633
   31MOL   H115 9175   0.938   1.488   6.192 -0.7488 -0.2201 -0.5993
   31MOL   H116 9176   0.960   1.109   6.266 -0.7970 -0.1991  0.5535
   31MOL   H117 9177   0.885   1.077   6.105 -2.4390  0.1828  0.6826
   31MOL   H118 9178   1.035   1.162   6.117  0.2068 -0.3195  2.9482
   31MOL   H119 9179   0.535   1.183   6.339  0.2711 -0.2764 -1.0290
   31MOL   H120 9180   0.592   1.289   6.463  1.8667  0.3634  0.1158
   31MOL   H121 9181   0.618   1.121   6.486  2.0478 -0.0396 -0.2558
   31MOL   C122 9182   0.856   1.341   6.014  0.1633  0.5149  0.3936
   31MOL   C123 9183   0.817   1.260   5.886  0.7195  0.5786  0.1884
   31MOL   C124 9184   0.933   1.164   5.838 -1.1184  0.3781  0.5279
   31MOL   C125 9185   0.690   1.170   5.890 -0.1278  0.6977  0.0131
   31MOL   O126 9186   0.600   1.164   5.803  0.2214  0.1303 -0.0594
   31MOL   O127 9187   0.680   1.092   5.995 -0.5366 -0.0225  0.3737
   31MOL   C128 9188   0.594   0.979   5.986 -0.0614  0.3833 -0.2576
   31MOL   H129 9189   0.945   1.394   5.981  0.3892 -1.1248 -1.7483
   31MOL   H130 9190   0.773   1.411   6.021 -0.6167 -0.3790  0.3059
   31MOL   H131 9191   1.029   1.212   5.861  0.0739 -0.9653 -1.5283
   31MOL   H132 9192   0.944   1.070   5.892 -2.1645  1.8866  3.5103
   31MOL   H133 9193   0.934   1.137   5.732  0.5949  1.7875  0.1564
   31MOL   H134 9194   0.599   0.930   5.889  1.5156  0.1907 -0.0908
   31MOL   H135 9195   0.489   1.005   5.997  0.7130  2.8349  1.7146
   31MOL   H136 9196   0.625   0.904   6.059 -0.0320  1.6447  1.0399
   31MOL   C137 9197   0.793   1.364   5.770 -0.2258 -0.3699  0.3911
   31MOL   C138 9198   0.706   1.500   5.779 -0.5693 -0.5411 -0.2367
   31MOL   C139 9199   0.571   1.466   5.858  1.0139 -0.7825  0.1187
   31MOL   C140 9200   0.786   1.621   5.841  0.0465  0.7095 -0.2833
   31MOL   O141 9201   0.911   1.640   5.820  0.3220 -0.0471 -0.1580
   31MOL   O142 9202   0.718   1.706   5.916 -0.0329 -0.1298 -0.1599
   31MOL   C143 9203   0.786   1.825   5.966  0.5053  0.2201 -0.5163
   31MOL   H144 9204   0.767   1.311   5.679  1.3754 -0.2943 -0.1219
   31MOL   H145 9205   0.894   1.399   5.749  0.0563 -1.5938 -0.2976
   31MOL   H146 9206   0.514   1.557   5.876  2.1361 -0.2984  1.2592
   31MOL   H147 9207   0.508   1.406   5.791 -1.2276  1.6364 -0.0422
   31MOL   H148 9208   0.573   1.413   5.953  0.7606  1.4072  1.3610
   31MOL   H149 9209   0.879   1.812   6.021 -1.1736  0.4973  2.4958
   31MOL   H150 9210   0.717   1.881   6.030  2.4223 -1.5835  3.2339
   31MOL   H151 9211   0.799   1.903   5.891 -0.4124 -0.0805 -1.0000
   31MOL   C152 9212   0.675   1.542   5.630 -0.3873  0.0925  0.2852
   31MOL   C153 9213   0.594   1.676   5.589  0.2795  0.4407  0.3989
   31MOL   C154 9214   0.474   1.711   5.685  0.1739 -0.1091  0.7305
   31MOL   C155 9215   0.690   1.802   5.580  0.0402  0.5961  0.1899
   31MOL   O156 9216   0.640   1.911   5.591 -0.1044 -0.4169  0.6074
   31MOL   O157 9217   0.821   1.783   5.567 -0.0671 -0.2797 -0.0863
   31MOL   C158 9218   0.910   1.896   5.559  0.1328  0.1536  0.4093
   31MOL   H159 9219   0.613   1.464   5.587 -1.2009  1.2768 -0.7671
   31MOL   H160 9220   0.770   1.531   5.576  0.5012 -1.1848  2.0807
   31MOL   H161 9221   0.406   1.782   5.639 -0.6407 -0.9749  0.5703
   31MOL   H162 9222   0.413   1.622   5.704 -1.2585  1.0334  1.5510
   31MOL   H163 9223   0.497   1.767   5.775 -0.1227  0.9405  0.1553
   31MOL   H164 9224   0.910   1.959   5.648  0.7019  0.8100 -0.0416
   31MOL   H165 9225   0.866   1.963   5.486  1.2533 -0.5349 -0.9292
   31MOL   H166 9226   1.012   1.866   5.534 -0.0594 -0.6884  0.6161
   31MOL   C167 9227   0.542   1.649   5.439 -0.4340  0.1369  0.4078
   31MOL   C168 9228   0.629   1.646   5.304  0.2389  0.3770  0.1828
   31MOL   C169 9229   0.689   1.787   5.269  0.2283  0.4505  0.0681
   31MOL   C170 9230   0.746   1.551   5.305 -0.1154  0.1575 -0.1881
   31MOL   O171 9231   0.866   1.574   5.258  0.4425 -0.1360 -0.3283
   31MOL   O172 9232   0.713   1.433   5.352 -0.0255  0.5363  0.4241
   31MOL   C173 9233   0.793   1.321   5.349 -0.1707 -0.6073 -0.7243
   31MOL   H174 9234   0.483   1.740   5.428  1.5862  1.3686 -0.5486
   31MOL   H175 9235   0.469   1.569   5.449 -0.6143  0.5529  2.4804
   31MOL   H176 9236   0.776   1.823   5.323  1.0292 -0.6862 -0.4464
   31MOL   H177 9237   0.722   1.788   5.165  0.1304  1.8985  0.0367
   31MOL   H178 9238   0.635   1.881   5.281 -0.3900  0.1771 -0.5096
   31MOL   H179 9239   0.730   1.239   5.380 -0.4773 -0.5383 -1.1528
   31MOL   H180 9240   0.882   1.342   5.408  0.0038 -1.9768 -0.5001
   31MOL   H181 9241   0.824   1.305   5.246 -0.2896  2.3972 -1.2883
   31MOL   C182 9242   0.519   1.591   5.200 -0.9170 -0.2217  0.4981
   31MOL   C183 9243   0.520   1.630   5.049  0.3471 -0.0588  0.4762
   31MOL   C184 9244   0.479   1.779   5.053  0.1090 -0.0023  0.1115
   31MOL   C185 9245   0.662   1.598   4.987  0.7734 -0.5112  0.0200
   31MOL   O186 9246   0.714   1.487   5.001 -0.1897  0.0845  0.0764
   31MOL   O187 9247   0.724   1.694   4.919 -0.3123 -1.0050  0.0921
   31MOL   C188 9248   0.847   1.678   4.851 -0.1300  0.0382 -0.2070
   31MOL   H189 9249   0.416   1.606   5.234 -1.6696 -3.5000 -0.1195
   31MOL   H190 9250   0.525   1.482   5.208 -0.9708 -0.3640 -1.2884
   31MOL   H191 9251   0.465   1.808   5.157 -0.4019  0.3860 -0.0672
   31MOL   H192 9252   0.549   1.853   5.014 -1.0411  0.5883 -0.8445
   31MOL   H193 9253   0.382   1.791   5.005  0.3984  1.3193 -0.1503
   31MOL   H194 9254   0.836   1.631   4.753  2.7573  1.1810 -1.1422
   31MOL   H195 9255   0.909   1.610   4.910  0.7207  0.3025 -0.7981
   31MOL   H196 9256   0.899   1.773   4.838 -0.4526  0.3541  0.7589
   31MOL   C197 9257   0.408   1.553   4.974  1.0201  0.5460 -0.6818
   31MOL   C198 9258   0.382   1.549   4.823 -1.2769  0.4468  0.8143
   31MOL   C199 9259   0.488   1.450   4.766 -0.1879  0.4064  0.0311
   31MOL   C200 9260   0.238   1.491   4.798  0.0829 -0.1656  0.0891
   31MOL   O201 9261   0.220   1.371   4.790 -0.3857 -0.4366 -0.1905
   31MOL   O202 9262   0.136   1.580   4.786 -0.1579  0.1339  0.2565
   31MOL   C203 9263   0.012   1.546   4.730 -0.0163  0.1603 -0.2166
   31MOL   H204 9264   0.319   1.576   5.033  0.6257 -1.3611 -0.5013
   31MOL   H205 9265   0.433   1.450   5.000  2.0169  0.6353 -1.2758
   31MOL   H206 9266   0.592   1.484   4.765 -0.8800  2.5725 -1.6485
   31MOL   H207 9267   0.483   1.358   4.824  2.0941  0.0500 -0.2848
   31MOL   H208 9268   0.476   1.406   4.667  0.9580  0.5208 -0.1706
   31MOL   H209 9269   0.023   1.521   4.624  2.2074  0.7704 -0.1597
   31MOL   H210 9270   7.820   1.628   4.743 -1.5169 -0.6112 -2.8987
   31MOL   H211 9271   7.848   1.463   4.787  3.8157 -0.4443  1.8488
   31MOL   C212 9272   0.389   1.688   4.745 -0.4474 -0.0443  0.4316
   31MOL   C213 9273   0.393   1.714   4.588  0.2365 -0.0568  0.6038
   31MOL   C214 9274   0.297   1.611   4.522 -0.1291  0.2392  0.4661
   31MOL   C215 9275   0.344   1.860   4.554  0.4995 -0.2961 -0.9842
   31MOL   O216 9276   0.270   1.879   4.461 -0.0620 -0.2957 -0.4885
   31MOL   O217 9277   0.407   1.958   4.624 -0.4716  0.1122  0.2256
   31MOL   C218 9278   0.408   2.086   4.566  0.4485 -0.2547  0.8931
   31MOL   H219 9279   0.484   1.731   4.776  1.1093 -2.3457 -1.0441
   31MOL   H220 9280   0.309   1.748   4.789 -1.7465 -1.5351  0.1227
   31MOL   H221 9281   0.189   1.622   4.529 -0.0924 -0.0137  1.3921
   31MOL   H222 9282   0.310   1.622   4.414 -1.9011 -1.0135  0.0864
   31MOL   H223 9283   0.334   1.510   4.537 -0.6355 -0.4524 -2.5703
   31MOL   H224 9284   0.422   2.084   4.458  0.4154  0.1647  0.8822
   31MOL   H225 9285   0.483   2.148   4.615  1.0362 -1.1721  1.1760
   31MOL   H226 9286   0.309   2.128   4.582 -0.0142 -0.8114 -0.4088
   31MOL   C227 9287   0.539   1.678   4.531 -0.0964  0.2692  0.1983
   31MOL   C228 9288   0.633   1.763   4.434 -0.0991  0.7009 -0.1250
   31MOL   C229 9289   0.549   1.793   4.307 -0.1029 -0.1594  0.1386
   31MOL   C230 9290   0.682   1.894   4.499 -0.3064  0.0528 -0.4613
   31MOL   O231 9291   0.688   1.999   4.435  0.5826 -0.7659  0.1590
   31MOL   O232 9292   0.717   1.886   4.625  0.6243  0.6334  0.6115
   31MOL   C233 9293   0.776   1.997   4.697  0.3737  0.4493  0.8196
   31MOL   H234 9294   0.529   1.578   4.489 -1.0811  0.9161 -1.1430
   31MOL   H235 9295   0.602   1.673   4.620 -0.0918  2.2087  0.3227
   31MOL   H236 9296   0.608   1.839   4.227  0.3589 -0.0561  0.5396
   31MOL   H237 9297   0.494   1.710   4.262 -0.3677  0.3401 -0.4823
   31MOL   H238 9298   0.465   1.862   4.318  0.1455 -0.0661  1.4191
   31MOL   H239 9299   0.873   2.021   4.653 -0.7037  3.0575 -0.2482
   31MOL   H240 9300   0.775   1.981   4.805  2.7708 -0.1269  0.7884
   31MOL   H241 9301   0.725   2.093   4.690 -1.1048 -0.2865  1.4143
   31MOL   C242 9302   0.753   1.664   4.401  0.1692  0.1892  0.0487
   31MOL   C243 9303   0.895   1.692   4.327 -0.6336 -0.4119 -0.7430
   31MOL   C244 9304   0.867   1.772   4.198  0.0837 -0.7827 -0.6179
   31MOL   C245 9305   0.994   1.785   4.409  0.6639  0.3430  0.3935
   31MOL   O246 9306   1.071   1.864   4.360  1.0351  0.4045  0.7027
   31MOL   O247 9307   0.989   1.768   4.540 -0.3718  0.6628 -0.1865
   31MOL   C248 9308   1.099   1.814   4.619 -0.2547 -0.3504 -0.2001
   31MOL   H249 9309   0.698   1.599   4.333 -1.9246  0.9863  0.9388
   31MOL   H250 9310   0.768   1.596   4.484 -1.3065  0.3556  0.4715
   31MOL   H251 9311   0.805   1.708   4.136  1.2658 -0.7690 -1.8364
   31MOL   H252 9312   0.822   1.871   4.208 -0.0743 -0.5396 -3.3899
   31MOL   H253 9313   0.957   1.800   4.143  1.7438 -0.9370  1.9271
   31MOL   H254 9314   1.180   1.743   4.632  0.2311 -0.3643 -2.8535
   31MOL   H255 9315   1.063   1.843   4.718 -0.1994  0.6749 -0.4704
   31MOL   H256 9316   1.150   1.908   4.596  1.8755 -1.1334  1.2631
   31MOL   C257 9317   0.974   1.567   4.275  0.0829 -0.3910  0.6412
   31MOL   C258 9318   0.991   1.435   4.354 -1.0462 -0.5338 -0.3250
   31MOL   C259 9319   1.037   1.463   4.496 -0.6545 -0.6226 -0.0588
   31MOL   C260 9320   0.848   1.369   4.371 -0.4423 -0.7117  0.0646
   31MOL   O261 9321   0.763   1.385   4.284  0.2673  0.0975 -0.2668
   31MOL   O262 9322   0.846   1.274   4.465  0.1791 -0.7516  0.2180
   31MOL   C263 9323   0.739   1.189   4.482  0.0574  0.1668 -0.3548
   31MOL   H264 9324   1.077   1.593   4.251 -0.1965 -0.2994 -0.4821
   31MOL   H265 9325   0.937   1.539   4.177  0.7262  0.6537  0.1043
   31MOL   H266 9326   0.959   1.503   4.561  0.9618 -0.9262  2.1484
   31MOL   H267 9327   1.081   1.375   4.543  0.8689  0.3126  0.3054
   31MOL   H268 9328   1.119   1.534   4.502  1.2783 -2.9143  1.6475
   31MOL   H269 9329   0.648   1.248   4.469 -0.1376  0.1364  0.8143
   31MOL   H270 9330   0.751   1.144   4.580  2.0823  0.7360 -0.3152
   31MOL   H271 9331   0.740   1.102   4.416  0.9053  0.1387 -0.3093
   31MOL   C272 9332   1.084   1.327   4.286  0.3077  0.0926  0.0800
   31MOL   C273 9333   1.107   1.310   4.130  0.5123  0.1828 -0.0667
   31MOL   C274 9334   1.183   1.175   4.127  0.7992  0.6383  0.4549
   31MOL   C275 9335   0.982   1.299   4.045  0.3305 -0.1846  0.4706
   31MOL   O276 9336   0.958   1.378   3.960 -0.2555  0.3568  0.2009
   31MOL   O277 9337   0.903   1.196   4.082  0.2104  0.0975  0.4129
   31MOL   C278 9338   0.770   1.193   4.021 -0.1441 -0.6499 -0.2348
   31MOL   H279 9339   1.051   1.232   4.327 -1.2669  0.2927 -0.6618
   31MOL   H280 9340   1.180   1.332   4.338  0.0028  0.5947  0.6007
   31MOL   H281 9341   1.274   1.170   4.187  1.7772 -0.3038 -1.0631
   31MOL   H282 9342   1.131   1.082   4.154  2.9958 -1.0329 -0.8758
   31MOL   H283 9343   1.213   1.157   4.024 -0.8808 -1.2878  0.2544
   31MOL   H284 9344   0.777   1.110   3.951 -0.3020 -2.0870  1.4163
   31MOL   H285 9345   0.743   1.282   3.964  0.5596  0.0718  0.5582
   31MOL   H286 9346   0.692   1.181   4.096 -0.9898 -0.7840 -1.1124
   31MOL   C287 9347   1.200   1.421   4.076  0.1702 -0.4131 -0.6202
   31MOL   C288 9348   1.345   1.434   4.120  0.0085  0.4282 -0.0656
   31MOL   C289 9349   1.428   1.523   4.022  0.3765 -0.6235 -0.0152
   31MOL   C290 9350   1.366   1.495   4.260  0.0469  0.0452  0.2682
   31MOL   O291 9351   1.405   1.414   4.351 -0.4235 -0.3796  0.3340
   31MOL   O292 9352   1.337   1.627   4.269 -0.4177 -0.0140 -0.2395
   31MOL   C293 9353   1.364   1.697   4.390  0.1609 -0.0851  0.2247
   31MOL   H294 9354   1.158   1.522   4.076  2.0906  0.4228 -2.2994
   31MOL   H295 9355   1.207   1.394   3.971  1.4982 -1.4128 -0.2834
   31MOL   H296 9356   1.366   1.586   3.958 -0.5480 -0.2472  1.2429
   31MOL   H297 9357   1.505   1.592   4.055  1.2591 -1.0958 -1.0388
   31MOL   H298 9358   1.476   1.456   3.950  0.9448 -0.3677  0.1246
   31MOL   H299 9359   1.329   1.640   4.476 -0.0777 -0.7484 -0.3090
   31MOL   H300 9360   1.305   1.788   4.393 -0.1157 -0.1839 -1.6145
   31MOL   H301 9361   1.467   1.726   4.408 -0.1890  1.1090  0.3314
   31MOL   H302 9362   1.387   1.333   4.127  2.4437  1.5295  2.1396
   32MOL     C1 9363   3.428   5.591   3.170 -0.8664  0.1729  0.1599
   32MOL     C2 9364   3.309   5.654   3.247 -0.0456  0.0748 -0.3256
   32MOL     C3 9365   3.289   5.570   3.373  0.1606 -0.0331 -0.3092
   32MOL     C4 9366   3.348   5.796   3.293 -0.2553 -0.5249  0.1028
   32MOL     O5 9367   3.466   5.825   3.310  0.4045  0.1528  0.6331
   32MOL     O6 9368   3.245   5.870   3.332 -0.3487  0.4787 -0.0978
   32MOL     C7 9369   3.247   6.012   3.347 -0.2784  0.0737 -0.0934
   32MOL     H8 9370   3.476   5.663   3.104  0.3644  0.7056  1.6165
   32MOL     H9 9371   3.495   5.528   3.229 -0.7146 -3.5102 -3.6717
   32MOL    H10 9372   3.236   5.476   3.358 -0.6807  0.3450  0.2302
   32MOL    H11 9373   3.377   5.545   3.434 -1.1665  2.3679  2.7260
   32MOL    H12 9374   3.216   5.622   3.435 -1.3540 -1.2100 -1.0702
   32MOL    H13 9375   3.309   6.045   3.431 -0.7676  1.3218 -0.2041
   32MOL    H14 9376   3.146   6.049   3.360 -1.2981 -2.6826  0.1007
   32MOL    H15 9377   3.288   6.069   3.264 -0.8672  0.9456  0.2052
   32MOL    H16 9378   3.386   5.504   3.118  0.5046 -0.4339  0.0210
   32MOL    C17 9379   3.178   5.649   3.164 -0.4687 -0.3297  0.6341
   32MOL    C18 9380   3.163   5.723   3.024  0.9529 -0.1699 -0.3507
   32MOL    C19 9381   3.192   5.878   3.036  0.3007 -0.2150  0.2359
   32MOL    C20 9382   3.254   5.665   2.916 -0.0040  0.7759  0.6033
   32MOL    O21 9383   3.331   5.735   2.849 -0.3353 -0.3854  0.4301
   32MOL    O22 9384   3.247   5.537   2.901  0.1357  0.2669  0.1544
   32MOL    C23 9385   3.317   5.482   2.798  0.1038 -0.3130  0.5339
   32MOL    H24 9386   3.100   5.686   3.230  0.2383 -0.0332  1.3163
   32MOL    H25 9387   3.157   5.544   3.141  0.3935 -0.1559 -1.0632
   32MOL    H26 9388   3.300   5.889   3.030  0.2493 -0.0234 -0.3585
   32MOL    H27 9389   3.149   5.932   2.952 -1.8063 -0.0364  1.3948
   32MOL    H28 9390   3.143   5.921   3.123 -0.7565  0.0295 -0.4750
   32MOL    H29 9391   3.290   5.514   2.698  1.2882 -2.1238 -0.4083
   32MOL    H30 9392   3.321   5.374   2.816 -0.0618 -0.6599 -1.4276
   32MOL    H31 9393   3.418   5.514   2.825  0.4988  1.7184 -3.0012
   32MOL    C32 9394   3.005   5.711   2.998 -0.4517  0.1280  0.6876
   32MOL    C33 9395   2.935   5.716   2.850  0.9025 -0.2348 -0.0297
   32MOL    C34 9396   2.982   5.846   2.776 -0.2442 -0.4043 -0.3048
   32MOL    C35 9397   2.963   5.585   2.771 -0.0431  0.2240 -1.0179
   32MOL    O36 9398   3.006   5.590   2.656  0.0195 -0.2966 -0.4540
   32MOL    O37 9399   2.952   5.480   2.848 -0.0914  0.6169  0.1804
   32MOL    C38 9400   2.977   5.349   2.801  0.4993  0.6787  0.1496
   32MOL    H39 9401   2.957   5.781   3.067  1.4306 -1.7825  4.0653
   32MOL    H40 9402   2.974   5.611   3.030 -0.8566 -0.9661 -2.8946
   32MOL    H41 9403   3.089   5.865   2.778  0.0703 -2.2468  1.3050
   32MOL    H42 9404   2.947   5.858   2.673 -0.5876 -0.2440 -0.1688
   32MOL    H43 9405   2.950   5.939   2.824 -1.8418 -1.2850  0.3952
   32MOL    H44 9406   2.939   5.283   2.879  1.0760 -0.6449 -0.6572
   32MOL    H45 9407   3.081   5.323   2.778 -0.2015 -0.7213 -1.5733
   32MOL    H46 9408   2.915   5.334   2.713 -0.4087  1.6195  0.6206
   32MOL    C47 9409   2.780   5.737   2.861  0.0400  0.4157  0.0614
   32MOL    C48 9410   2.666   5.638   2.915  0.3063  0.5094  0.2520
   32MOL    C49 9411   2.640   5.525   2.812 -0.1833  0.4839 -0.1151
   32MOL    C50 9412   2.717   5.582   3.052  0.2551  0.3861 -0.6764
   32MOL    O51 9413   2.750   5.470   3.069  0.5820  0.3526 -0.1222
   32MOL    O52 9414   2.722   5.680   3.150 -0.4623 -0.3945  0.3802
   32MOL    C53 9415   2.716   5.643   3.279  0.6079 -0.4241 -0.4911
   32MOL    H54 9416   2.751   5.757   2.758 -0.4755  1.6085  0.4239
   32MOL    H55 9417   2.767   5.828   2.920 -0.3641  0.6886 -0.4456
   32MOL    H56 9418   2.651   5.557   2.709 -1.6815  1.1149 -0.1015
   32MOL    H57 9419   2.713   5.445   2.824 -0.6009  0.0058 -0.7400
   32MOL    H58 9420   2.543   5.475   2.813 -0.1853  0.4767 -0.7021
   32MOL    H59 9421   2.638   5.705   3.324  0.5215 -1.1153  0.3349
   32MOL    H60 9422   2.808   5.680   3.324  0.4347  0.5858 -0.9506
   32MOL    H61 9423   2.692   5.540   3.303 -0.1152 -0.4204 -1.1737
   32MOL    C62 9424   2.538   5.725   2.939  0.1691  0.4676  0.2160
   32MOL    C63 9425   2.394   5.668   2.961 -0.8171 -0.2328  0.1412
   32MOL    C64 9426   2.390   5.541   3.056 -0.2524 -0.2463 -0.0635
   32MOL    C65 9427   2.316   5.775   3.040  0.4830 -0.5533  0.4017
   32MOL    O66 9428   2.251   5.756   3.136  0.5745  0.2812  0.0804
   32MOL    O67 9429   2.324   5.891   2.974 -0.4471  0.0246 -0.1419
   32MOL    C68 9430   2.279   6.007   3.035  0.3692  0.1719 -1.7064
   32MOL    H69 9431   2.532   5.809   2.870  0.7406  0.2657 -0.0805
   32MOL    H70 9432   2.562   5.789   3.024 -1.6389 -0.9230  1.8213
   32MOL    H71 9433   2.444   5.454   3.019 -1.5387 -0.5370 -1.3054
   32MOL    H72 9434   2.440   5.559   3.151 -0.5836 -2.0095  0.4773
   32MOL    H73 9435   2.292   5.498   3.077 -0.4991 -0.1338 -0.9590
   32MOL    H74 9436   2.288   6.094   2.971 -2.6858 -0.8867 -3.6770
   32MOL    H75 9437   2.341   6.023   3.124 -3.1387  0.0274  0.8744
   32MOL    H76 9438   2.173   5.999   3.058  0.4248  1.7601 -0.8432
   32MOL    C77 9439   2.326   5.634   2.817 -0.0375 -0.6294 -0.6497
   32MOL    C78 9440   2.176   5.633   2.776 -0.1687 -0.9365  0.5841
   32MOL    C79 9441   2.109   5.536   2.878  0.2408 -0.0647 -1.1377
   32MOL    C80 9442   2.112   5.777   2.790 -0.4665  0.2269 -0.0063
   32MOL    O81 9443   2.020   5.802   2.865 -0.0205 -0.6022 -0.1163
   32MOL    O82 9444   2.165   5.866   2.711  0.3328  0.3509  0.1000
   32MOL    C83 9445   2.131   5.999   2.724  0.0749 -0.3930 -0.0223
   32MOL    H84 9446   2.350   5.530   2.796 -0.7429 -0.6542 -1.3797
   32MOL    H85 9447   2.375   5.687   2.735  1.0598  0.2167  0.5355
   32MOL    H86 9448   2.151   5.435   2.874  0.3277 -0.1372  0.9886
   32MOL    H87 9449   2.119   5.580   2.978  0.9168  2.4578 -2.2764
   32MOL    H88 9450   2.002   5.531   2.860  0.0516 -1.4835  0.2511
   32MOL    H89 9451   2.220   6.054   2.753 -0.9944  0.6892  1.2734
   32MOL    H90 9452   2.055   6.020   2.799 -0.6764  0.6762 -1.0854
   32MOL    H91 9453   2.075   6.034   2.638  1.2009 -2.8432 -1.8273
   32MOL    C92 9454   2.166   5.571   2.635 -0.0834  0.5564 -0.7910
   32MOL    C93 9455   2.038   5.541   2.548  0.1134  0.5752 -0.0066
   32MOL    C94 9456   2.091   5.510   2.406 -0.3245 -0.1970 -0.2897
   32MOL    C95 9457   1.989   5.399   2.591  0.2723  0.5598  0.6260
   32MOL    O96 9458   2.042   5.292   2.561 -1.3433  0.1216  0.0805
   32MOL    O97 9459   1.885   5.406   2.682  0.3168 -0.2581 -0.4139
   32MOL    C98 9460   1.836   5.291   2.749  0.1337  1.0790  0.2208
   32MOL    H99 9461   2.231   5.484   2.628 -1.0385 -0.1667 -0.7014
   32MOL   H100 9462   2.227   5.629   2.565  1.9939 -0.1065  0.4185
   32MOL   H101 9463   2.129   5.596   2.352 -0.5232 -0.0193 -0.1516
   32MOL   H102 9464   2.176   5.446   2.426 -0.0622  0.8543  2.2795
   32MOL   H103 9465   2.019   5.471   2.335 -0.5734 -0.3165  0.0239
   32MOL   H104 9466   1.922   5.239   2.791  1.9689  2.9387 -1.1497
   32MOL   H105 9467   1.788   5.216   2.685  0.4877  0.8412  0.2307
   32MOL   H106 9468   1.768   5.326   2.827 -0.9746 -0.9408  0.1960
   32MOL   C107 9469   1.932   5.658   2.568 -0.5055 -0.1960 -0.6121
   32MOL   C108 9470   1.800   5.670   2.469 -0.4694 -0.0326 -1.0742
   32MOL   C109 9471   1.718   5.538   2.466  0.2306 -0.0529 -0.1824
   32MOL   C110 9472   1.699   5.767   2.535  0.0074  0.6001 -0.7032
   32MOL   O111 9473   1.579   5.760   2.519 -0.6151 -0.8694 -0.5779
   32MOL   O112 9474   1.759   5.860   2.612  0.0172 -0.0058  0.4503
   32MOL   C113 9475   1.678   5.940   2.695  0.6893 -0.1892 -0.4617
   32MOL   H114 9476   1.989   5.751   2.568 -0.6808 -0.0814 -1.3505
   32MOL   H115 9477   1.886   5.654   2.667 -0.6391  0.3609 -0.6490
   32MOL   H116 9478   1.636   5.539   2.394 -2.0503  0.1666  2.3650
   32MOL   H117 9479   1.782   5.459   2.426  2.2782  0.9937  0.9127
   32MOL   H118 9480   1.673   5.512   2.561  2.0012 -1.3583  0.3109
   32MOL   H119 9481   1.610   6.012   2.649 -0.5984 -2.1389 -1.6442
   32MOL   H120 9482   1.739   6.003   2.760 -0.5044 -0.0166  0.5213
   32MOL   H121 9483   1.623   5.872   2.760  2.0570  0.0138  0.9334
   32MOL   C122 9484   1.816   5.717   2.322  0.0306 -0.2273 -0.1713
   32MOL   C123 9485   1.875   5.852   2.269 -0.1077 -0.2223 -0.1227
   32MOL   C124 9486   1.987   5.895   2.364  0.0141 -0.0299 -0.2826
   32MOL   C125 9487   1.935   5.819   2.124  0.0111 -0.0643 -0.3727
   32MOL   O126 9488   1.869   5.839   2.020  1.0971 -0.0381  0.2727
   32MOL   O127 9489   2.049   5.745   2.136  0.3979  0.4903 -0.0307
   32MOL   C128 9490   2.122   5.694   2.026  0.6803 -0.4862 -0.5801
   32MOL   H129 9491   1.725   5.706   2.265 -0.2318  0.2527  0.1584
   32MOL   H130 9492   1.869   5.631   2.280  1.9409  1.0385 -0.4159
   32MOL   H131 9493   2.031   5.983   2.317 -1.0918 -0.1907 -1.6464
   32MOL   H132 9494   1.963   5.934   2.463 -0.1506 -1.6829  0.3469
   32MOL   H133 9495   2.076   5.834   2.378 -0.3301 -0.3981  0.3361
   32MOL   H134 9496   2.053   5.625   1.977 -1.4074  1.1625 -0.0749
   32MOL   H135 9497   2.209   5.640   2.063 -0.4460  0.4598  3.7375
   32MOL   H136 9498   2.157   5.770   1.956  0.1677 -1.3042 -1.7516
   32MOL   C137 9499   1.763   5.961   2.266  0.1391  0.4162 -0.2969
   32MOL   C138 9500   1.777   6.121   2.267 -0.2007 -0.0885 -0.2775
   32MOL   C139 9501   1.810   6.161   2.415  0.2069 -0.2010  1.2945
   32MOL   C140 9502   1.881   6.159   2.163  0.2436  0.1715  0.1253
   32MOL   O141 9503   1.987   6.213   2.195 -0.2446  1.0476 -0.7703
   32MOL   O142 9504   1.849   6.124   2.042 -0.0830  0.0854  0.1453
   32MOL   C143 9505   1.920   6.159   1.929 -0.2237  0.7845 -0.0208
   32MOL   H144 9506   1.695   5.942   2.349 -0.5140  0.2477 -0.8700
   32MOL   H145 9507   1.701   5.932   2.181 -0.7504  0.2626  0.4040
   32MOL   H146 9508   1.916   6.148   2.438  1.0692  2.4313 -0.9973
   32MOL   H147 9509   1.790   6.267   2.430 -1.2324 -0.3733  0.6710
   32MOL   H148 9510   1.745   6.108   2.485 -1.3685  0.7441  0.5630
   32MOL   H149 9511   2.028   6.150   1.946 -0.4689 -1.0236  0.6749
   32MOL   H150 9512   1.905   6.264   1.902  0.2307  1.0778  0.8237
   32MOL   H151 9513   1.898   6.094   1.844  0.0683 -0.4266  0.8204
   32MOL   C152 9514   1.646   6.193   2.219  0.7842  0.1455 -0.2795
   32MOL   C153 9515   1.504   6.198   2.298 -0.3549  0.2815 -0.2615
   32MOL   C154 9516   1.460   6.057   2.341 -0.2625  0.0519  0.0467
   32MOL   C155 9517   1.526   6.281   2.424  0.6464  0.3076 -0.3358
   32MOL   O156 9518   1.505   6.225   2.531 -0.3484  0.3201  0.3671
   32MOL   O157 9519   1.555   6.405   2.399 -0.0239  0.0171  0.5105
   32MOL   C158 9520   1.555   6.489   2.511 -0.4642  0.5452  0.2188
   32MOL   H159 9521   1.619   6.156   2.120 -0.0266 -2.0282  0.7151
   32MOL   H160 9522   1.679   6.295   2.201 -1.7758  1.2351  1.0523
   32MOL   H161 9523   1.490   5.982   2.269 -1.8289  2.5070 -3.2722
   32MOL   H162 9524   1.512   6.028   2.433  1.1912 -1.5445 -1.2524
   32MOL   H163 9525   1.355   6.052   2.368 -0.0268  0.4521  1.0996
   32MOL   H164 9526   1.567   6.435   2.605 -2.5022  0.8430  0.6817
   32MOL   H165 9527   1.460   6.542   2.525 -1.7241 -1.2640 -1.2971
   32MOL   H166 9528   1.636   6.558   2.490 -0.0903 -0.0141 -0.1730
   32MOL   C167 9529   1.384   6.261   2.203 -0.2007  0.0555 -0.4184
   32MOL   C168 9530   1.247   6.333   2.252 -0.3832  0.2866  0.6440
   32MOL   C169 9531   1.176   6.332   2.113  0.6737  0.4075 -0.1534
   32MOL   C170 9532   1.169   6.256   2.362 -0.4027 -0.4950 -0.4981
   32MOL   O171 9533   1.065   6.195   2.343  0.3364 -0.4894 -0.1688
   32MOL   O172 9534   1.226   6.268   2.479  0.1329 -0.2785 -0.0934
   32MOL   C173 9535   1.182   6.188   2.590  0.4161 -0.0922  1.0520
   32MOL   H174 9536   1.359   6.182   2.132 -0.9605  0.2352 -0.3520
   32MOL   H175 9537   1.433   6.329   2.133 -2.2624  1.9058 -0.1328
   32MOL   H176 9538   1.232   6.382   2.034 -0.2409  2.6370  0.5627
   32MOL   H177 9539   1.159   6.228   2.086  0.8572  1.0112 -2.6954
   32MOL   H178 9540   1.082   6.386   2.126  1.0881  0.6554  2.0046
   32MOL   H179 9541   1.239   6.209   2.680 -0.7308 -0.9561  1.9888
   32MOL   H180 9542   1.201   6.084   2.565  1.3850  0.4676 -0.6103
   32MOL   H181 9543   1.074   6.203   2.604  0.5765 -0.2990  2.6189
   32MOL   C182 9544   1.289   6.481   2.292  0.4418 -0.5382 -0.1109
   32MOL   C183 9545   1.192   6.609   2.283  0.4182 -0.0439 -0.0041
   32MOL   C184 9546   1.171   6.658   2.138 -0.1809 -0.7548 -0.5381
   32MOL   C185 9547   1.052   6.568   2.339  0.8261 -0.1452 -0.5228
   32MOL   O186 9548   0.953   6.555   2.268  0.1309  0.0112  0.3293
   32MOL   O187 9549   1.044   6.545   2.469 -0.3018 -0.0809  0.4300
   32MOL   C188 9550   0.924   6.510   2.533 -0.1334  0.4618 -0.4983
   32MOL   H189 9551   1.379   6.507   2.237 -0.8857 -2.4675 -3.3825
   32MOL   H190 9552   1.312   6.470   2.398  0.7325 -2.2179 -0.3242
   32MOL   H191 9553   1.099   6.591   2.092 -1.4391  0.8369 -0.9283
   32MOL   H192 9554   1.120   6.754   2.141 -1.5624 -1.5276  1.5411
   32MOL   H193 9555   1.259   6.663   2.073  0.1445 -0.4359 -0.0809
   32MOL   H194 9556   0.841   6.568   2.493 -1.2729 -0.3008  0.7108
   32MOL   H195 9557   0.931   6.521   2.641 -1.6614 -1.6115 -0.1747
   32MOL   H196 9558   0.909   6.404   2.513 -1.5984  0.6356 -0.3446
   32MOL   C197 9559   1.252   6.722   2.380 -0.2811 -0.2507 -0.2874
   32MOL   C198 9560   1.369   6.819   2.339  0.2697 -0.3913  1.2688
   32MOL   C199 9561   1.420   6.872   2.473 -0.0259  0.6337 -0.1361
   32MOL   C200 9562   1.492   6.756   2.276  0.0883  0.0012 -0.3477
   32MOL   O201 9563   1.592   6.734   2.341  0.0925 -0.6045  0.3201
   32MOL   O202 9564   1.473   6.733   2.142 -0.2707  0.2198 -0.1877
   32MOL   C203 9565   1.564   6.648   2.070 -0.1621  0.2568  0.1046
   32MOL   H204 9566   1.282   6.667   2.470 -2.4790 -2.6156 -0.9385
   32MOL   H205 9567   1.173   6.791   2.412  0.4421 -0.8869  3.0951
   32MOL   H206 9568   1.342   6.929   2.523  0.0577 -1.0744  1.9948
   32MOL   H207 9569   1.455   6.793   2.540  2.1900  0.4262 -1.4900
   32MOL   H208 9570   1.497   6.947   2.453  1.2703 -0.8810 -0.9801
   32MOL   H209 9571   1.612   6.580   2.140 -1.7573 -0.5545  0.4470
   32MOL   H210 9572   1.639   6.713   2.026 -1.8704  0.7731 -2.1336
   32MOL   H211 9573   1.502   6.600   1.993 -0.7412  2.9305 -1.1499
   32MOL   C212 9574   1.314   6.934   2.246 -0.5833  0.1500  0.0072
   32MOL   C213 9575   1.373   7.081   2.232 -0.2679 -0.0456 -0.1463
   32MOL   C214 9576   1.309   7.173   2.338  0.6028 -0.5312  0.2919
   32MOL   C215 9577   1.529   7.075   2.242  0.5345  0.1749  0.3364
   32MOL   O216 9578   1.587   7.143   2.331  0.0791  0.1428 -0.1379
   32MOL   O217 9579   1.584   7.001   2.148 -0.0450  0.2765 -0.5498
   32MOL   C218 9580   1.727   6.998   2.149  0.8685  0.1073  0.6786
   32MOL   H219 9581   1.210   6.938   2.278 -0.6197  1.2416 -0.2461
   32MOL   H220 9582   1.305   6.894   2.145  2.2424  0.7076 -0.5124
   32MOL   H221 9583   1.208   7.197   2.306  1.1635  1.1007 -0.3085
   32MOL   H222 9584   1.322   7.141   2.441  1.4787  2.0062  1.0246
   32MOL   H223 9585   1.370   7.264   2.340  1.1371 -0.9061  1.9650
   32MOL   H224 9586   1.782   6.938   2.077 -2.5179 -0.4840 -1.5219
   32MOL   H225 9587   1.776   6.963   2.240 -1.4401 -0.3100  1.7824
   32MOL   H226 9588   1.756   7.103   2.138  0.4549  0.1329 -0.1932
   32MOL   C227 9589   1.333   7.127   2.080  0.3261 -0.5658 -0.7328
   32MOL   C228 9590   1.367   7.271   2.012  0.1103  0.8470 -0.5251
   32MOL   C229 9591   1.307   7.261   1.869 -0.7119 -0.3741 -0.2014
   32MOL   C230 9592   1.283   7.375   2.092 -0.0210  0.1954  0.2595
   32MOL   O231 9593   1.328   7.462   2.161  0.3416  0.5518  0.2553
   32MOL   O232 9594   1.152   7.355   2.085  0.6170 -0.1460 -0.0346
   32MOL   C233 9595   1.066   7.472   2.079  0.2018  0.2409 -0.6042
   32MOL   H234 9596   1.228   7.102   2.067  0.4216 -1.1482 -0.4070
   32MOL   H235 9597   1.382   7.067   2.003 -0.5106 -1.8885 -0.2526
   32MOL   H236 9598   1.205   7.223   1.877 -0.3486 -0.7940  3.3635
   32MOL   H237 9599   1.310   7.357   1.817 -1.4867  0.2246  0.8341
   32MOL   H238 9600   1.355   7.189   1.803  0.8024 -0.5421  1.0730
   32MOL   H239 9601   1.026   7.508   2.173  0.9889 -0.2340 -0.0754
   32MOL   H240 9602   0.984   7.432   2.019  0.8191 -0.6270 -0.8763
   32MOL   H241 9603   1.120   7.548   2.022 -0.1002  0.3472 -0.7497
   32MOL   C242 9604   1.526   7.300   2.017 -0.2740 -0.0352 -0.0866
   32MOL   C243 9605   1.599   7.416   1.935  0.1536  0.4101  0.3440
   32MOL   C244 9606   1.604   7.372   1.789 -0.2973  0.0653 -0.9733
   32MOL   C245 9607   1.516   7.556   1.944 -0.0465 -0.3448 -0.2180
   32MOL   O246 9608   1.452   7.600   1.853 -0.2641  0.3371 -0.0557
   32MOL   O247 9609   1.534   7.621   2.054  0.4347  0.1976 -0.0393
   32MOL   C248 9610   1.473   7.748   2.072  0.6109 -0.5121  0.1977
   32MOL   H249 9611   1.583   7.208   2.008 -1.1980 -0.3317 -3.5419
   32MOL   H250 9612   1.547   7.326   2.121  1.8495  0.7347 -0.6873
   32MOL   H251 9613   1.511   7.335   1.745 -1.6425  2.1616  0.0332
   32MOL   H252 9614   1.645   7.449   1.723  0.3094  1.3373  0.8269
   32MOL   H253 9615   1.672   7.290   1.766  1.2105  1.1730 -0.5722
   32MOL   H254 9616   1.504   7.789   2.168  0.8874  2.2965 -1.0294
   32MOL   H255 9617   1.365   7.737   2.082  0.7735 -1.5896  0.7532
   32MOL   H256 9618   1.511   7.811   1.991  1.6464 -1.2657  0.0852
   32MOL   C257 9619   1.746   7.440   2.001  0.4901  0.7214 -0.1894
   32MOL   C258 9620   1.870   7.525   1.951  1.0639 -0.2345 -0.2242
   32MOL   C259 9621   1.922   7.456   1.817  0.3353  0.6554  0.1049
   32MOL   C260 9622   1.844   7.682   1.934 -0.5788 -0.0386  0.2407
   32MOL   O261 9623   1.830   7.739   1.826 -0.2487  0.1500  0.2903
   32MOL   O262 9624   1.835   7.746   2.050 -0.3896  0.5314 -0.2467
   32MOL   C263 9625   1.814   0.008   2.054 -0.4453  0.0330  0.0235
   32MOL   H264 9626   1.779   7.337   2.013 -0.9242 -0.1271 -3.0762
   32MOL   H265 9627   1.716   7.469   2.101 -1.4306 -0.0356 -0.5110
   32MOL   H266 9628   2.007   7.509   1.774  0.6282  1.1339  1.2428
   32MOL   H267 9629   1.961   7.358   1.845  1.3410  1.0956  0.2663
   32MOL   H268 9630   1.839   7.453   1.747 -1.2433  2.8196  1.8144
   32MOL   H269 9631   1.882   0.076   2.003  0.1755 -0.3769  0.3116
   32MOL   H270 9632   1.809   0.032   2.160 -2.2111 -0.4113  0.0542
   32MOL   H271 9633   1.719   0.039   2.010 -0.5894 -1.6719 -0.8917
   32MOL   C272 9634   1.974   7.505   2.074 -0.2374  0.3840 -0.2358
   32MOL   C273 9635   2.115   7.577   2.087 -0.1452 -0.2432  0.1055
   32MOL   C274 9636   2.174   7.625   1.951 -0.3148  0.1238  0.4771
   32MOL   C275 9637   2.097   7.701   2.182 -0.1785  0.5911  1.1994
   32MOL   O276 9638   2.093   7.813   2.134 -0.0571  0.3173  0.0992
   32MOL   O277 9639   2.078   7.665   2.307  0.3705 -0.3177  0.2204
   32MOL   C278 9640   2.101   7.759   2.413 -0.0115  0.0721 -0.3288
   32MOL   H279 9641   1.982   7.397   2.084  0.5316  0.5204  0.6476
   32MOL   H280 9642   1.920   7.520   2.167  1.6867 -0.5892  1.0703
   32MOL   H281 9643   2.253   7.699   1.952  0.2581 -0.4186 -1.3706
   32MOL   H282 9644   2.211   7.543   1.889 -0.8744  0.7599 -0.7197
   32MOL   H283 9645   2.090   7.679   1.907  0.6707  0.7457 -0.6770
   32MOL   H284 9646   2.120   7.705   2.506 -0.4139  1.9523  0.8723
   32MOL   H285 9647   2.013   7.820   2.434 -0.5568 -0.7107 -0.3363
   32MOL   H286 9648   2.176   7.835   2.392  0.6525 -0.0764  1.4691
   32MOL   C287 9649   2.211   7.473   2.151  0.5505 -0.3339  0.2732
   32MOL   C288 9650   2.341   7.527   2.208 -0.3405 -0.0570 -0.4135
   32MOL   C289 9651   2.353   7.495   2.365 -0.1848 -0.7050 -0.2014
   32MOL   C290 9652   2.473   7.490   2.136 -0.1762 -0.3065  0.1634
   32MOL   O291 9653   2.540   7.393   2.165  0.0081  0.2970  0.1598
   32MOL   O292 9654   2.514   7.581   2.044 -0.1973 -0.1385  0.1404
   32MOL   C293 9655   2.645   7.566   1.971  0.3822  0.0065  0.1606
   32MOL   H294 9656   2.240   7.399   2.076 -0.2285 -0.9192  0.5417
   32MOL   H295 9657   2.162   7.407   2.223  1.7283 -2.3670 -0.7464
   32MOL   H296 9658   2.336   7.387   2.368  0.4242 -0.8025 -0.3002
   32MOL   H297 9659   2.454   7.504   2.403  0.2716  0.9238 -1.7277
   32MOL   H298 9660   2.280   7.549   2.425  0.2260  0.0177 -0.3450
   32MOL   H299 9661   2.721   7.597   2.042  1.4559  1.1135 -1.4208
   32MOL   H300 9662   2.660   7.625   1.881  2.1935  2.1597  1.8189
   32MOL   H301 9663   2.665   7.464   1.941  1.4017  1.0063 -2.7017
   32MOL   H302 9664   2.340   7.635   2.196  1.3724 -0.0216 -0.4110
   33MOL     C1 9665   0.004   4.157   7.174 -0.1583 -0.4081  0.1355
   33MOL     C2 9666   7.843   4.231   7.041 -0.6588  0.5712 -0.6910
   33MOL     C3 9667   0.076   4.331   7.012  0.1595  0.0514  0.3566
   33MOL     C4 9668   7.846   4.119   6.932  0.7634  0.0427 -0.0563
   33MOL     O5 9669   0.009   4.002   6.949  0.9720 -0.3056  0.7615
   33MOL     O6 9670   7.785   4.157   6.819 -0.0821  0.2556 -0.7900
   33MOL     C7 9671   7.756   4.065   6.716  0.2083 -0.2336 -0.0571
   33MOL     H8 9672   0.004   4.220   7.263  0.8993  0.0837 -0.2040
   33MOL     H9 9673   7.819   4.069   7.190  2.1575 -1.8385  1.7365
   33MOL    H10 9674   0.056   4.391   6.923  0.2530 -2.5705 -1.4915
   33MOL    H11 9675   0.092   4.402   7.093 -0.3126  1.2130 -0.5660
   33MOL    H12 9676   0.170   4.286   6.980  0.1568  0.8584 -0.8191
   33MOL    H13 9677   7.677   3.997   6.749  0.9436 -1.6339 -1.0875
   33MOL    H14 9678   7.841   4.007   6.680 -0.6635 -2.1711  0.9223
   33MOL    H15 9679   7.718   4.123   6.632  0.3385 -0.4163 -0.2438
   33MOL    H16 9680   0.108   4.125   7.169  0.1811  0.7626 -0.2872
   33MOL    C17 9681   7.714   4.316   7.053  0.1033 -0.3000 -0.2026
   33MOL    C18 9682   7.572   4.258   7.102  0.3699 -0.6260 -0.7175
   33MOL    C19 9683   7.537   4.131   7.021  0.1161 -0.0468 -0.0345
   33MOL    C20 9684   7.579   4.222   7.250 -0.3340 -0.1794  0.2718
   33MOL    O21 9685   7.521   4.133   7.303  0.4107  0.1031  0.2098
   33MOL    O22 9686   7.644   4.313   7.324 -0.2493 -0.4432  0.0064
   33MOL    C23 9687   7.681   4.280   7.462  0.1855  0.1824  0.1920
   33MOL    H24 9688   7.705   4.359   6.953  3.2238  1.6085  0.2553
   33MOL    H25 9689   7.738   4.407   7.108 -1.1390  0.2852 -0.6019
   33MOL    H26 9690   7.547   4.146   6.913 -0.2961 -1.8344 -0.3375
   33MOL    H27 9691   7.608   4.052   7.047  0.7529  0.1465 -1.1049
   33MOL    H28 9692   7.437   4.090   7.036  0.5102 -1.5064 -1.1869
   33MOL    H29 9693   7.674   4.172   7.472 -0.3248  0.2318  0.4365
   33MOL    H30 9694   7.607   4.337   7.520 -2.3434 -0.7383 -2.0062
   33MOL    H31 9695   7.778   4.316   7.495  1.1932 -1.5241 -0.8949
   33MOL    C32 9696   7.467   4.369   7.061  0.3345 -0.7904 -0.3377
   33MOL    C33 9697   7.314   4.371   7.092  0.5159  0.1316 -0.2261
   33MOL    C34 9698   7.249   4.232   7.090  0.3554 -0.2542  0.1440
   33MOL    C35 9699   7.281   4.439   7.229  0.7727  0.3804 -1.7677
   33MOL    O36 9700   7.365   4.489   7.301 -0.2816 -0.3647 -0.7475
   33MOL    O37 9701   7.144   4.437   7.256 -0.0508  0.1639  0.2779
   33MOL    C38 9702   7.099   4.503   7.367  0.3019 -0.0261 -0.2490
   33MOL    H39 9703   7.467   4.367   6.952  1.4244 -1.1420 -0.3382
   33MOL    H40 9704   7.512   4.465   7.085  1.8979 -0.9976 -2.3016
   33MOL    H41 9705   7.140   4.236   7.085  0.4294  1.5649 -0.6989
   33MOL    H42 9706   7.268   4.183   6.994 -2.4479 -0.8523 -0.1397
   33MOL    H43 9707   7.284   4.172   7.174 -1.6879 -1.6500  0.0347
   33MOL    H44 9708   7.112   4.611   7.371 -0.2706  0.0665 -0.8106
   33MOL    H45 9709   7.158   4.471   7.453 -0.0971 -0.6804 -0.2212
   33MOL    H46 9710   6.991   4.493   7.372  0.4231 -1.7782 -0.9751
   33MOL    C47 9711   7.241   4.454   6.983  0.4003 -0.1527  0.1709
   33MOL    C48 9712   7.276   4.600   6.929  0.2567 -0.1629  0.2095
   33MOL    C49 9713   7.308   4.697   7.043  0.2479  0.0013  0.0391
   33MOL    C50 9714   7.384   4.583   6.826 -0.5401  0.2163 -0.7950
   33MOL    O51 9715   7.488   4.651   6.840  0.5022  0.0715  0.3188
   33MOL    O52 9716   7.360   4.496   6.725  0.7861  0.3481  0.0232
   33MOL    C53 9717   7.465   4.453   6.645  0.3229  0.0140  0.3463
   33MOL    H54 9718   7.136   4.454   7.011  0.6950 -0.5218  1.3150
   33MOL    H55 9719   7.246   4.396   6.890  0.5651 -0.6935  0.5128
   33MOL    H56 9720   7.388   4.669   7.112 -1.0441 -0.0182  1.5683
   33MOL    H57 9721   7.338   4.797   7.011  0.6261 -0.1359 -0.0276
   33MOL    H58 9722   7.220   4.712   7.106 -0.4986  0.7053 -1.1390
   33MOL    H59 9723   7.417   4.417   6.554 -2.1029  2.4060  0.6234
   33MOL    H60 9724   7.528   4.378   6.693  0.5096 -0.0262  0.0368
   33MOL    H61 9725   7.524   4.540   6.617  1.4612 -0.4880  1.1485
   33MOL    C62 9726   7.139   4.653   6.862  0.0505  0.2496 -0.5305
   33MOL    C63 9727   7.103   4.789   6.799 -0.7363 -0.2804 -0.2417
   33MOL    C64 9728   6.947   4.784   6.770  0.1232  0.3429  0.0820
   33MOL    C65 9729   7.131   4.909   6.899 -0.3538 -0.5884  0.1086
   33MOL    O66 9730   7.217   4.994   6.868  0.2079  0.0144  0.1752
   33MOL    O67 9731   7.059   4.901   7.008 -0.0282  0.3032  0.0186
   33MOL    C68 9732   7.078   4.999   7.118 -0.4996 -1.2242 -0.1829
   33MOL    H69 9733   7.070   4.646   6.946 -0.9887 -0.0264 -1.3870
   33MOL    H70 9734   7.102   4.575   6.795 -0.6543  0.4611 -0.3921
   33MOL    H71 9735   6.916   4.706   6.701  1.2788  2.1389 -2.5424
   33MOL    H72 9736   6.904   4.765   6.868 -1.3773  0.5937 -0.5096
   33MOL    H73 9737   6.915   4.884   6.740 -0.4354  0.3072  0.5413
   33MOL    H74 9738   7.011   4.980   7.202 -0.7868  2.3614  0.4837
   33MOL    H75 9739   7.057   5.098   7.079  1.5234 -0.5553  0.3504
   33MOL    H76 9740   7.184   4.992   7.146 -0.7036 -1.4479  0.5608
   33MOL    C77 9741   7.186   4.806   6.669 -0.8734  0.3206 -0.4471
   33MOL    C78 9742   7.143   4.899   6.550  0.0770 -0.3095 -0.0637
   33MOL    C79 9743   7.015   4.848   6.476  0.2380  0.4834  0.0378
   33MOL    C80 9744   7.136   5.046   6.587 -0.1615  0.6964 -0.2790
   33MOL    O81 9745   7.029   5.099   6.597  0.2552 -0.8274  1.0524
   33MOL    O82 9746   7.252   5.110   6.612  0.0164  0.4802  1.0436
   33MOL    C83 9747   7.244   5.249   6.641  0.4044 -0.4546 -0.4491
   33MOL    H84 9748   7.187   4.709   6.619 -0.7913  0.8407 -1.4811
   33MOL    H85 9749   7.286   4.824   6.709 -1.0664  0.0997  0.1340
   33MOL    H86 9750   6.985   4.888   6.380  1.5470 -2.2081 -1.5443
   33MOL    H87 9751   7.029   4.740   6.470 -0.4147  0.3307  1.0160
   33MOL    H88 9752   6.924   4.852   6.536  0.1270 -1.6114  0.0751
   33MOL    H89 9753   7.174   5.298   6.573 -0.0179  1.4979  1.3609
   33MOL    H90 9754   7.340   5.301   6.648  0.1166 -0.0821  0.7682
   33MOL    H91 9755   7.207   5.268   6.741  1.0617 -1.8403  0.0741
   33MOL    C92 9756   7.254   4.886   6.442 -0.2984  0.1760  0.4059
   33MOL    C93 9757   7.280   4.766   6.336  0.2506 -0.0132 -0.2108
   33MOL    C94 9758   7.313   4.637   6.408  0.2190  0.2900  0.0018
   33MOL    C95 9759   7.167   4.748   6.228  0.5093 -0.1460  0.8819
   33MOL    O96 9760   7.086   4.651   6.230  0.0402  0.2607  1.0114
   33MOL    O97 9761   7.156   4.849   6.143  0.2089 -0.9495  0.0891
   33MOL    C98 9762   7.044   4.861   6.059  0.2027 -0.4325  0.3300
   33MOL    H99 9763   7.351   4.895   6.492 -0.3230 -0.8419  0.6508
   33MOL   H100 9764   7.251   4.970   6.374 -1.8235 -0.7944 -0.7552
   33MOL   H101 9765   7.367   4.663   6.499 -1.0310  1.4385  0.4223
   33MOL   H102 9766   7.223   4.585   6.441  0.3027  1.1896  1.6903
   33MOL   H103 9767   7.369   4.558   6.357  0.5984  0.5315  0.0423
   33MOL   H104 9768   6.950   4.839   6.108  0.1102  1.2110  0.9277
   33MOL   H105 9769   7.065   4.790   5.979  0.6725 -0.1452  0.1916
   33MOL   H106 9770   7.036   4.962   6.019  2.0097 -0.3228  0.1689
   33MOL   C107 9771   7.410   4.821   6.257  0.1172  0.1875 -0.0180
   33MOL   C108 9772   7.489   4.737   6.141  0.1896  0.3064 -0.2986
   33MOL   C109 9773   7.395   4.633   6.062 -0.0881  0.0907 -0.0642
   33MOL   C110 9774   7.533   4.847   6.042 -0.2594 -0.0778 -0.1718
   33MOL   O111 9775   7.637   4.911   6.059 -0.7164 -0.2807 -0.5575
   33MOL   O112 9776   7.441   4.881   5.942  0.1008  0.1761  0.1740
   33MOL   C113 9777   7.464   4.995   5.856 -0.3174  0.3034  0.2517
   33MOL   H114 9778   7.488   4.837   6.331 -0.3117 -0.3865  0.5590
   33MOL   H115 9779   7.398   4.922   6.219 -0.7840  0.1855  0.2599
   33MOL   H116 9780   7.332   4.567   6.121  0.3643  1.3421  1.8379
   33MOL   H117 9781   7.327   4.679   5.991  0.0410 -0.5285 -0.5955
   33MOL   H118 9782   7.449   4.561   6.000 -0.9313  0.3727 -1.1288
   33MOL   H119 9783   7.400   5.081   5.876 -0.0174  0.3508  1.0054
   33MOL   H120 9784   7.450   4.977   5.749  0.2220  0.3113  0.1784
   33MOL   H121 9785   7.571   5.017   5.862 -0.0464 -0.7735 -0.5665
   33MOL   C122 9786   7.615   4.663   6.198 -0.0709 -0.2978 -0.7581
   33MOL   C123 9787   7.699   4.546   6.124 -0.4334 -0.2134 -0.2962
   33MOL   C124 9788   7.827   4.552   6.208 -0.0425  0.2552 -1.0561
   33MOL   C125 9789   7.621   4.418   6.146 -0.1384  0.5899 -0.0511
   33MOL   O126 9790   7.593   4.339   6.058 -0.4152  0.4216  0.2115
   33MOL   O127 9791   7.591   4.389   6.285 -0.0193 -0.4773 -0.0404
   33MOL   C128 9792   7.534   4.277   6.331 -0.1831  0.4187  0.1900
   33MOL   H129 9793   7.581   4.619   6.292  2.0829  1.1393  0.7664
   33MOL   H130 9794   7.683   4.744   6.225 -0.4411  0.4355 -1.9864
   33MOL   H131 9795   0.001   4.648   6.205 -0.9065  0.8273  1.5145
   33MOL   H132 9796   7.810   4.535   6.314  0.4152  0.5683 -0.9302
   33MOL   H133 9797   0.018   4.475   6.173 -0.9258 -0.6847 -0.7433
   33MOL   H134 9798   7.433   4.298   6.367  0.3409  1.0410  1.3290
   33MOL   H135 9799   7.583   4.244   6.423 -0.4805  1.3884  0.7063
   33MOL   H136 9800   7.540   4.186   6.271  2.0157  0.7764 -0.1610
   33MOL   C137 9801   7.724   4.568   5.963  0.0809 -0.6538  0.1166
   33MOL   C138 9802   7.867   4.539   5.897 -0.2395 -0.1958 -0.3929
   33MOL   C139 9803   0.105   4.640   5.938 -0.1122  0.2812 -0.3646
   33MOL   C140 9804   0.031   4.397   5.907 -0.5356  0.0546 -0.9403
   33MOL   O141 9805   7.846   4.308   5.958  0.5462  0.1475 -0.6170
   33MOL   O142 9806   0.144   4.376   5.837 -0.0792  0.0552  0.2479
   33MOL   C143 9807   0.203   4.248   5.842 -0.3901  0.3730 -0.5675
   33MOL   H144 9808   7.706   4.675   5.948 -0.6002 -1.0435 -2.0036
   33MOL   H145 9809   7.639   4.525   5.910 -0.1644  1.3704 -1.1757
   33MOL   H146 9810   0.194   4.630   5.876 -0.0632 -0.0057 -0.2482
   33MOL   H147 9811   0.071   4.744   5.943  1.4231  0.7740  0.0456
   33MOL   H148 9812   0.140   4.607   6.036  1.0829 -2.6545 -1.7189
   33MOL   H149 9813   0.129   4.176   5.807 -1.4504  1.3352 -0.3392
   33MOL   H150 9814   0.239   4.222   5.941 -0.0574 -0.3622 -0.8835
   33MOL   H151 9815   0.293   4.254   5.781  1.1140 -1.5457  1.3752
   33MOL   C152 9816   7.850   4.572   5.736 -0.6971  0.0432 -0.2618
   33MOL   C153 9817   7.734   4.529   5.647  0.0788 -0.2258 -0.0989
   33MOL   C154 9818   7.697   4.384   5.666  0.0470 -0.1129 -0.3651
   33MOL   C155 9819   7.606   4.622   5.670  0.1309 -1.4277  0.7536
   33MOL   O156 9820   7.610   4.731   5.737  0.2306 -0.5199 -0.1138
   33MOL   O157 9821   7.494   4.572   5.618 -0.2225 -0.6993  0.3597
   33MOL   C158 9822   7.376   4.657   5.613 -0.5681  0.2657 -0.6829
   33MOL   H159 9823   0.062   4.538   5.684 -1.7140 -3.3982  0.1510
   33MOL   H160 9824   7.853   4.681   5.738 -1.5757  0.0469  1.7664
   33MOL   H161 9825   7.664   4.365   5.768 -1.6845  0.9689 -0.7114
   33MOL   H162 9826   7.613   4.351   5.606  1.4964 -0.4579 -2.2401
   33MOL   H163 9827   7.782   4.319   5.643  0.1727 -0.3763  0.7794
   33MOL   H164 9828   7.341   4.665   5.716 -1.1839 -2.9341 -0.6082
   33MOL   H165 9829   7.316   4.596   5.546  0.2928 -1.1131 -0.2083
   33MOL   H166 9830   7.387   4.754   5.563 -0.5872 -0.7875 -2.7752
   33MOL   C167 9831   7.778   4.530   5.494 -0.0450  0.2356  0.4108
   33MOL   C168 9832   7.799   4.663   5.410 -0.9509 -0.7887  0.3809
   33MOL   C169 9833   0.000   4.769   5.496  0.1238 -0.1609 -0.0736
   33MOL   C170 9834   0.024   4.629   5.294  0.0536 -0.0772  0.6741
   33MOL   O171 9835   0.124   4.696   5.270 -0.4134  0.2564  0.1544
   33MOL   O172 9836   7.861   4.515   5.240  0.0633 -0.1060 -0.5655
   33MOL   C173 9837   0.045   4.468   5.122  0.1209  0.2399  0.1923
   33MOL   H174 9838   7.689   4.498   5.440  0.1511 -0.0294  0.2501
   33MOL   H175 9839   7.859   4.461   5.471 -1.6954 -1.4119 -0.5720
   33MOL   H176 9840   0.093   4.732   5.540  0.0344  0.6081  0.7780
   33MOL   H177 9841   0.038   4.852   5.436 -1.7290  0.6768 -0.1394
   33MOL   H178 9842   7.817   4.818   5.572  0.7490 -0.2155  0.4636
   33MOL   H179 9843   0.088   4.543   5.056  1.3577 -0.1817  0.4984
   33MOL   H180 9844   7.850   4.402   5.075  1.8099 -2.1699  0.8685
   33MOL   H181 9845   0.128   4.404   5.152 -0.5375 -0.2122  1.0809
   33MOL   C182 9846   7.672   4.736   5.352  0.0916 -0.0136  0.3441
   33MOL   C183 9847   7.582   4.706   5.221 -0.1104  1.0404  0.0259
   33MOL   C184 9848   7.661   4.730   5.089  0.1236 -0.0652  0.0562
   33MOL   C185 9849   7.541   4.556   5.215  1.1310  0.2205 -0.7390
   33MOL   O186 9850   7.565   4.483   5.126  0.1047 -0.7772  0.7668
   33MOL   O187 9851   7.464   4.513   5.320 -0.0305  0.2424 -0.2022
   33MOL   C188 9852   7.444   4.376   5.334 -0.2482 -0.5176 -0.2121
   33MOL   H189 9853   7.707   4.837   5.328  0.8166 -0.5395 -0.8294
   33MOL   H190 9854   7.607   4.752   5.438 -0.3435 -0.4238  0.0894
   33MOL   H191 9855   7.606   4.694   5.002 -0.9981 -0.4506  0.9306
   33MOL   H192 9856   7.688   4.834   5.073 -0.2912 -0.0634 -0.6863
   33MOL   H193 9857   7.759   4.682   5.078  0.9543  2.0351 -2.4705
   33MOL   H194 9858   7.409   4.366   5.437  1.6734  0.9605  0.6304
   33MOL   H195 9859   7.531   4.313   5.316  1.3293  0.8545  2.2588
   33MOL   H196 9860   7.361   4.362   5.265  0.7706  0.7262 -1.7079
   33MOL   C197 9861   7.453   4.793   5.234 -0.5849 -0.5112  0.6088
   33MOL   C198 9862   7.355   4.830   5.115 -0.0552  0.4160 -0.4434
   33MOL   C199 9863   7.421   4.941   5.023  0.3804 -0.5881  0.5665
   33MOL   C200 9864   7.322   4.712   5.021 -0.5507  0.5578 -0.6037
   33MOL   O201 9865   7.351   4.719   4.902 -0.0496  0.3557  0.1249
   33MOL   O202 9866   7.256   4.608   5.087  0.7482  0.2851  0.6046
   33MOL   C203 9867   7.243   4.486   5.026 -0.5004 -0.3740 -0.2259
   33MOL   H204 9868   7.489   4.892   5.263 -1.4531  0.4124 -1.3933
   33MOL   H205 9869   7.394   4.751   5.316 -1.0065 -1.1192 -0.0090
   33MOL   H206 9870   7.348   4.997   4.963  0.2003  0.3406  1.6340
   33MOL   H207 9871   7.477   5.006   5.090  1.5548 -0.8492 -0.1545
   33MOL   H208 9872   7.497   4.908   4.953 -0.0598  0.6962 -0.5436
   33MOL   H209 9873   7.337   4.443   4.993 -1.1521 -1.0664 -1.2180
   33MOL   H210 9874   7.183   4.506   4.937  2.4713  0.2543 -2.1515
   33MOL   H211 9875   7.184   4.419   5.090 -0.1837  0.2073  0.6724
   33MOL   C212 9876   7.218   4.864   5.183  0.0195  0.3511 -0.1001
   33MOL   C213 9877   7.182   5.000   5.253  0.3816 -0.1546  0.0858
   33MOL   C214 9878   7.287   5.023   5.366  0.3765  0.0053 -1.2122
   33MOL   C215 9879   7.185   5.119   5.148 -0.1166 -0.1163 -0.2368
   33MOL   O216 9880   7.244   5.223   5.179  0.4646  1.0802  0.0019
   33MOL   O217 9881   7.114   5.099   5.037 -0.5700 -0.0809  0.0093
   33MOL   C218 9882   7.110   5.203   4.940  0.1006 -0.1996  0.5486
   33MOL   H219 9883   7.186   4.783   5.249  0.6765 -0.1597 -0.4051
   33MOL   H220 9884   7.138   4.850   5.111 -2.7001  4.3664  1.9379
   33MOL   H221 9885   7.252   5.093   5.442 -0.0865 -0.8659 -0.6032
   33MOL   H222 9886   7.290   4.932   5.426 -1.1909  2.2111  2.3860
   33MOL   H223 9887   7.376   5.062   5.318  1.3815 -2.8651 -1.7473
   33MOL   H224 9888   7.105   5.305   4.978  1.4518  0.5304 -1.2077
   33MOL   H225 9889   7.026   5.188   4.873  0.9407 -1.5538 -0.2105
   33MOL   H226 9890   7.201   5.207   4.881  0.4664 -2.0026  0.9587
   33MOL   C227 9891   7.036   4.977   5.311  0.7751 -0.1659 -0.1731
   33MOL   C228 9892   6.959   5.061   5.412  0.3263  0.8212  0.0678
   33MOL   C229 9893   6.993   5.013   5.552 -0.3689  0.2674  0.3377
   33MOL   C230 9894   6.987   5.213   5.390  0.2272 -0.2345 -0.5852
   33MOL   O231 9895   7.032   5.289   5.476 -0.3610  0.3242 -0.2228
   33MOL   O232 9896   6.943   5.251   5.271 -0.2608  0.2296  0.1158
   33MOL   C233 9897   6.936   5.385   5.230 -0.0194  0.1194  0.3751
   33MOL   H234 9898   7.034   4.877   5.354 -1.6638  1.2165  3.2009
   33MOL   H235 9899   6.971   4.951   5.227 -0.5621 -0.6769  1.0151
   33MOL   H236 9900   6.942   4.919   5.568 -2.3514  1.6138  2.1702
   33MOL   H237 9901   7.101   5.012   5.570 -0.4596  0.4377  0.9002
   33MOL   H238 9902   6.953   5.087   5.621 -1.3306 -0.5025  0.6040
   33MOL   H239 9903   6.871   5.394   5.143  2.0936 -1.1308 -1.3911
   33MOL   H240 9904   7.039   5.407   5.202  0.1141 -0.4108  0.4448
   33MOL   H241 9905   6.892   5.450   5.305  0.0153 -1.2664  1.6252
   33MOL   C242 9906   6.805   5.029   5.399  0.3592  0.0386 -0.4737
   33MOL   C243 9907   6.683   5.074   5.492 -0.2409 -0.2059 -0.1786
   33MOL   C244 9908   6.689   5.222   5.513 -0.2864  0.0558 -0.9956
   33MOL   C245 9909   6.550   5.045   5.406  0.5390 -0.2168 -0.0332
   33MOL   O246 9910   6.461   5.125   5.390  0.0913  0.1820 -0.4010
   33MOL   O247 9911   6.548   4.916   5.356 -0.1692  0.0874 -0.1112
   33MOL   C248 9912   6.431   4.878   5.286  0.1464 -0.0508 -1.2308
   33MOL   H249 9913   6.793   4.925   5.369 -1.2711  0.3691 -1.0294
   33MOL   H250 9914   6.773   5.080   5.307 -0.4314 -1.4522 -1.0398
   33MOL   H251 9915   6.708   5.272   5.418  0.8499  1.3334 -0.0983
   33MOL   H252 9916   6.595   5.263   5.552  0.1473 -0.0002  0.1286
   33MOL   H253 9917   6.768   5.245   5.585 -0.7416  1.1135 -0.8196
   33MOL   H254 9918   6.344   4.931   5.325  0.4070  1.2619 -2.3864
   33MOL   H255 9919   6.413   4.775   5.317 -0.6812  0.3636 -0.2978
   33MOL   H256 9920   6.440   4.878   5.178  0.5523  0.4477 -1.1973
   33MOL   C257 9921   6.679   4.991   5.621  0.2377  0.2453  0.1239
   33MOL   C258 9922   6.550   4.975   5.717  0.0480  0.2609 -0.3430
   33MOL   C259 9923   6.465   5.106   5.735  0.1543  0.1716 -0.0964
   33MOL   C260 9924   6.452   4.860   5.662 -0.7784  0.4045 -1.0318
   33MOL   O261 9925   6.334   4.873   5.631 -0.1705 -0.4679 -0.1407
   33MOL   O262 9926   6.522   4.742   5.641 -0.0048 -0.7403 -0.2702
   33MOL   C263 9927   6.455   4.630   5.588  0.3711  0.1067 -0.4412
   33MOL   H264 9928   6.760   5.028   5.683 -0.9426  0.4283  1.5924
   33MOL   H265 9929   6.721   4.894   5.594  0.3240  0.6883 -1.4065
   33MOL   H266 9930   6.426   5.144   5.640 -0.7789  1.3946  0.7638
   33MOL   H267 9931   6.379   5.076   5.794 -0.0340  0.6676 -0.1221
   33MOL   H268 9932   6.526   5.189   5.770 -0.8798  0.7266  0.3687
   33MOL   H269 9933   6.352   4.637   5.624  0.2267  4.5818 -1.3420
   33MOL   H270 9934   6.506   4.544   5.632 -1.0508 -1.0378 -0.9904
   33MOL   H271 9935   6.464   4.633   5.480 -0.0286 -2.1901 -0.5599
   33MOL   C272 9936   6.612   4.930   5.857  0.2302 -0.5125 -0.1660
   33MOL   C273 9937   6.537   4.924   5.996  0.1899  0.1483 -0.1877
   33MOL   C274 9938   6.529   5.064   6.059  0.0166  0.2591 -0.3481
   33MOL   C275 9939   6.398   4.862   5.984  0.3082 -0.0789  0.2947
   33MOL   O276 9940   6.294   4.922   5.999 -0.0515  0.6050 -0.0829
   33MOL   O277 9941   6.412   4.728   5.965 -0.5385  0.1458 -0.0650
   33MOL   C278 9942   6.292   4.660   5.942  0.6126 -0.4957  0.0556
   33MOL   H279 9943   6.705   4.985   5.867  1.0623 -1.0912 -3.8287
   33MOL   H280 9944   6.638   4.824   5.848 -0.9863 -0.8321  0.0427
   33MOL   H281 9945   6.479   5.143   6.003 -2.0130  0.2729  1.4237
   33MOL   H282 9946   6.470   5.064   6.150  0.5361 -0.0228 -0.0092
   33MOL   H283 9947   6.621   5.116   6.086  0.9525 -2.3534  1.6418
   33MOL   H284 9948   6.212   4.695   6.007  0.9107  0.6606 -0.1894
   33MOL   H285 9949   6.291   4.551   5.942 -3.0725 -0.5354 -1.1491
   33MOL   H286 9950   6.273   4.685   5.837 -1.7962 -2.0111  0.0872
   33MOL   C287 9951   6.623   4.841   6.102  0.6014 -0.2029 -0.0645
   33MOL   C288 9952   6.552   4.791   6.236  0.2787 -0.5907  0.3474
   33MOL   C289 9953   6.594   4.655   6.266  0.4885  1.0389 -0.2104
   33MOL   C290 9954   6.581   4.893   6.343  0.1594 -0.2275 -0.6024
   33MOL   O291 9955   6.487   4.953   6.390  0.2207  0.0508  0.2076
   33MOL   O292 9956   6.712   4.929   6.364  0.2793  0.5400 -0.1827
   33MOL   C293 9957   6.746   5.046   6.442  0.4417  0.1485 -0.2758
   33MOL   H294 9958   6.713   4.895   6.130  1.5767 -1.1729 -1.2723
   33MOL   H295 9959   6.666   4.754   6.052  1.8539  1.2468 -1.5658
   33MOL   H296 9960   6.695   4.636   6.302 -0.2841 -1.7594  0.6463
   33MOL   H297 9961   6.523   4.605   6.333 -1.3570  3.1866 -0.5052
   33MOL   H298 9962   6.584   4.581   6.186 -0.2344  0.9833 -0.0751
   33MOL   H299 9963   6.833   5.090   6.394  0.5315 -1.2816 -1.4894
   33MOL   H300 9964   6.765   5.003   6.540 -3.3914 -0.2285  0.3796
   33MOL   H301 9965   6.668   5.121   6.449  1.2268  0.7995  1.6090
   33MOL   H302 9966   6.444   4.781   6.219  0.7295 -4.2329 -0.9509
   34MOL     C1 9967   0.533   4.689   4.949 -0.1156 -0.2550  0.4979
   34MOL     C2 9968   0.547   4.614   5.089 -0.5632  0.2390  0.0570
   34MOL     C3 9969   0.424   4.652   5.171  0.7192 -0.1275 -0.1224
   34MOL     C4 9970   0.521   4.466   5.054 -0.5689 -0.2962 -0.3395
   34MOL     O5 9971   0.426   4.400   5.098 -0.2928  0.0111  0.2407
   34MOL     O6 9972   0.622   4.413   4.967 -0.8881 -0.3034 -0.2760
   34MOL     C7 9973   0.615   4.281   4.931  0.2975 -0.0804  0.1332
   34MOL     H8 9974   0.461   4.650   4.876 -0.3975  1.0802  0.0525
   34MOL     H9 9975   0.498   4.792   4.946  0.2986 -0.0691  2.0850
   34MOL    H10 9976   0.421   4.612   5.273 -0.9717  2.9966  1.1193
   34MOL    H11 9977   0.432   4.759   5.186  1.0610 -0.2712  0.7608
   34MOL    H12 9978   0.332   4.623   5.120 -0.2114 -0.5292  1.7254
   34MOL    H13 9979   0.680   4.229   5.001  1.0223  1.0360  0.3000
   34MOL    H14 9980   0.646   4.277   4.826 -2.3117  1.4837 -0.7578
   34MOL    H15 9981   0.516   4.234   4.938 -0.0485  0.4678 -0.9535
   34MOL    H16 9982   0.627   4.685   4.893 -0.1472 -0.3973  0.4529
   34MOL    C17 9983   0.685   4.625   5.162 -0.0800 -0.3355  0.0267
   34MOL    C18 9984   0.735   4.758   5.231  0.0591 -0.6155  0.8373
   34MOL    C19 9985   0.739   4.870   5.125 -0.7220 -0.5697  0.3890
   34MOL    C20 9986   0.648   4.806   5.350  0.7941  0.4497  0.0170
   34MOL    O21 9987   0.600   4.720   5.423 -0.5403 -0.1150  0.0898
   34MOL    O22 9988   0.640   4.942   5.373 -0.2774  0.0214 -0.7107
   34MOL    C23 9989   0.586   4.996   5.497  0.6136 -0.0266 -0.2644
   34MOL    H24 9990   0.767   4.602   5.094  0.5197 -2.4656  1.4168
   34MOL    H25 9991   0.694   4.550   5.240 -1.5419 -0.6119 -0.0608
   34MOL    H26 9992   0.787   4.961   5.161  0.9249 -1.5500  0.7263
   34MOL    H27 9993   0.797   4.837   5.039 -1.2900 -0.1810 -0.1478
   34MOL    H28 9994   0.644   4.896   5.078  1.2425  1.0070 -2.8564
   34MOL    H29 9995   0.477   4.991   5.492  0.5372  1.7136 -0.5390
   34MOL    H30 9996   0.617   5.100   5.510  1.8007 -0.1941 -1.5575
   34MOL    H31 9997   0.623   4.925   5.571 -0.6572 -1.6316 -1.1187
   34MOL    C32 9998   0.892   4.718   5.266  0.3480 -0.4347 -0.3547
   34MOL    C33 9999   1.007   4.821   5.312 -0.1887 -0.4082  0.1539
   34MOL    C3410000   1.116   4.723   5.369 -0.7349  0.5077 -0.6954
   34MOL    C3510001   1.060   4.890   5.185 -0.0518 -0.0414  0.0107
   34MOL    O3610002   1.037   5.006   5.161 -0.0631 -0.1992 -0.1468
   34MOL    O3710003   1.118   4.798   5.099  0.1090 -0.2978  0.5536
   34MOL    C3810004   1.172   4.844   4.974 -0.1001 -0.2784 -0.3798
   34MOL    H3910005   0.939   4.668   5.180  1.0664  3.2003 -2.1529
   34MOL    H4010006   0.896   4.643   5.345 -0.7108  2.6702  2.7107
   34MOL    H4110007   1.199   4.786   5.402  2.0963 -3.7315  0.6092
   34MOL    H4210008   1.095   4.657   5.452  1.5909 -0.3284 -0.7276
   34MOL    H4310009   1.156   4.657   5.292  1.7722 -0.5269  1.4007
   34MOL    H4410010   1.236   4.763   4.940 -0.4840 -0.0224 -1.7259
   34MOL    H4510011   1.229   4.936   4.985  0.5476 -0.9931  2.8697
   34MOL    H4610012   1.091   4.867   4.905  1.8151  0.4230 -2.4534
   34MOL    C4710013   0.955   4.916   5.422  0.3799 -0.3179  0.3040
   34MOL    C4810014   1.037   5.001   5.524  0.0527  0.1174 -0.5533
   34MOL    C4910015   1.086   4.918   5.640 -0.3701  0.3572 -0.1951
   34MOL    C5010016   1.169   5.055   5.458 -0.1424 -0.1604 -0.1775
   34MOL    O5110017   1.279   5.015   5.486 -0.6120  0.4735 -0.2268
   34MOL    O5210018   1.143   5.145   5.365 -0.6126  0.6921 -0.3066
   34MOL    C5310019   1.242   5.202   5.283 -0.0461 -0.0618  0.1571
   34MOL    H5410020   0.897   4.850   5.486 -1.0831 -0.2411 -0.9067
   34MOL    H5510021   0.887   4.983   5.369  1.0681 -0.1670 -0.3876
   34MOL    H5610022   1.012   4.915   5.720 -0.2608 -0.5976 -0.1213
   34MOL    H5710023   1.110   4.815   5.613 -2.2817 -1.3592  4.1674
   34MOL    H5810024   1.171   4.958   5.695  0.4657 -1.4777 -0.1202
   34MOL    H5910025   1.198   5.205   5.183  2.3052 -2.7225 -1.0475
   34MOL    H6010026   1.317   5.122   5.285 -2.1274 -2.2072 -2.2803
   34MOL    H6110027   1.277   5.301   5.312 -1.6447  0.1418  1.4653
   34MOL    C6210028   0.955   5.132   5.572  0.0596 -0.0483  0.4468
   34MOL    C6310029   1.016   5.259   5.653  1.3295  0.5445  0.1702
   34MOL    C6410030   1.130   5.210   5.743  0.0659 -0.5340  0.9168
   34MOL    C6510031   1.071   5.355   5.545  0.8332 -0.1000 -0.2055
   34MOL    O6610032   1.183   5.399   5.553  0.4815  0.4324  0.0394
   34MOL    O6710033   0.978   5.394   5.457  0.2767 -0.0257  0.4045
   34MOL    C6810034   1.025   5.471   5.349 -1.0039  0.6099 -0.4642
   34MOL    H6910035   0.877   5.097   5.640 -0.5506  0.0116 -0.2171
   34MOL    H7010036   0.889   5.170   5.494 -0.9259  0.1040  1.3340
   34MOL    H7110037   1.218   5.174   5.690  0.7711  0.0954  1.6575
   34MOL    H7210038   1.169   5.294   5.800 -0.6878 -0.9568  2.0595
   34MOL    H7310039   1.091   5.139   5.816 -2.5238 -0.4678 -0.3509
   34MOL    H7410040   1.028   5.574   5.382 -1.9666  0.1157  1.2380
   34MOL    H7510041   0.956   5.459   5.265 -1.2745 -2.9758  0.1748
   34MOL    H7610042   1.117   5.444   5.297 -0.7357  1.0827 -0.2404
   34MOL    C7710043   0.903   5.334   5.734 -0.3389 -0.7609  0.3027
   34MOL    C7810044   0.847   5.305   5.874  0.1461  0.8180 -0.3948
   34MOL    C7910045   0.774   5.173   5.879 -0.3605 -0.0847  0.1824
   34MOL    C8010046   0.948   5.305   5.987 -0.2082 -0.2807  0.5308
   34MOL    O8110047   0.945   5.232   6.090  0.6836 -0.1527  0.1243
   34MOL    O8210048   1.046   5.405   5.982  0.4882  0.3049  0.1949
   34MOL    C8310049   1.136   5.431   6.086 -0.2691 -0.1179  0.6552
   34MOL    H8410050   0.825   5.338   5.658 -0.1929 -0.6142  0.1589
   34MOL    H8510051   0.947   5.434   5.744 -2.0753 -0.0040  0.5360
   34MOL    H8610052   0.844   5.090   5.889  0.7235  0.7976 -0.0412
   34MOL    H8710053   0.710   5.180   5.967 -1.1077  1.3404 -0.4633
   34MOL    H8810054   0.717   5.152   5.789  1.2445  1.1077 -1.1349
   34MOL    H8910055   1.202   5.512   6.052  1.2339 -2.2566 -1.6645
   34MOL    H9010056   1.204   5.349   6.108 -1.4867 -1.2716  0.1337
   34MOL    H9110057   1.082   5.458   6.177  0.6326 -0.0305  1.1736
   34MOL    C9210058   0.751   5.418   5.930 -0.6888  0.6825  0.0633
   34MOL    C9310059   0.631   5.473   5.842 -0.2892 -0.4676  0.2890
   34MOL    C9410060   0.557   5.572   5.935 -0.6524 -0.2503 -0.3034
   34MOL    C9510061   0.686   5.552   5.721  0.1062 -0.0250  0.3027
   34MOL    O9610062   0.671   5.513   5.604 -0.3603 -0.7139  0.1640
   34MOL    O9710063   0.756   5.672   5.748  0.1683 -0.4852 -0.0234
   34MOL    C9810064   0.769   5.767   5.639  0.3836  0.0057 -0.7547
   34MOL    H9910065   0.813   5.498   5.968  0.9133 -0.3095 -0.4270
   34MOL   H10010066   0.704   5.376   6.020 -0.0451  1.1402  0.6143
   34MOL   H10110067   0.632   5.636   5.981 -0.6201 -0.2863 -0.3062
   34MOL   H10210068   0.493   5.630   5.867  1.5462 -0.6289 -2.7833
   34MOL   H10310069   0.497   5.524   6.012 -1.1695  0.6033 -0.1658
   34MOL   H10410070   0.833   5.845   5.679  0.1718 -0.6478  0.8742
   34MOL   H10510071   0.676   5.811   5.605  0.8662  2.8600  1.4621
   34MOL   H10610072   0.820   5.719   5.555  0.7403 -2.6367  0.9126
   34MOL   C10710073   0.537   5.350   5.796 -0.3262  0.2239 -0.3042
   34MOL   C10810074   0.378   5.361   5.759 -0.6431  0.7940 -0.0288
   34MOL   C10910075   0.297   5.392   5.889 -0.2369 -0.2554  0.3478
   34MOL   C11010076   0.360   5.469   5.652 -0.2665  0.5910 -0.0682
   34MOL   O11110077   0.298   5.578   5.677  0.0175 -0.5056  0.0194
   34MOL   O11210078   0.410   5.433   5.534 -0.4556  0.1409  0.1604
   34MOL   C11310079   0.400   5.530   5.432 -0.8128  0.1826 -0.4086
   34MOL   H11410080   0.545   5.277   5.876 -1.0475 -0.6891 -1.0432
   34MOL   H11510081   0.584   5.306   5.708 -0.3111  0.1800 -0.2731
   34MOL   H11610082   0.191   5.412   5.870 -0.7411 -2.6572  0.4480
   34MOL   H11710083   0.294   5.307   5.957  0.8428  0.0081  0.7241
   34MOL   H11810084   0.326   5.483   5.942  2.3582 -1.1840  0.5714
   34MOL   H11910085   0.429   5.476   5.342  3.3328  0.8768  0.3651
   34MOL   H12010086   0.469   5.610   5.460 -0.2848 -0.7062  0.8724
   34MOL   H12110087   0.299   5.566   5.418 -1.8460 -0.9032  3.4985
   34MOL   C12210088   0.335   5.211   5.722 -0.1542  0.2913  0.3100
   34MOL   C12310089   0.193   5.154   5.717  0.8940 -0.7044 -0.0221
   34MOL   C12410090   0.204   5.020   5.633 -0.1340 -0.4970 -0.9176
   34MOL   C12510091   0.136   5.108   5.858 -0.0252 -0.5306  0.0358
   34MOL   O12610092   0.064   5.179   5.922  0.5361  0.0992 -0.3875
   34MOL   O12710093   0.187   4.992   5.904 -0.6606 -0.2110 -0.0629
   34MOL   C12810094   0.168   4.961   6.043 -0.5164  0.1192  0.1665
   34MOL   H12910095   0.388   5.141   5.787  1.1526  0.7945 -0.1852
   34MOL   H13010096   0.384   5.173   5.632  0.6212 -2.7194  1.9391
   34MOL   H13110097   0.287   4.962   5.673  0.0370  1.1280  1.1840
   34MOL   H13210098   0.116   4.955   5.639 -0.9275  0.5797 -0.6980
   34MOL   H13310099   0.224   5.056   5.533  0.3279 -1.5063 -1.1926
   34MOL   H13410100   0.245   4.892   6.077  0.4935  1.5073  0.7668
   34MOL   H13510101   0.066   4.924   6.046 -0.3503 -0.6043 -2.5120
   34MOL   H13610102   0.182   5.053   6.100 -1.0545  0.9962 -1.1031
   34MOL   C13710103   0.095   5.263   5.656 -1.0726  0.0755 -0.8580
   34MOL   C13810104   7.825   5.228   5.590 -0.6354  0.0312 -0.2130
   34MOL   C13910105   7.733   5.129   5.667 -0.3663 -0.0292  0.6395
   34MOL   C14010106   7.748   5.362   5.584 -0.3485  0.2213 -0.3272
   34MOL   O14110107   7.808   5.468   5.592  0.0787  0.3231 -0.0424
   34MOL   O14210108   7.621   5.348   5.608 -0.0410 -0.3244  0.6201
   34MOL   C14310109   7.549   5.454   5.672  0.6661 -0.7419  0.2320
   34MOL   H14410110   0.152   5.317   5.581  0.4595  1.0000  0.9093
   34MOL   H14510111   0.082   5.342   5.731  1.7968 -0.2802  0.0637
   34MOL   H14610112   7.704   5.158   5.768 -1.6637 -1.6845  0.7798
   34MOL   H14710113   7.637   5.107   5.619  0.3477 -0.6401 -0.5411
   34MOL   H14810114   7.790   5.037   5.679  0.5054  0.2021 -1.4375
   34MOL   H14910115   7.444   5.428   5.690  0.9536 -1.2910  1.1440
   34MOL   H15010116   7.551   5.548   5.617 -0.3185 -0.4776  0.6251
   34MOL   H15110117   7.595   5.466   5.770 -0.0828  0.1782  0.4834
   34MOL   C15210118   7.847   5.172   5.441 -1.4834 -0.1718  0.1981
   34MOL   C15310119   7.796   5.242   5.305  0.5389 -0.4974  0.3167
   34MOL   C15410120   7.641   5.249   5.305  0.0480 -0.2372  0.2921
   34MOL   C15510121   7.850   5.385   5.277  0.6654  0.0860  1.2136
   34MOL   O15610122   0.074   5.421   5.332  0.1892 -0.2821  0.4396
   34MOL   O15710123   7.782   5.455   5.190  0.1902 -0.7681  0.7440
   34MOL   C15810124   7.805   5.593   5.178  0.3248 -0.2843 -0.4494
   34MOL   H15910125   7.817   5.068   5.429  0.4793 -0.9120  1.4828
   34MOL   H16010126   0.077   5.172   5.422 -1.7065  0.6291 -1.1555
   34MOL   H16110127   7.598   5.171   5.367  1.1304  0.5285  2.0269
   34MOL   H16210128   7.605   5.348   5.334  1.0068  1.1294 -2.8785
   34MOL   H16310129   7.597   5.222   5.209  1.7334 -0.2724 -0.4909
   34MOL   H16410130   7.711   5.638   5.147  0.1454  0.6086  1.2903
   34MOL   H16510131   7.877   5.612   5.099  0.1867  1.7414 -0.1199
   34MOL   H16610132   7.839   5.634   5.273 -2.2341  0.5443  0.1634
   34MOL   C16710133   7.833   5.150   5.181  0.0685  0.3586  0.4462
   34MOL   C16810134   0.095   5.121   5.116 -0.2416  0.6000  0.5343
   34MOL   C16910135   0.206   5.079   5.212  0.5559  0.2092 -0.0638
   34MOL   C17010136   0.067   5.003   5.017  0.1839  0.1553 -0.8179
   34MOL   O17110137   7.841   4.999   4.954  0.4945 -0.3988  0.6849
   34MOL   O17210138   0.157   4.905   5.022  0.3261 -0.0848  0.5403
   34MOL   C17310139   0.142   4.791   4.935  0.6089  0.2518  0.0164
   34MOL   H17410140   7.771   5.184   5.098  1.0662  1.2327  0.0595
   34MOL   H17510141   7.774   5.059   5.197 -0.4058  0.6647  0.4555
   34MOL   H17610142   0.285   5.016   5.170  0.1591 -0.3671  0.0552
   34MOL   H17710143   0.264   5.156   5.263 -1.3418 -0.0835  2.6140
   34MOL   H17810144   0.164   5.018   5.291 -0.9429 -1.8766 -2.3905
   34MOL   H17910145   0.069   4.720   4.972  1.1277 -0.9499 -1.2403
   34MOL   H18010146   0.244   4.753   4.928  0.2234 -0.7274 -0.3790
   34MOL   H18110147   0.124   4.823   4.832  3.1166  0.2218 -0.4744
   34MOL   C18210148   0.131   5.247   5.025 -0.5220  0.4002  0.0859
   34MOL   C18310149   0.238   5.266   4.909  0.4867 -0.7093  0.1695
   34MOL   C18410150   0.235   5.150   4.799  0.8169 -0.1926  0.4104
   34MOL   C18510151   0.201   5.399   4.837  1.2995 -0.5014  0.7474
   34MOL   O18610152   0.167   5.403   4.720  0.2726 -0.0858 -0.2532
   34MOL   O18710153   0.203   5.506   4.920  0.1784  0.2267  0.1211
   34MOL   C18810154   0.144   5.622   4.870 -0.1962 -0.3604 -0.2008
   34MOL   H18910155   0.136   5.335   5.089 -3.0846  0.2847  0.5200
   34MOL   H19010156   0.035   5.261   4.975 -0.4828  1.6965  0.3411
   34MOL   H19110157   0.134   5.120   4.773  1.9215 -1.8826 -2.2115
   34MOL   H19210158   0.276   5.183   4.703  0.8154  2.0432  1.1492
   34MOL   H19310159   0.280   5.059   4.840  0.4266 -0.4301  0.3098
   34MOL   H19410160   0.046   5.602   4.826  0.6517 -2.6741 -1.1111
   34MOL   H19510161   0.207   5.682   4.804 -0.9342 -0.7525 -1.2768
   34MOL   H19610162   0.129   5.688   4.956 -0.9046  0.5120 -0.9854
   34MOL   C19710163   0.378   5.275   4.982 -0.6704  0.4011 -0.1625
   34MOL   C19810164   0.515   5.301   4.924  0.5280  0.2294 -0.0101
   34MOL   C19910165   0.517   5.425   4.843  0.7175 -0.0969 -0.4427
   34MOL   C20010166   0.610   5.328   5.048 -0.4809 -0.0271 -0.1024
   34MOL   O20110167   0.665   5.439   5.063  0.2953  0.3934  0.2624
   34MOL   O20210168   0.634   5.227   5.133  0.0732 -0.3554  0.4857
   34MOL   C20310169   0.718   5.250   5.247  0.0262  0.2206  0.4913
   34MOL   H20410170   0.380   5.173   5.019 -1.2224 -0.1966 -1.7520
   34MOL   H20510171   0.373   5.336   5.072 -1.0898 -1.8738  1.3783
   34MOL   H20610172   0.455   5.502   4.888  0.0053 -1.4164  0.8960
   34MOL   H20710173   0.618   5.464   4.831  1.1106 -0.5629  1.2331
   34MOL   H20810174   0.467   5.422   4.746 -0.4319  0.9658  0.0981
   34MOL   H20910175   0.813   5.289   5.212  0.0766 -0.3741 -0.0517
   34MOL   H21010176   0.735   5.148   5.281 -0.1602  0.8537  2.5102
   34MOL   H21110177   0.672   5.306   5.328  0.5510  0.7286  0.4356
   34MOL   C21210178   0.568   5.164   4.850 -0.9797  0.5942  0.4341
   34MOL   C21310179   0.692   5.158   4.753 -0.1214 -0.4003 -0.4516
   34MOL   C21410180   0.638   5.207   4.609 -0.1619 -0.6571  1.4358
   34MOL   C21510181   0.803   5.253   4.802 -0.1461 -0.0274  1.0629
   34MOL   O21610182   0.834   5.350   4.737 -0.8887 -0.4093  0.2092
   34MOL   O21710183   0.867   5.211   4.912  0.1081  0.4305 -0.1318
   34MOL   C21810184   0.965   5.285   4.986  0.4056  0.0560  0.4430
   34MOL   H21910185   0.492   5.122   4.784  0.4077  0.6356 -1.2039
   34MOL   H22010186   0.574   5.087   4.927 -0.9272 -0.5070 -0.6615
   34MOL   H22110187   0.545   5.154   4.588  0.5454 -0.8174 -1.6207
   34MOL   H22210188   0.627   5.315   4.598  0.0501 -0.7605  0.0378
   34MOL   H22310189   0.704   5.195   4.523 -1.5664  1.9271 -0.0967
   34MOL   H22410190   1.027   5.335   4.912 -1.6046 -1.2909 -2.2150
   34MOL   H22510191   1.029   5.223   5.049  0.4888  1.6941  2.0260
   34MOL   H22610192   0.934   5.359   5.059 -0.6671 -0.0926  0.1429
   34MOL   C22710193   0.737   5.007   4.755  0.3944 -0.0236  0.0859
   34MOL   C22810194   0.823   4.942   4.634 -0.0494 -0.1068  0.7383
   34MOL   C22910195   0.948   5.030   4.600  0.2542 -0.7811  0.4815
   34MOL   C23010196   0.870   4.802   4.688 -0.0999  0.0280  0.4039
   34MOL   O23110197   0.986   4.801   4.730  0.3427 -0.2899 -0.1332
   34MOL   O23210198   0.781   4.698   4.702 -0.2099  0.2391 -0.0671
   34MOL   C23310199   0.829   4.575   4.752  0.3445  0.6299  0.3136
   34MOL   H23410200   0.644   4.950   4.746 -0.5638  1.5282 -0.1560
   34MOL   H23510201   0.781   4.982   4.852 -0.4796 -0.2150  0.4444
   34MOL   H23610202   0.926   5.132   4.570 -0.0891 -1.3437 -1.2546
   34MOL   H23710203   1.013   5.037   4.687  3.3407  0.2942 -1.7948
   34MOL   H23810204   1.016   4.986   4.527  1.5298 -1.8282  2.2572
   34MOL   H23910205   0.751   4.499   4.751  0.4165  0.5398  1.1557
   34MOL   H24010206   0.850   4.573   4.858  1.7132  1.4647  0.0687
   34MOL   H24110207   0.916   4.531   4.703 -0.0509 -0.5593  0.6779
   34MOL   C24210208   0.729   4.911   4.514 -0.3227 -0.8327 -0.0443
   34MOL   C24310209   0.774   4.872   4.370 -0.2118 -0.3229  1.0711
   34MOL   C24410210   0.850   4.993   4.303  0.3889 -0.8647 -0.4070
   34MOL   C24510211   0.870   4.750   4.370 -0.2314 -0.1233  0.4336
   34MOL   O24610212   0.831   4.633   4.367 -0.1214 -0.6216 -0.1438
   34MOL   O24710213   1.001   4.778   4.376  0.8288  0.0980 -0.8200
   34MOL   C24810214   1.105   4.672   4.381  0.7079 -0.6289  0.1102
   34MOL   H24910215   0.665   4.999   4.504  2.6651  1.4292 -0.0190
   34MOL   H25010216   0.662   4.835   4.554 -0.4002 -1.0258 -0.5315
   34MOL   H25110217   0.798   5.087   4.324  0.7790 -0.0928 -2.6579
   34MOL   H25210218   0.954   5.008   4.331 -0.0746 -0.6057  1.2445
   34MOL   H25310219   0.845   4.982   4.194  0.4744  0.5177 -0.5606
   34MOL   H25410220   1.070   4.576   4.344  1.7829 -0.3822 -1.6066
   34MOL   H25510221   1.132   4.648   4.484 -0.1169  0.2404  0.5387
   34MOL   H25610222   1.189   4.710   4.323  1.4171 -1.9795  0.2267
   34MOL   C25710223   0.654   4.826   4.279 -0.2949 -0.4344 -0.7331
   34MOL   C25810224   0.508   4.894   4.291 -0.6008 -0.2658  0.0085
   34MOL   C25910225   0.427   4.833   4.183  0.1760 -0.4630  0.2502
   34MOL   C26010226   0.438   4.856   4.425 -0.1963  0.3050 -0.6682
   34MOL   O26110227   0.393   4.940   4.507 -0.3171  0.5409  0.2641
   34MOL   O26210228   0.438   4.722   4.452 -0.2468 -0.6557 -0.5417
   34MOL   C26310229   0.394   4.677   4.570  0.4774  0.7632  0.4776
   34MOL   H26410230   0.626   4.723   4.298  0.2822 -0.1435  1.9554
   34MOL   H26510231   0.686   4.819   4.175  1.0468 -3.1957 -0.1917
   34MOL   H26610232   0.457   4.862   4.082 -2.3578 -0.5727 -0.5778
   34MOL   H26710233   0.417   4.725   4.176  0.1219 -0.3237 -2.6140
   34MOL   H26810234   0.322   4.862   4.193  0.0684 -0.1006 -1.6534
   34MOL   H26910235   0.294   4.715   4.592  0.2361  0.2673  0.2523
   34MOL   H27010236   0.468   4.703   4.645  1.2741  0.0274 -0.0349
   34MOL   H27110237   0.396   4.568   4.571  0.6894  0.7388 -1.3119
   34MOL   C27210238   0.508   5.047   4.265  0.2005 -0.3245 -0.2230
   34MOL   C27310239   0.517   5.132   4.142  0.0226 -0.1931 -0.5716
   34MOL   C27410240   0.634   5.084   4.053  0.3236 -0.3585 -0.0375
   34MOL   C27510241   0.382   5.138   4.065  0.0488  0.2540  0.3705
   34MOL   O27610242   0.275   5.163   4.122 -0.4278  0.3140 -0.0650
   34MOL   O27710243   0.389   5.102   3.936  0.2494 -0.5863  0.2040
   34MOL   C27810244   0.272   5.075   3.861 -0.0952 -0.5666 -0.4948
   34MOL   H27910245   0.579   5.085   4.338  0.7257 -1.6374 -0.0389
   34MOL   H28010246   0.412   5.084   4.302  0.6777  1.2097 -0.4543
   34MOL   H28110247   0.621   5.126   3.953  0.4579  2.1274  0.9523
   34MOL   H28210248   0.727   5.118   4.100  0.3302  0.1019 -0.3834
   34MOL   H28310249   0.626   4.976   4.038  0.7581 -0.5460  1.0311
   34MOL   H28410250   0.254   5.152   3.785 -1.2126  0.7101  1.0292
   34MOL   H28510251   0.191   5.084   3.933  0.5591  0.6628  0.1002
   34MOL   H28610252   0.279   4.980   3.807 -0.9156 -0.0798 -1.4827
   34MOL   C28710253   0.540   5.279   4.189 -0.5070  0.5446  0.3167
   34MOL   C28810254   0.589   5.382   4.076 -0.6202  0.5516 -0.7733
   34MOL   C28910255   0.505   5.513   4.069  0.5112  0.1900  0.7084
   34MOL   C29010256   0.742   5.399   4.088  0.0228  0.5656 -0.3710
   34MOL   O29110257   0.813   5.391   3.984 -0.2241 -0.1367  0.8979
   34MOL   O29210258   0.768   5.445   4.210  0.6417 -0.0080 -0.2215
   34MOL   C29310259   0.888   5.512   4.231 -0.4546  0.4204  0.0913
   34MOL   H29410260   0.616   5.277   4.267  0.0538  1.3202 -0.2090
   34MOL   H29510261   0.452   5.325   4.233  0.1699  2.2266 -0.0586
   34MOL   H29610262   0.398   5.493   4.059 -0.5603  4.5913  2.3156
   34MOL   H29710263   0.521   5.568   4.161 -1.0187  2.4124 -0.3118
   34MOL   H29810264   0.534   5.581   3.989 -0.7895 -0.4587 -0.3362
   34MOL   H29910265   0.896   5.602   4.170 -1.1093  0.5937  0.2575
   34MOL   H30010266   0.978   5.450   4.225 -0.5687  0.2020  0.6186
   34MOL   H30110267   0.893   5.540   4.336 -0.4616 -2.1947  0.8319
   34MOL   H30210268   0.573   5.331   3.981  1.9838  1.9172 -2.0004
   35MOL     C110269   6.128   6.943   4.129  0.2017  0.1666  0.1784
   35MOL     C210270   6.208   6.821   4.088  0.5810 -0.5266 -0.1504
   35MOL     C310271   6.121   6.701   4.111  0.5239 -0.5528 -0.1698
   35MOL     C410272   6.248   6.837   3.938 -0.5228 -1.3321 -0.6245
   35MOL     O510273   6.219   6.755   3.849 -0.1286  0.4003  0.1490
   35MOL     O610274   6.322   6.949   3.912  0.0819 -0.5572  0.2109
   35MOL     C710275   6.372   6.961   3.778 -0.5334  0.4275  0.0007
   35MOL     H810276   6.197   7.027   4.123 -0.3587  0.5065 -1.8234
   35MOL     H910277   6.057   6.971   4.051  0.5563 -0.6645 -0.4429
   35MOL    H1010278   6.168   6.608   4.078 -0.5642 -0.4018 -2.2363
   35MOL    H1110279   6.095   6.690   4.216 -0.1044  2.6937  0.0722
   35MOL    H1210280   6.029   6.706   4.053  0.5027  0.3818 -0.0672
   35MOL    H1310281   6.291   6.980   3.708 -1.1132 -0.1162  0.5104
   35MOL    H1410282   6.441   6.883   3.747 -2.4110 -1.0355 -0.6285
   35MOL    H1510283   6.429   7.054   3.773 -0.6724  0.5189  0.0933
   35MOL    H1610284   6.087   6.930   4.229  0.2989  0.7722  0.2996
   35MOL    C1710285   6.332   6.822   4.177 -0.2217 -0.2768 -0.5136
   35MOL    C1810286   6.424   6.694   4.209 -0.0281 -0.5135  0.8308
   35MOL    C1910287   6.353   6.610   4.316 -0.1032  0.4412  0.1442
   35MOL    C2010288   6.445   6.605   4.086  0.5987 -0.1915  0.2940
   35MOL    O2110289   6.416   6.487   4.086  0.0231 -0.7243 -0.5815
   35MOL    O2210290   6.499   6.674   3.979  0.3220  0.1392 -0.5012
   35MOL    C2310291   6.496   6.595   3.859 -0.3628 -0.0172 -0.9460
   35MOL    H2410292   6.305   6.860   4.276  0.4513  0.6095 -0.6544
   35MOL    H2510293   6.394   6.903   4.137  0.8749 -0.9172 -0.1380
   35MOL    H2610294   6.328   6.665   4.407 -0.8909  0.2923  0.0244
   35MOL    H2710295   6.255   6.581   4.277  0.5678 -0.5394 -0.7985
   35MOL    H2810296   6.420   6.531   4.349 -0.1671 -0.5196 -1.9552
   35MOL    H2910297   6.407   6.621   3.802 -0.5316 -0.0669 -0.7087
   35MOL    H3010298   6.492   6.486   3.864  0.3120 -0.0047 -0.0817
   35MOL    H3110299   6.582   6.613   3.794  1.8885 -1.4173  1.5044
   35MOL    C3210300   6.556   6.745   4.277  0.4172  0.6562 -1.1231
   35MOL    C3310301   6.685   6.667   4.314 -0.5338  0.0538  0.2318
   35MOL    C3410302   6.667   6.605   4.457 -0.3572  0.1294  1.0993
   35MOL    C3510303   6.717   6.540   4.229  0.8180 -0.9514 -0.0970
   35MOL    O3610304   6.726   6.430   4.277 -0.6080 -0.0478  0.2034
   35MOL    O3710305   6.752   6.566   4.100 -0.4699 -0.5105  0.4833
   35MOL    C3810306   6.788   6.450   4.015  0.0936  0.0703 -0.1063
   35MOL    H3910307   6.523   6.785   4.373 -0.0331  0.7638 -1.3179
   35MOL    H4010308   6.587   6.825   4.210  0.3152  1.4022 -0.2839
   35MOL    H4110309   6.627   6.682   4.522  0.2340  0.7790  0.6993
   35MOL    H4210310   6.610   6.512   4.464 -1.2833  0.6781  0.8837
   35MOL    H4310311   6.765   6.573   4.494 -0.5778 -1.0822  0.6719
   35MOL    H4410312   6.811   6.481   3.913  0.2800 -0.7164 -0.3108
   35MOL    H4510313   6.703   6.381   4.016 -0.0959  0.3040 -0.0306
   35MOL    H4610314   6.879   6.407   4.056  0.4486  1.1968  0.3030
   35MOL    C4710315   6.817   6.756   4.310 -0.2282 -0.3548 -1.0550
   35MOL    C4810316   6.835   6.894   4.387 -0.2274  0.3099 -0.4974
   35MOL    C4910317   6.824   6.864   4.541  0.1770 -0.4797 -0.2737
   35MOL    C5010318   6.980   6.945   4.355  0.1291 -0.1232 -0.1281
   35MOL    O5110319   7.043   6.909   4.260 -0.1131 -0.1968  0.1374
   35MOL    O5210320   7.018   7.032   4.440 -0.0186  0.2842 -0.8005
   35MOL    C5310321   7.149   7.091   4.426  0.0641  0.3382 -0.4544
   35MOL    H5410322   6.815   6.785   4.205  1.4450  0.6598 -0.8216
   35MOL    H5510323   6.900   6.686   4.324 -1.8248 -2.2107 -0.5935
   35MOL    H5610324   6.889   6.779   4.564 -0.7253 -1.3847 -1.0810
   35MOL    H5710325   6.861   6.942   4.609 -0.3173 -0.6266  0.1625
   35MOL    H5810326   6.719   6.851   4.566 -0.5499  1.4788 -2.1808
   35MOL    H5910327   7.223   7.011   4.428  0.3862  0.6492  2.8833
   35MOL    H6010328   7.162   7.160   4.509  0.2933 -0.0802 -0.1403
   35MOL    H6110329   7.160   7.144   4.331 -0.2824  0.4618 -0.4255
   35MOL    C6210330   6.730   7.011   4.339 -0.6172  0.5565 -0.0284
   35MOL    C6310331   6.729   7.165   4.371  0.5060  0.9950 -0.4630
   35MOL    C6410332   6.718   7.178   4.529  0.1524 -0.3908 -0.2143
   35MOL    C6510333   6.850   7.239   4.320  0.0840 -0.4732 -0.3208
   35MOL    O6610334   6.898   7.224   4.202  0.2203  0.0672 -0.2778
   35MOL    O6710335   6.904   7.332   4.407 -0.0639 -0.0770 -0.6303
   35MOL    C6810336   7.001   7.426   4.357 -0.2313 -0.2713 -0.1493
   35MOL    H6910337   6.636   6.969   4.374  1.0670 -2.1218  1.5289
   35MOL    H7010338   6.728   6.999   4.231 -1.6739 -1.6303  0.2002
   35MOL    H7110339   6.679   7.272   4.567  0.4829  0.1486 -1.1838
   35MOL    H7210340   6.654   7.107   4.581 -1.4026  0.4353 -0.9749
   35MOL    H7310341   6.818   7.164   4.570 -0.1467 -0.3363  0.5350
   35MOL    H7410342   7.061   7.473   4.435  0.2254  0.1806 -0.7675
   35MOL    H7510343   6.948   7.513   4.318  1.0742  0.4779 -0.2784
   35MOL    H7610344   7.072   7.384   4.285 -1.9540 -0.4239 -1.7928
   35MOL    C7710345   6.584   7.202   4.307  0.1843  0.0467  0.8113
   35MOL    C7810346   6.531   7.345   4.269  0.4784 -0.1253 -0.1766
   35MOL    C7910347   6.569   7.449   4.378 -0.7801 -0.2527 -0.0240
   35MOL    C8010348   6.605   7.375   4.137  0.3560  0.0418  0.6272
   35MOL    O8110349   6.590   7.300   4.039  0.4623 -0.1570  0.1888
   35MOL    O8210350   6.700   7.471   4.137 -0.0526  0.4006 -0.4097
   35MOL    C8310351   6.785   7.497   4.021  0.7946 -0.1846 -0.1836
   35MOL    H8410352   6.512   7.161   4.377 -0.6294  0.2886  0.1174
   35MOL    H8510353   6.565   7.134   4.224  0.9343 -1.0182  1.5001
   35MOL    H8610354   6.518   7.433   4.473  0.5552  0.6971  0.8697
   35MOL    H8710355   6.678   7.456   4.386 -0.9801  2.0483  1.0363
   35MOL    H8810356   6.539   7.549   4.349  1.0779  0.2124 -0.4520
   35MOL    H8910357   6.858   7.422   3.993  0.7015 -1.3151  2.4273
   35MOL    H9010358   6.813   7.602   4.027 -0.4534  0.1697 -0.2768
   35MOL    H9110359   6.719   7.496   3.934 -0.0475 -1.6144  0.4448
   35MOL    C9210360   6.379   7.333   4.248  0.1742  0.3870  1.0899
   35MOL    C9310361   6.283   7.454   4.205  0.5021 -0.4177 -0.3024
   35MOL    C9410362   6.147   7.397   4.167  0.3547  0.3802 -0.0887
   35MOL    C9510363   6.265   7.561   4.326 -0.3155 -0.0354  0.5177
   35MOL    O9610364   6.206   7.523   4.423  0.5551 -0.5367 -0.0144
   35MOL    O9710365   6.321   7.681   4.305  0.3271  0.1502 -0.4161
   35MOL    C9810366   6.295   7.781   4.397 -0.5679  0.1376 -0.4262
   35MOL    H9910367   6.336   7.281   4.334  1.0411 -2.7718 -0.2974
   35MOL   H10010368   6.361   7.259   4.170  0.8582 -1.1334  2.3222
   35MOL   H10110369   6.139   7.305   4.225 -1.4220  0.2244 -0.5673
   35MOL   H10210370   6.055   7.454   4.178 -1.0331 -1.7667 -0.2142
   35MOL   H10310371   6.141   7.354   4.067 -0.2284  0.9254 -0.2916
   35MOL   H10410372   6.190   7.807   4.405 -0.1004  2.1745 -0.6276
   35MOL   H10510373   6.355   7.867   4.367  1.7418 -0.9261  0.9776
   35MOL   H10610374   6.336   7.753   4.494  1.2391  2.6448 -0.4102
   35MOL   C10710375   6.339   7.527   4.080 -0.8178  0.4791 -0.1190
   35MOL   C10810376   6.252   7.608   3.972 -0.5259  0.4046  0.0429
   35MOL   C10910377   6.356   7.659   3.872 -0.3595 -1.0245  0.2148
   35MOL   C11010378   6.153   7.521   3.887  0.2747 -0.5809 -0.0947
   35MOL   O11110379   6.030   7.526   3.894  0.5661 -0.3076  0.4799
   35MOL   O11210380   6.222   7.434   3.813 -0.3800 -0.3407 -0.3195
   35MOL   C11310381   6.145   7.332   3.745  0.6538  0.0305 -1.3221
   35MOL   H11410382   6.385   7.444   4.027 -2.5045 -0.7049  0.2355
   35MOL   H11510383   6.425   7.593   4.095 -0.1500 -0.2475 -0.6667
   35MOL   H11610384   6.401   7.749   3.915 -1.4562 -0.7746  0.8492
   35MOL   H11710385   6.433   7.586   3.848 -1.6686 -1.5130 -2.6348
   35MOL   H11810386   6.315   7.688   3.776  1.2571  1.8104  0.3294
   35MOL   H11910387   6.040   7.358   3.736  0.0704 -1.6747  0.2820
   35MOL   H12010388   6.143   7.246   3.812  2.1587 -0.8939 -2.4277
   35MOL   H12110389   6.186   7.294   3.651  0.7866  3.6908 -2.8145
   35MOL   C12210390   6.182   7.736   4.034 -0.1767  0.2381 -0.0062
   35MOL   C12310391   6.097   7.851   3.969 -0.1176 -0.3909  0.5365
   35MOL   C12410392   6.145   7.867   3.820  0.2400  0.8909  0.0418
   35MOL   C12510393   5.945   7.811   3.972 -0.6170 -0.8304  0.1121
   35MOL   O12610394   5.881   7.793   3.866  0.3243 -0.1027  0.6957
   35MOL   O12710395   5.889   7.804   4.090  0.2334  0.4220  0.2865
   35MOL   C12810396   5.746   7.786   4.102 -0.1383  0.0290  0.1923
   35MOL   H12910397   6.254   7.782   4.101 -0.6138  0.8830  0.0257
   35MOL   H13010398   6.121   7.696   4.115 -1.0603  1.0648 -0.2538
   35MOL   H13110399   6.252   0.001   3.836  0.3732 -0.7846  0.4862
   35MOL   H13210400   6.131   7.775   3.763 -0.4345 -0.8573  2.8959
   35MOL   H13310401   6.101   0.080   3.780 -1.3631  0.0367 -0.1855
   35MOL   H13410402   5.722   7.691   4.054  0.3445 -0.4795  0.9497
   35MOL   H13510403   5.687   7.859   4.047 -0.3107 -0.3763 -0.1722
   35MOL   H13610404   5.716   7.785   4.206 -1.1412  3.9706  0.0187
   35MOL   C13710405   6.111   0.107   4.054  1.0259  0.0579 -0.1895
   35MOL   C13810406   6.053   0.252   4.016  0.4128  0.2347 -0.3099
   35MOL   C13910407   6.165   0.332   3.941 -0.4033 -0.1724 -0.3063
   35MOL   C14010408   5.924   0.255   3.926  0.2952  0.2542 -0.6623
   35MOL   O14110409   5.807   0.247   3.966  0.3148 -0.0473  0.1318
   35MOL   O14210410   5.954   0.264   3.803 -0.5403 -0.5444 -0.1883
   35MOL   C14310411   5.853   0.226   3.713 -0.0510 -0.6179  0.1445
   35MOL   H14410412   6.220   0.117   4.050  0.7285  3.5523 -0.7397
   35MOL   H14510413   6.085   0.076   4.155  0.7319 -0.0112 -0.2862
   35MOL   H14610414   6.194   0.269   3.857 -0.0851  1.9297 -1.8141
   35MOL   H14710415   6.136   0.432   3.911  0.6915  0.4376  0.6201
   35MOL   H14810416   6.254   0.334   4.004 -2.2055  1.1641  2.2840
   35MOL   H14910417   5.769   0.294   3.701  0.0075 -0.9653 -2.4521
   35MOL   H15010418   5.817   0.126   3.738 -0.1302 -0.2853  1.4144
   35MOL   H15110419   5.899   0.215   3.615  0.3773 -1.5742  0.4473
   35MOL   C15210420   6.013   0.318   4.150 -0.6109  0.5769 -0.0683
   35MOL   C15310421   6.102   0.374   4.271  0.4417  1.1522 -0.4782
   35MOL   C15410422   6.208   0.270   4.329 -0.0114  0.4585  0.0270
   35MOL   C15510423   6.178   0.508   4.229 -0.2984  0.0805  0.5845
   35MOL   O15610424   6.296   0.526   4.258  0.7631 -0.3838 -0.1941
   35MOL   O15710425   6.110   0.582   4.146  0.2690  0.5037  0.9534
   35MOL   C15810426   6.177   0.688   4.078 -0.3254 -0.3174  0.8921
   35MOL   H15910427   5.951   0.246   4.203 -1.5878  0.3533 -1.4952
   35MOL   H16010428   5.949   0.403   4.124  2.2821  2.2833 -1.7942
   35MOL   H16110429   6.267   0.314   4.409 -1.4460 -1.1183  2.0216
   35MOL   H16210430   6.166   0.174   4.360  1.8579 -0.2863  0.2961
   35MOL   H16310431   6.282   0.262   4.250 -1.3795  0.1528 -1.2413
   35MOL   H16410432   6.187   0.778   4.139 -0.4169 -0.1378  0.6410
   35MOL   H16510433   6.127   0.719   3.987  0.7587 -2.0732 -0.3335
   35MOL   H16610434   6.275   0.653   4.045  0.4357  0.3512  2.4081
   35MOL   C16710435   6.007   0.401   4.387  0.4362  0.2539 -0.4848
   35MOL   C16810436   6.012   0.509   4.499  0.1430 -0.5120 -0.2614
   35MOL   C16910437   6.163   0.523   4.559 -0.2812 -0.1171 -0.2368
   35MOL   C17010438   5.969   0.653   4.445 -0.0983 -0.2720 -0.2316
   35MOL   O17110439   6.026   0.756   4.488  0.0025  1.0424  0.2615
   35MOL   O17210440   5.872   0.659   4.349 -0.1211 -0.0942 -0.2641
   35MOL   C17310441   5.813   0.781   4.316  0.0256  0.2754 -0.4469
   35MOL   H17410442   5.988   0.316   4.451 -0.1444  0.9297  0.2517
   35MOL   H17510443   5.916   0.423   4.330 -0.1283  0.2340  0.4001
   35MOL   H17610444   6.227   0.587   4.498  0.6624 -0.4766  0.3641
   35MOL   H17710445   6.157   0.578   4.653  1.6443  1.9396 -1.2670
   35MOL   H17810446   6.200   0.421   4.571  0.8466  0.2561 -0.4079
   35MOL   H17910447   5.879   0.858   4.276  1.4312 -0.4643  0.4342
   35MOL   H18010448   5.779   0.822   4.412  0.8775  1.0223 -0.4509
   35MOL   H18110449   5.721   0.756   4.264  0.4125 -1.4066 -0.3502
   35MOL   C18210450   5.924   0.473   4.626  0.1529  0.3191 -0.6520
   35MOL   C18310451   5.773   0.424   4.638  0.4904 -0.6508  0.8059
   35MOL   C18410452   5.684   0.530   4.562 -0.0034  0.0475  0.0708
   35MOL   C18510453   5.760   0.286   4.571 -0.5156  0.8489 -0.2796
   35MOL   O18610454   5.697   0.276   4.469  0.1067  0.1755  0.1656
   35MOL   O18710455   5.835   0.191   4.626 -0.6118  0.0686 -0.4163
   35MOL   C18810456   5.838   0.070   4.558  0.2126  0.5653 -1.3995
   35MOL   H18910457   5.938   0.559   4.691 -1.0133 -0.4492  0.6341
   35MOL   H19010458   5.980   0.401   4.686 -0.4391 -0.4867 -1.0634
   35MOL   H19110459   5.580   0.511   4.591  0.2881 -0.7575  0.5884
   35MOL   H19210460   5.700   0.635   4.584 -0.5648  0.7248 -2.4935
   35MOL   H19310461   5.686   0.534   4.453 -1.9532  0.6361  0.0206
   35MOL   H19410462   5.911   0.072   4.477  0.5227  0.3398 -1.1240
   35MOL   H19510463   5.739   0.032   4.529  0.7133  1.0332 -3.9000
   35MOL   H19610464   5.877   7.870   4.623  0.0580 -0.3716 -2.3984
   35MOL   C19710465   5.727   0.408   4.789  0.4575 -0.3380  0.0108
   35MOL   C19810466   5.579   0.365   4.849  0.1265 -0.0344  0.3659
   35MOL   C19910467   5.514   0.272   4.747  0.5711  0.3196  0.2169
   35MOL   C20010468   5.587   0.282   4.979  0.0843  0.4099 -0.6731
   35MOL   O20110469   5.682   0.206   5.003  0.2462  0.5759  0.7736
   35MOL   O20210470   5.478   0.284   5.061 -0.4150 -0.0307  0.3275
   35MOL   C20310471   5.478   0.198   5.178 -0.4416 -0.4903 -0.0133
   35MOL   H20410472   5.749   0.499   4.846  0.5020  0.5968 -1.4657
   35MOL   H20510473   5.798   0.347   4.845  0.3480 -0.6771 -0.2215
   35MOL   H20610474   5.415   0.239   4.779 -0.0266  1.3263 -0.5235
   35MOL   H20710475   5.497   0.324   4.653  0.5616 -1.6294 -0.8944
   35MOL   H20810476   5.569   0.179   4.733 -1.2056 -0.7016 -0.1840
   35MOL   H20910477   5.580   0.174   5.210 -0.3265 -1.7430 -1.2635
   35MOL   H21010478   5.414   0.112   5.161  0.5844 -0.9721 -1.4742
   35MOL   H21110479   5.435   0.261   5.256 -1.5498 -0.1319 -0.9038
   35MOL   C21210480   5.487   0.493   4.863 -0.0009 -0.1964 -0.1627
   35MOL   C21310481   5.527   0.622   4.949 -0.3244 -0.4099 -0.0503
   35MOL   C21410482   5.389   0.663   5.011 -0.6420  0.6058 -0.0813
   35MOL   C21510483   5.630   0.595   5.064  0.1235  0.1552  0.0797
   35MOL   O21610484   5.747   0.623   5.047  0.6732 -0.1525 -0.6460
   35MOL   O21710485   5.579   0.538   5.176  0.1672  0.3117  0.0423
   35MOL   C21810486   5.660   0.526   5.289  0.1592  0.1577  0.1853
   35MOL   H21910487   5.392   0.467   4.911 -1.2073  1.1959 -1.7071
   35MOL   H22010488   5.452   0.531   4.767 -1.0045 -3.9046 -1.3291
   35MOL   H22110489   5.347   0.596   5.086  1.0896 -1.5988 -1.0409
   35MOL   H22210490   5.393   0.762   5.057 -0.1467  0.0315  1.1286
   35MOL   H22310491   5.316   0.673   4.931  0.7275 -1.0078 -1.5557
   35MOL   H22410492   5.609   0.467   5.365 -0.7094  0.3415 -0.2460
   35MOL   H22510493   5.684   0.627   5.322  1.9274  0.1364 -0.9930
   35MOL   H22610494   5.760   0.485   5.279 -0.3685 -1.3268  0.8990
   35MOL   C22710495   5.586   0.734   4.854 -0.6459 -0.2876 -0.4615
   35MOL   C22810496   5.559   0.887   4.859 -0.1319 -0.0825 -0.2399
   35MOL   C22910497   5.415   0.910   4.799 -0.2474  0.7832  0.3597
   35MOL   C23010498   5.571   0.946   4.998 -0.2049  0.1454 -0.0468
   35MOL   O23110499   5.649   0.893   5.079 -0.4162  0.5561  0.5911
   35MOL   O23210500   5.503   1.057   5.012  0.7201 -0.2152  0.4013
   35MOL   C23310501   5.484   1.103   5.142 -1.3767 -0.8578 -0.3773
   35MOL   H23410502   5.548   0.700   4.757 -0.0514 -0.2473 -0.7155
   35MOL   H23510503   5.693   0.716   4.844 -0.7528 -1.7048  0.8037
   35MOL   H23610504   5.338   0.835   4.818  1.1807 -1.3435 -1.9687
   35MOL   H23710505   5.371   1.006   4.826  0.8714  1.7493 -1.1652
   35MOL   H23810506   5.428   0.906   4.691 -0.1115  0.0190  0.4020
   35MOL   H23910507   5.465   1.021   5.212  0.4374  0.8496  2.1731
   35MOL   H24010508   5.390   1.158   5.138  0.3944  2.3616  1.3172
   35MOL   H24110509   5.571   1.164   5.165 -1.2538 -1.4850  0.8738
   35MOL   C24210510   5.681   0.944   4.766  0.3504 -0.2342 -0.2219
   35MOL   C24310511   5.704   1.090   4.715  0.4579 -0.2239 -0.2011
   35MOL   C24410512   5.582   1.164   4.656  0.0624  0.0272  0.4580
   35MOL   C24510513   5.750   1.171   4.838 -0.6304  0.1890  0.2747
   35MOL   O24610514   5.707   1.283   4.854 -0.4016 -0.1697  0.1742
   35MOL   O24710515   5.852   1.111   4.911  0.4261 -0.1690  0.1183
   35MOL   C24810516   5.914   1.176   5.023 -0.5004  0.5749 -0.2503
   35MOL   H24910517   5.672   0.887   4.674 -3.1836  1.5475 -1.0861
   35MOL   H25010518   5.774   0.904   4.806  0.7418 -0.0171 -0.9103
   35MOL   H25110519   5.567   1.106   4.565  0.6014 -0.4740  0.6881
   35MOL   H25210520   5.490   1.152   4.713  0.8543 -0.7230  1.5930
   35MOL   H25310521   5.589   1.271   4.634  2.3492 -0.0393  0.7352
   35MOL   H25410522   6.009   1.136   5.057  0.8698 -0.0605 -4.5056
   35MOL   H25510523   5.840   1.182   5.103  0.2558  2.0150  0.3626
   35MOL   H25610524   5.924   1.278   4.987 -2.2319  0.1447 -2.0928
   35MOL   C25710525   5.816   1.076   4.599  0.2196  0.3105  0.2226
   35MOL   C25810526   5.934   1.180   4.570  0.2040 -0.4493  0.4791
   35MOL   C25910527   5.862   1.326   4.557  0.2172 -0.3820 -0.4505
   35MOL   C26010528   6.042   1.179   4.678  0.0855 -0.1262 -0.3141
   35MOL   O26110529   6.081   1.281   4.734 -0.0197  0.5363  0.4193
   35MOL   O26210530   6.093   1.056   4.700 -0.5364 -0.2133 -0.6226
   35MOL   C26310531   6.183   1.044   4.809  0.0785 -0.4461 -0.4892
   35MOL   H26410532   5.763   1.048   4.508  1.3554  1.2572 -0.7364
   35MOL   H26510533   5.868   0.983   4.625  0.3253 -0.0083 -1.1303
   35MOL   H26610534   5.929   1.410   4.537 -0.6072  0.1095 -1.1693
   35MOL   H26710535   5.799   1.319   4.468  0.8142 -0.7653 -0.8486
   35MOL   H26810536   5.828   1.342   4.659 -0.7137  1.1161 -0.9803
   35MOL   H26910537   6.205   0.938   4.823 -0.3173 -0.3093  1.3185
   35MOL   H27010538   6.140   1.083   4.901  0.3822  0.7314 -0.8406
   35MOL   H27110539   6.278   1.082   4.772  0.4223  0.6784  1.5029
   35MOL   C27210540   6.008   1.131   4.437 -0.1630  0.3092 -0.0761
   35MOL   C27310541   6.139   1.191   4.366 -0.6431  0.5191 -0.6126
   35MOL   C27410542   6.154   1.346   4.393 -0.5185 -0.6236 -0.4038
   35MOL   C27510543   6.261   1.113   4.425 -0.1465  0.0398 -0.1439
   35MOL   O27610544   6.357   1.169   4.481 -0.3771  0.2231 -0.0660
   35MOL   O27710545   6.251   0.990   4.410  0.0215  0.6241 -0.4348
   35MOL   C27810546   6.354   0.895   4.453  0.1294 -0.0832  0.2694
   35MOL   H27910547   5.930   1.141   4.361 -1.5387 -2.0679  0.9596
   35MOL   H28010548   6.023   1.023   4.442 -0.6880  0.1403 -1.7391
   35MOL   H28110549   6.160   1.373   4.499 -0.1575 -2.0073 -0.0540
   35MOL   H28210550   6.252   1.374   4.355  0.0723 -0.4553  1.1772
   35MOL   H28310551   6.079   1.407   4.343 -0.1067  1.2039  1.1486
   35MOL   H28410552   6.457   0.921   4.428 -0.3277  2.5571  1.0169
   35MOL   H28510553   6.334   0.796   4.410  1.2280 -0.6960  1.1484
   35MOL   H28610554   6.353   0.873   4.559  1.5040  2.1947  0.7734
   35MOL   C28710555   6.128   1.165   4.215  0.2399  0.7009 -0.1262
   35MOL   C28810556   6.250   1.199   4.119  0.3016 -0.0314  0.5982
   35MOL   C28910557   6.255   1.108   4.004 -0.1314  0.3774 -0.2551
   35MOL   C29010558   6.246   1.340   4.059 -0.3760  0.4337  0.2752
   35MOL   O29110559   6.151   1.419   4.053 -0.6326 -0.5494 -0.4810
   35MOL   O29210560   6.368   1.375   4.014 -0.7317 -0.4483 -0.0640
   35MOL   C29310561   6.391   1.504   3.965 -0.3723  0.5123 -1.1622
   35MOL   H29410562   6.043   1.223   4.176 -1.0113 -0.3803  0.9330
   35MOL   H29510563   6.112   1.062   4.185 -0.3604  0.8060 -0.1775
   35MOL   H29610564   6.174   1.119   3.933  0.1882 -0.8675 -0.8278
   35MOL   H29710565   6.346   1.122   3.946 -1.1357  1.1257 -1.6611
   35MOL   H29810566   6.253   1.003   4.033 -0.6233  0.0279 -1.5407
   35MOL   H29910567   6.374   1.504   3.857 -1.9037  1.7255 -0.9365
   35MOL   H30010568   6.498   1.510   3.984 -0.3683 -0.4204 -0.9072
   35MOL   H30110569   6.344   1.583   4.024 -1.2581  0.0079 -1.1930
   35MOL   H30210570   6.342   1.184   4.174  1.3861  0.9643 -0.9076
   36MOL     C110571   6.349   5.086   1.733  0.1787  0.3161 -0.1018
   36MOL     C210572   6.502   5.076   1.734 -0.2058  0.2851  0.1203
   36MOL     C310573   6.540   5.126   1.878  0.3206  0.1582  0.0826
   36MOL     C410574   6.553   4.934   1.715  0.0189  0.3200  0.3059
   36MOL     O510575   6.483   4.833   1.697 -1.0242  0.5435 -0.1727
   36MOL     O610576   6.693   4.940   1.723 -0.0226 -0.0998  0.4310
   36MOL     C710577   6.773   4.822   1.713 -0.5347  0.5738  0.4409
   36MOL     H810578   6.300   5.053   1.642  1.0102  0.0890 -0.4680
   36MOL     H910579   6.293   5.040   1.814  0.8398 -1.5869 -0.7050
   36MOL    H1010580   6.646   5.130   1.901  0.3889  1.1831 -0.3982
   36MOL    H1110581   6.496   5.222   1.906 -3.2004 -1.8265  1.7964
   36MOL    H1210582   6.488   5.063   1.951  0.1853  1.6097  1.2541
   36MOL    H1310583   6.768   4.788   1.609  2.4554 -0.4377  0.5616
   36MOL    H1410584   6.746   4.740   1.780 -2.1297  0.6857 -0.0446
   36MOL    H1510585   6.876   4.855   1.726 -0.4354 -0.0161  1.1729
   36MOL    H1610586   6.323   5.192   1.733  0.8971  0.4974  0.1998
   36MOL    C1710587   6.570   5.173   1.625  0.4516 -0.3788 -0.2972
   36MOL    C1810588   6.562   5.155   1.467  0.1235 -0.6342 -0.3821
   36MOL    C1910589   6.634   5.027   1.414 -0.9346 -0.2489  0.3105
   36MOL    C2010590   6.418   5.161   1.413  0.5687  0.8274  0.8367
   36MOL    O2110591   6.366   5.065   1.365 -0.0750  0.0934 -0.3573
   36MOL    O2210592   6.353   5.273   1.434  0.2926 -0.6181  0.2435
   36MOL    C2310593   6.225   5.296   1.375  0.1130 -0.1532  0.4637
   36MOL    H2410594   6.669   5.184   1.669 -0.8603 -1.7023  3.1806
   36MOL    H2510595   6.522   5.268   1.650 -0.2975 -0.9486  0.4724
   36MOL    H2610596   6.579   4.938   1.442 -1.4225 -0.2156 -0.5362
   36MOL    H2710597   6.622   5.039   1.306 -0.7793  0.2380  0.3431
   36MOL    H2810598   6.742   5.023   1.431 -0.9675 -1.4751  0.2245
   36MOL    H2910599   6.198   5.248   1.280  1.4334  1.0550 -0.5362
   36MOL    H3010600   6.206   5.402   1.358 -0.5261  0.1516  2.9423
   36MOL    H3110601   6.154   5.262   1.451  0.4778 -0.2549  0.7603
   36MOL    C3210602   6.651   5.282   1.426 -0.0204 -0.3132 -0.0418
   36MOL    C3310603   6.713   5.330   1.285 -0.2892  0.2574 -0.2702
   36MOL    C3410604   6.607   5.316   1.177 -0.3199 -0.1271  0.8333
   36MOL    C3510605   6.754   5.485   1.309  0.4739  0.4926 -0.2306
   36MOL    O3610606   6.870   5.525   1.332  0.2669 -0.4598  0.0086
   36MOL    O3710607   6.646   5.567   1.313  0.3618 -0.6189  0.0348
   36MOL    C3810608   6.650   5.704   1.330  0.1710 -0.8091  1.1179
   36MOL    H3910609   6.732   5.292   1.498 -0.6494  0.7257  0.5390
   36MOL    H4010610   6.585   5.365   1.452 -0.4482 -1.0784  1.4145
   36MOL    H4110611   6.639   5.361   1.082 -1.3222 -1.9968 -0.4054
   36MOL    H4210612   6.579   5.214   1.153  1.5433 -0.1666 -1.3475
   36MOL    H4310613   6.518   5.363   1.219 -0.4639 -1.1137  1.6295
   36MOL    H4410614   6.560   5.761   1.311  0.0335 -1.2547  0.3970
   36MOL    H4510615   6.721   5.748   1.259 -1.3330 -0.5320 -0.2353
   36MOL    H4610616   6.698   5.726   1.425  1.5306 -1.4332  0.5998
   36MOL    C4710617   6.841   5.248   1.253 -0.5767  0.0359  0.6169
   36MOL    C4810618   6.925   5.269   1.118  0.6571  1.0494  0.1842
   36MOL    C4910619   7.074   5.256   1.160  0.1544 -0.6271 -0.2102
   36MOL    C5010620   6.893   5.151   1.027 -0.5990  1.0067 -0.3737
   36MOL    O5110621   6.980   5.086   0.975 -0.5638  0.2876  0.0117
   36MOL    O5210622   6.762   5.123   1.007  0.3631  0.3209 -0.5711
   36MOL    C5310623   6.723   5.012   0.928 -0.1959  0.2429  0.5751
   36MOL    H5410624   6.813   5.142   1.253  0.1299 -0.1629 -0.5022
   36MOL    H5510625   6.902   5.253   1.343  3.3574  0.2046 -1.9605
   36MOL    H5610626   7.085   5.315   1.251  0.4855  0.3278 -0.8608
   36MOL    H5710627   7.083   5.154   1.196 -1.2908 -1.0092 -0.8765
   36MOL    H5810628   7.156   5.272   1.090 -1.0775  1.8668 -1.1640
   36MOL    H5910629   6.748   5.031   0.823  0.4355 -0.0872  0.6670
   36MOL    H6010630   6.618   4.986   0.941 -0.3680  0.0354 -1.0911
   36MOL    H6110631   6.773   4.923   0.965 -1.5783 -1.4392 -1.4699
   36MOL    C6210632   6.912   5.406   1.037 -0.1820 -1.1051  0.1921
   36MOL    C6310633   6.938   5.429   0.876  0.2735  0.3619 -0.5895
   36MOL    C6410634   7.073   5.370   0.855 -0.1009 -0.4268  0.3047
   36MOL    C6510635   6.839   5.346   0.789 -0.1747 -0.2474  0.1743
   36MOL    O6610636   6.878   5.276   0.694  0.0657 -0.1749 -0.0922
   36MOL    O6710637   6.710   5.355   0.824 -0.0113 -0.2963  0.2373
   36MOL    C6810638   6.601   5.301   0.744 -0.2446  0.7637  0.0299
   36MOL    H6910639   6.974   5.475   1.094 -1.5072  0.1653  0.1229
   36MOL    H7010640   6.808   5.439   1.042 -0.3602 -1.5209 -0.6874
   36MOL    H7110641   7.154   5.409   0.917  0.2916 -0.7331 -0.0006
   36MOL    H7210642   7.092   5.262   0.848 -0.6514 -0.5601  0.8689
   36MOL    H7310643   7.110   5.398   0.756  1.1463 -1.1361  0.5547
   36MOL    H7410644   6.583   5.204   0.789  1.5406 -0.0807 -0.9932
   36MOL    H7510645   6.630   5.285   0.640  0.2219 -3.2046  0.6910
   36MOL    H7610646   6.517   5.369   0.749  0.4445  1.7615 -1.4651
   36MOL    C7710647   6.951   5.576   0.823 -1.0523 -0.0356  0.2817
   36MOL    C7810648   6.890   5.706   0.881 -0.6168  0.1611 -0.3750
   36MOL    C7910649   6.897   5.809   0.764 -0.4383  0.2557 -0.2737
   36MOL    C8010650   6.747   5.675   0.915 -0.1200 -0.1778  0.3018
   36MOL    O8110651   6.702   5.694   1.031 -0.5703  0.1581 -0.3783
   36MOL    O8210652   6.668   5.653   0.813 -0.7808  0.5654 -0.0312
   36MOL    C8310653   6.532   5.619   0.839 -0.4254 -0.0947  0.0853
   36MOL    H8410654   6.918   5.574   0.719  3.6126  0.2025 -1.3574
   36MOL    H8510655   7.054   5.601   0.797 -1.3145  0.5764 -0.1653
   36MOL    H8610656   6.990   5.865   0.756 -0.3080 -0.1884 -2.2875
   36MOL    H8710657   6.885   5.766   0.664 -0.1573  2.7504 -1.4375
   36MOL    H8810658   6.815   5.882   0.762 -0.7226 -0.0617 -0.3282
   36MOL    H8910659   6.516   5.528   0.898 -0.9427 -1.4041 -2.0384
   36MOL    H9010660   6.499   5.597   0.738  0.8704 -3.0694  0.2442
   36MOL    H9110661   6.474   5.705   0.872  0.6620  0.0982  1.5644
   36MOL    C9210662   6.983   5.743   1.007  0.2116 -0.0368 -0.6086
   36MOL    C9310663   7.036   5.889   1.040 -0.0264  0.0285 -0.8541
   36MOL    C9410664   7.170   5.918   0.968 -0.2240  0.4563  0.3315
   36MOL    C9510665   6.928   5.992   1.010 -0.0799 -0.2526 -0.0969
   36MOL    O9610666   6.946   6.091   0.935  0.2126 -0.3406 -0.6552
   36MOL    O9710667   6.817   5.964   1.082 -0.0548  0.7972 -0.4755
   36MOL    C9810668   6.695   6.018   1.055  0.5820 -0.1105  0.8138
   36MOL    H9910669   7.076   5.688   0.996 -0.2760 -0.8894 -0.4870
   36MOL   H10010670   6.928   5.702   1.091  1.3953  2.2992  1.3774
   36MOL   H10110671   7.181   5.861   0.875 -1.0908 -1.2887  1.2734
   36MOL   H10210672   7.184   6.023   0.944  2.1270 -0.1697 -1.1643
   36MOL   H10310673   7.254   5.882   1.027 -2.1575 -1.7293  1.8805
   36MOL   H10410674   6.671   5.991   0.952  1.3742 -0.7199  0.7801
   36MOL   H10510675   6.686   6.125   1.072 -2.7159  0.0718 -1.5941
   36MOL   H10610676   6.623   5.971   1.122  0.4705 -1.3883 -0.1737
   36MOL   C10710677   7.068   5.878   1.192 -0.2456 -0.7323  0.3345
   36MOL   C10810678   7.090   6.007   1.287  0.5808 -0.1474  0.0675
   36MOL   C10910679   7.175   6.118   1.223 -0.0454 -0.3477 -0.4888
   36MOL   C11010680   6.949   6.065   1.332  0.9085 -0.1646  0.0050
   36MOL   O11110681   6.911   6.183   1.321 -0.6811  0.0586  0.3873
   36MOL   O11210682   6.865   5.962   1.385 -0.2141 -0.5334 -0.2742
   36MOL   C11310683   6.746   6.009   1.441  0.5513  0.0601  0.2534
   36MOL   H11410684   7.150   5.808   1.202 -1.0902 -1.6825  0.7042
   36MOL   H11510685   6.984   5.827   1.240  0.2966  0.2634  2.4045
   36MOL   H11610686   7.175   6.207   1.285 -0.7172 -0.9038  0.3190
   36MOL   H11710687   7.276   6.083   1.201 -0.5658 -1.0891 -1.7441
   36MOL   H11810688   7.132   6.147   1.127 -0.3473 -1.0818 -0.5803
   36MOL   H11910689   6.676   6.063   1.377  1.2017  1.1207  0.4225
   36MOL   H12010690   6.771   6.066   1.530  1.9111  0.4367 -0.3537
   36MOL   H12110691   6.690   5.923   1.477 -1.7012  1.4988  0.2828
   36MOL   C12210692   7.168   5.943   1.408  0.0480 -0.0727 -0.2580
   36MOL   C12310693   7.236   6.022   1.530  0.0452  0.5108 -0.6105
   36MOL   C12410694   7.359   6.108   1.486 -0.8991  0.5237 -0.0682
   36MOL   C12510695   7.136   6.115   1.603  0.1128  0.1721  0.0496
   36MOL   O12610696   7.096   6.085   1.720 -0.4402  0.5888 -0.0838
   36MOL   O12710697   7.109   6.227   1.538 -0.0209  0.0572 -0.6636
   36MOL   C12810698   7.031   6.327   1.602  0.3977  0.2221 -0.0635
   36MOL   H12910699   7.249   5.885   1.365 -0.6033 -0.8151 -0.5128
   36MOL   H13010700   7.097   5.868   1.443  0.1694 -0.1286 -0.1375
   36MOL   H13110701   7.426   6.152   1.560 -0.5657 -1.3755  0.7934
   36MOL   H13210702   7.428   6.044   1.431 -2.8219  0.0240 -1.9557
   36MOL   H13310703   7.333   6.176   1.405  1.4122  1.1636 -0.2997
   36MOL   H13410704   7.064   6.418   1.552 -1.0640  0.8786  0.1465
   36MOL   H13510705   7.049   6.336   1.710 -0.2597 -0.9004  0.1528
   36MOL   H13610706   6.924   6.311   1.586  0.8937 -0.3879 -2.9399
   36MOL   C13710707   7.292   5.903   1.623 -0.3006 -0.4865  0.0261
   36MOL   C13810708   7.211   5.771   1.671  0.0899 -0.0710  0.2110
   36MOL   C13910709   7.065   5.802   1.701 -0.4950  0.5714  0.3182
   36MOL   C14010710   7.215   5.654   1.562 -0.7151 -0.3363 -0.2224
   36MOL   O14110711   7.298   5.657   1.468  0.1574  0.3204  0.1701
   36MOL   O14210712   7.135   5.549   1.588  0.0453 -0.5933 -0.0193
   36MOL   C14310713   7.174   5.425   1.533  0.3714 -0.1290 -0.0357
   36MOL   H14410714   7.348   5.951   1.704  0.0373 -1.3358  0.3052
   36MOL   H14510715   7.370   5.861   1.560 -0.7049  0.5105 -1.1474
   36MOL   H14610716   7.055   5.855   1.796  0.2178  1.4106 -0.0620
   36MOL   H14710717   7.002   5.848   1.625  1.0545 -2.4158 -2.9183
   36MOL   H14810718   7.004   5.713   1.713  0.3207  0.3931  3.9255
   36MOL   H14910719   7.181   5.356   1.618 -0.7684  1.9296  1.7935
   36MOL   H15010720   7.274   5.429   1.492  0.6314  0.1346  0.6148
   36MOL   H15110721   7.102   5.389   1.460  2.5454  0.2226 -2.4021
   36MOL   C15210722   7.263   5.731   1.811 -0.5224 -0.4052  0.3666
   36MOL   C15310723   7.407   5.670   1.848 -0.6959 -0.6995  0.1290
   36MOL   C15410724   7.420   5.523   1.803 -0.8163 -0.1203  0.1067
   36MOL   C15510725   7.520   5.752   1.780 -0.0785 -0.7757  0.2542
   36MOL   O15610726   7.564   5.856   1.835  0.4640  0.2285 -0.2063
   36MOL   O15710727   7.569   5.698   1.662  0.1059 -0.1777  0.3505
   36MOL   C15810728   7.668   5.770   1.598  0.1160 -0.0941 -0.0705
   36MOL   H15910729   7.180   5.667   1.844 -2.1859  1.2123 -0.6048
   36MOL   H16010730   7.257   5.818   1.876  2.5768 -0.9995  1.5164
   36MOL   H16110731   7.510   5.473   1.839 -0.7139 -0.4932 -0.6673
   36MOL   H16210732   7.334   5.470   1.843 -2.2345  0.1495 -2.4829
   36MOL   H16310733   7.427   5.512   1.695 -0.0467  1.3374 -0.0027
   36MOL   H16410734   7.761   5.789   1.652 -1.0851 -0.9771  2.4211
   36MOL   H16510735   7.631   5.867   1.563 -0.6047 -0.4112 -0.1993
   36MOL   H16610736   7.694   5.724   1.503  0.1804 -0.1596 -0.0200
   36MOL   C16710737   7.424   5.682   2.002 -0.1634  0.1107  0.5768
   36MOL   C16810738   7.535   5.621   2.097  0.5606  0.2677  0.8467
   36MOL   C16910739   7.529   5.704   2.219  0.3215 -0.8734  0.0483
   36MOL   C17010740   7.498   5.475   2.139  0.2130  0.2297  0.0164
   36MOL   O17110741   7.436   5.458   2.242 -0.3306 -0.0259  0.3366
   36MOL   O17210742   7.518   5.381   2.040  0.0880 -0.2231  0.5240
   36MOL   C17310743   7.484   5.248   2.072  0.0799 -0.0691 -0.0282
   36MOL   H17410744   7.328   5.652   2.042 -0.0572  0.1681  0.8792
   36MOL   H17510745   7.421   5.789   2.022  0.2430  0.5968 -1.8382
   36MOL   H17610746   7.422   5.712   2.237  0.5632 -0.6906  1.4057
   36MOL   H17710747   7.561   5.662   2.314  3.7308  3.3642  0.9489
   36MOL   H17810748   7.579   5.800   2.206 -1.8402  0.0551 -1.9292
   36MOL   H17910749   7.551   5.199   2.001 -0.0151  0.7147 -0.6681
   36MOL   H18010750   7.380   5.219   2.061  0.4754 -2.4922  2.2582
   36MOL   H18110751   7.524   5.209   2.165 -3.1920 -2.4118  0.4878
   36MOL   C18210752   7.671   5.632   2.029 -0.2115 -0.2399  0.2384
   36MOL   C18310753   7.817   5.600   2.094 -0.4496 -0.1562 -0.4606
   36MOL   C18410754   7.842   5.689   2.217 -0.9011  0.0029 -0.6531
   36MOL   C18510755   7.841   5.449   2.134 -0.0923 -0.3614 -0.0129
   36MOL   O18610756   0.022   5.420   2.236 -0.2060 -0.4922 -0.3042
   36MOL   O18710757   7.796   5.360   2.049  0.4255 -0.0559 -0.1244
   36MOL   C18810758   7.829   5.221   2.062 -0.3058 -0.2624 -0.0173
   36MOL   H18910759   7.680   5.741   2.023  0.5631 -0.2229  1.5033
   36MOL   H19010760   7.666   5.577   1.935 -1.9103 -0.3539  0.3847
   36MOL   H19110761   0.066   5.671   2.254 -0.2688 -0.7631 -2.6726
   36MOL   H19210762   7.828   5.795   2.197 -1.7364 -0.3449 -1.9212
   36MOL   H19310763   7.777   5.655   2.297 -0.5473  1.7702  0.3892
   36MOL   H19410764   7.811   5.192   2.166 -1.2385  1.6267  0.3729
   36MOL   H19510765   0.057   5.208   2.036 -0.6535 -1.7086 -0.7659
   36MOL   H19610766   7.767   5.154   2.004 -1.1816  0.5855 -0.0747
   36MOL   C19710767   0.049   5.654   1.996 -0.4289  0.1569  0.0060
   36MOL   C19810768   0.110   5.587   1.866 -0.7509 -0.4749 -0.5250
   36MOL   C19910769   7.877   5.532   1.777 -0.0736  0.1373  0.3578
   36MOL   C20010770   0.194   5.692   1.786  0.6816  0.3323 -0.4420
   36MOL   O20110771   0.269   5.765   1.844  0.1848  0.0624  0.3385
   36MOL   O20210772   0.188   5.676   1.658  0.1972 -0.0826 -0.0354
   36MOL   C20310773   0.252   5.759   1.570  0.6814 -0.2012 -0.6726
   36MOL   H20410774   0.136   5.692   2.048  1.3773 -0.6593 -2.3481
   36MOL   H20510775   0.003   5.745   1.957 -0.7861 -1.4123 -3.3396
   36MOL   H20610776   7.804   5.608   1.751  0.9763  0.7619 -0.7781
   36MOL   H20710777   0.028   5.476   1.687  1.3412  0.8072  0.3925
   36MOL   H20810778   7.816   5.458   1.830  0.6117  0.3038  1.3843
   36MOL   H20910779   0.255   5.715   1.470  0.9121  0.8856 -1.1508
   36MOL   H21010780   0.353   5.788   1.598  0.7633 -0.4079 -0.7586
   36MOL   H21110781   0.197   5.853   1.563  1.0290  0.0259 -0.3834
   36MOL   C21210782   0.200   5.462   1.909  0.0328 -0.4467  0.0276
   36MOL   C21310783   0.324   5.396   1.838  0.2322 -0.7094  0.0835
   36MOL   C21410784   0.293   5.361   1.697 -0.1186  0.2798 -0.7212
   36MOL   C21510785   0.447   5.492   1.828  0.2302  0.3659  0.5322
   36MOL   O21610786   0.510   5.508   1.721 -0.5297  0.2496  0.4621
   36MOL   O21710787   0.484   5.545   1.937  0.0166 -0.0150  0.1637
   36MOL   C21810788   0.592   5.633   1.936  0.1775  0.1203  0.4032
   36MOL   H21910789   0.128   5.381   1.919 -1.9129  1.2526  0.1466
   36MOL   H22010790   0.225   5.485   2.013 -0.4716  0.1942  0.0083
   36MOL   H22110791   0.241   5.444   1.651 -0.9794  0.3933  0.4288
   36MOL   H22210792   0.372   5.337   1.626  0.9456  0.0172  0.5276
   36MOL   H22310793   0.210   5.289   1.697 -1.2914  1.6158  0.1774
   36MOL   H22410794   0.565   5.734   1.905 -0.7468  0.5906  2.6230
   36MOL   H22510795   0.667   5.601   1.864  1.0631  0.0592  1.3408
   36MOL   H22610796   0.642   5.623   2.033  0.7692  1.4532  0.2366
   36MOL   C22710797   0.357   5.269   1.928  0.6594  0.4524  0.4184
   36MOL   C22810798   0.469   5.165   1.903  0.2800 -0.5629  0.5619
   36MOL   C22910799   0.469   5.115   1.753  0.3689 -0.1584  0.3089
   36MOL   C23010800   0.602   5.238   1.926  0.2760  0.2642  0.2425
   36MOL   O23110801   0.689   5.258   1.843  0.5007 -0.3700 -0.3583
   36MOL   O23210802   0.620   5.273   2.054  0.5647  0.1007  1.0471
   36MOL   C23310803   0.732   5.346   2.092 -0.5103  0.5315  0.0914
   36MOL   H23410804   0.260   5.219   1.927  0.8382  0.1118 -1.9890
   36MOL   H23510805   0.370   5.306   2.030  4.0223 -1.8512  0.9073
   36MOL   H23610806   0.534   5.028   1.745 -0.1862 -0.5863  0.4261
   36MOL   H23710807   0.370   5.085   1.719  0.0990  1.5232 -0.4320
   36MOL   H23810808   0.514   5.189   1.687  0.5185  0.3241  0.9425
   36MOL   H23910809   0.814   5.275   2.095 -1.5870 -0.7167  0.8254
   36MOL   H24010810   0.727   5.398   2.188 -0.4889 -0.5601  0.6897
   36MOL   H24110811   0.770   5.421   2.023  0.5196  0.2108  0.3018
   36MOL   C24210812   0.469   5.049   2.008  0.3916  0.0792 -0.8793
   36MOL   C24310813   0.376   4.925   2.007  0.4422  0.1515  0.1202
   36MOL   C24410814   0.236   4.982   1.964 -0.8700  0.0553 -0.9593
   36MOL   C24510815   0.423   4.817   1.908 -0.1731 -0.2785  1.2063
   36MOL   O24610816   0.540   4.813   1.867 -0.1788  0.5491  0.5386
   36MOL   O24710817   0.324   4.733   1.876 -0.0036 -0.4859 -0.2443
   36MOL   C24810818   0.348   4.621   1.794 -0.2778  0.3194  0.3131
   36MOL   H24910819   0.459   5.094   2.106 -0.1095  0.4024 -1.0750
   36MOL   H25010820   0.571   5.012   2.008  0.4167  0.1438 -1.2171
   36MOL   H25110821   0.241   5.024   1.863  1.6216 -1.5621 -1.5659
   36MOL   H25210822   0.155   4.911   1.946  0.2615 -1.0251 -1.9053
   36MOL   H25310823   0.196   5.055   2.035 -1.6635  1.4955 -2.8449
   36MOL   H25410824   0.269   4.545   1.796 -0.6870  0.5358 -3.3452
   36MOL   H25510825   0.440   4.570   1.824 -0.5567 -0.3017  0.1356
   36MOL   H25610826   0.380   4.648   1.694  0.0218  1.0110  0.5976
   36MOL   C25710827   0.366   4.867   2.152  0.0931  0.8113  0.4260
   36MOL   C25810828   0.475   4.813   2.252  0.3347 -0.7078  0.2200
   36MOL   C25910829   0.407   4.794   2.384  0.8129  0.2780 -0.6133
   36MOL   C26010830   0.536   4.686   2.185 -0.2222  0.1491  0.3468
   36MOL   O26110831   0.655   4.683   2.145  0.5266 -0.1866 -0.6292
   36MOL   O26210832   0.453   4.580   2.165  0.0021 -0.1342  0.0466
   36MOL   C26310833   0.506   4.449   2.146  0.5702 -0.1546 -0.3790
   36MOL   H26410834   0.292   4.788   2.137  1.3088 -0.0029 -1.3465
   36MOL   H26510835   0.311   4.948   2.200  0.5749  2.0707 -1.1204
   36MOL   H26610836   0.319   4.730   2.392  0.3558  1.0609  0.8712
   36MOL   H26710837   0.477   4.753   2.456 -0.2361  0.8743  0.7847
   36MOL   H26810838   0.369   4.884   2.433 -0.6407 -1.1538  0.9642
   36MOL   H26910839   0.423   4.379   2.133  0.0590  0.1916  0.9480
   36MOL   H27010840   0.569   4.426   2.231  0.7795  0.4846 -0.3619
   36MOL   H27110841   0.564   4.449   2.054 -0.5565  3.6058 -1.1501
   36MOL   C27210842   0.590   4.933   2.263  0.0760  0.5070 -0.1232
   36MOL   C27310843   0.705   4.950   2.373  0.0653 -0.7335 -0.3578
   36MOL   C27410844   0.640   4.997   2.509 -0.1603  0.3681  0.1803
   36MOL   C27510845   0.783   4.821   2.394 -0.7999  0.4498  0.7329
   36MOL   O27610846   0.744   4.743   2.479 -0.0306 -0.5669 -0.1108
   36MOL   O27710847   0.880   4.793   2.302  0.3321  0.1779  0.1744
   36MOL   C27810848   0.946   4.663   2.295 -0.3180 -0.0519  0.6238
   36MOL   H27910849   0.534   5.025   2.279  0.2667  0.4780  0.7396
   36MOL   H28010850   0.644   4.920   2.170 -1.9480  5.3688 -2.1273
   36MOL   H28110851   0.720   5.006   2.583  0.4440 -1.2162 -0.2724
   36MOL   H28210852   0.572   5.082   2.502 -0.4988  0.0933  0.1501
   36MOL   H28310853   0.572   4.922   2.547  2.6686 -2.0405  0.6967
   36MOL   H28410854   1.001   4.650   2.202  0.4583 -1.5556  1.2746
   36MOL   H28510855   0.890   4.572   2.312 -0.8004  0.2723  0.7762
   36MOL   H28610856   1.025   4.672   2.370  0.8123 -2.7369 -0.2020
   36MOL   C28710857   0.795   5.069   2.326  0.8784 -0.4247 -0.4748
   36MOL   C28810858   0.915   5.109   2.409 -0.1216 -0.3584 -0.1506
   36MOL   C28910859   1.049   5.078   2.326  0.0477 -0.2271  0.2746
   36MOL   C29010860   0.920   5.257   2.456  0.5259  0.8263 -0.3285
   36MOL   O29110861   0.893   5.290   2.569  0.1843 -0.6082 -0.2186
   36MOL   O29210862   0.939   5.346   2.363 -0.3970 -0.0161  0.6003
   36MOL   C29310863   0.929   5.483   2.396 -0.4413  0.1244 -0.2692
   36MOL   H29410864   0.729   5.154   2.310  0.1892 -0.9161 -0.2791
   36MOL   H29510865   0.836   5.054   2.226  1.5965  0.5650 -0.3299
   36MOL   H29610866   1.038   5.138   2.236 -0.7981  0.0069  0.5248
   36MOL   H29710867   1.145   5.093   2.375  0.5393  0.0428 -0.7646
   36MOL   H29810868   1.046   4.975   2.289 -2.4757  0.0465 -0.4038
   36MOL   H29910869   0.942   5.542   2.305 -1.2087  0.3150 -0.2506
   36MOL   H30010870   1.010   5.521   2.459  0.9522  0.5146 -2.2442
   36MOL   H30110871   0.841   5.515   2.451  0.3694  0.5067  0.8232
   36MOL   H30210872   0.921   5.042   2.495 -0.9604  0.6526  0.7032
   37MOL     C110873   7.542   2.490   4.215 -0.4991  0.2043  0.2353
   37MOL     C210874   7.624   2.356   4.222 -0.1890 -0.1796 -0.6552
   37MOL     C310875   7.748   2.369   4.129 -0.2079  0.1408 -0.5572
   37MOL     C410876   7.681   2.343   4.365  0.3570  0.8984 -0.2414
   37MOL     O510877   7.676   2.430   4.451 -0.2696 -0.0337  0.2107
   37MOL     O610878   7.744   2.224   4.384 -0.3659 -0.3702  0.1395
   37MOL     C710879   7.796   2.196   4.511  0.3039  0.1572  0.0674
   37MOL     H810880   7.448   2.490   4.269 -0.6483  0.7503 -0.0193
   37MOL     H910881   7.601   2.579   4.237  1.0785 -1.0002  1.0466
   37MOL    H1010882   7.724   2.354   4.024 -2.9894  1.1699 -0.1232
   37MOL    H1110883   7.820   2.447   4.152 -0.0467 -0.3643  0.6723
   37MOL    H1210884   7.805   2.278   4.147  1.6702  1.2265 -0.9258
   37MOL    H1310885   7.848   2.282   4.555 -0.0670 -0.1814  1.1823
   37MOL    H1410886   7.860   2.108   4.518  0.2100 -0.0139 -1.1755
   37MOL    H1510887   7.715   2.180   4.582  1.1021  0.8204  1.1582
   37MOL    H1610888   7.523   2.501   4.108 -0.2834 -0.6855  0.0963
   37MOL    C1710889   7.528   2.236   4.175  0.5103 -0.4570 -0.0193
   37MOL    C1810890   7.390   2.196   4.232 -0.5073  0.3993 -0.0984
   37MOL    C1910891   7.388   2.204   4.384 -0.1948 -0.1726  0.1314
   37MOL    C2010892   7.263   2.278   4.190 -0.0940  0.2251 -0.0042
   37MOL    O2110893   7.273   2.391   4.138  0.3582 -1.2292  0.2672
   37MOL    O2210894   7.149   2.228   4.232  0.5160 -0.0071 -0.2070
   37MOL    C2310895   7.026   2.289   4.193  0.5222  0.0334  0.4456
   37MOL    H2410896   7.595   2.151   4.176  1.4118  0.2384 -0.1069
   37MOL    H2510897   7.513   2.250   4.068 -1.2625 -1.5717  0.0665
   37MOL    H2610898   7.303   2.175   4.447  0.4429  0.8543  1.4928
   37MOL    H2710899   7.467   2.137   4.419 -0.5940 -0.9466 -0.4197
   37MOL    H2810900   7.408   2.302   4.427 -1.0530  0.8641 -1.8066
   37MOL    H2910901   6.950   2.260   4.266  2.3015  0.3505  2.4522
   37MOL    H3010902   6.988   2.260   4.095  0.0886  3.1331 -0.3400
   37MOL    H3110903   7.034   2.397   4.187  0.3996 -0.0262 -0.9155
   37MOL    C3210904   7.370   2.042   4.200 -0.3539  0.6595  0.3094
   37MOL    C3310905   7.370   1.977   4.062  0.1798  0.2526  0.0465
   37MOL    C3410906   7.292   2.068   3.958  0.6278  0.9311  0.7467
   37MOL    C3510907   7.517   1.969   4.010 -0.2215 -0.5535  0.0127
   37MOL    O3610908   7.547   2.026   3.901  0.6013 -0.5461  0.0694
   37MOL    O3710909   7.603   1.907   4.084 -0.1258 -0.2919  0.2995
   37MOL    C3810910   7.737   1.901   4.039  0.3758 -0.6502  0.2588
   37MOL    H3910911   7.286   2.014   4.264 -2.0732  0.2712 -2.0331
   37MOL    H4010912   7.444   1.986   4.257 -0.3142  0.3537 -0.0321
   37MOL    H4110913   7.269   2.023   3.862  0.3031  1.9360  0.3518
   37MOL    H4210914   7.195   2.102   3.996 -1.0036 -1.7913 -0.8269
   37MOL    H4310915   7.347   2.161   3.945 -0.2499  1.3988  0.3081
   37MOL    H4410916   7.751   1.890   3.932 -0.9976 -1.0169  0.1162
   37MOL    H4510917   7.793   1.820   4.086 -0.6647 -0.9540  0.9912
   37MOL    H4610918   7.791   1.994   4.059  0.9779 -0.6895 -1.1268
   37MOL    C4710919   7.305   1.830   4.064 -0.1977  0.1389 -0.0459
   37MOL    C4810920   7.155   1.794   4.069  0.0246  0.0768 -0.1164
   37MOL    C4910921   7.095   1.856   4.199 -0.6110 -0.4731  0.2147
   37MOL    C5010922   7.084   1.838   3.940  0.0459 -0.5088 -0.6150
   37MOL    O5110923   7.000   1.931   3.946  0.6600 -0.0727 -0.1619
   37MOL    O5210924   7.132   1.779   3.829  0.2088 -0.4794  0.1115
   37MOL    C5310925   7.062   1.798   3.714  0.0771 -0.1869  0.8819
   37MOL    H5410926   7.351   1.792   4.156  1.1290  2.1387  0.1453
   37MOL    H5510927   7.347   1.770   3.983 -1.6841  0.5139 -1.1127
   37MOL    H5610928   7.091   1.965   4.201 -1.7350 -0.5156  0.6387
   37MOL    H5710929   6.989   1.839   4.219 -0.7583  1.7649  1.4408
   37MOL    H5810930   7.150   1.821   4.287 -0.3587  0.4109  0.4089
   37MOL    H5910931   7.059   1.905   3.698  2.9929  0.0678  1.8271
   37MOL    H6010932   6.959   1.766   3.733  0.3051 -1.2633  0.3557
   37MOL    H6110933   7.102   1.754   3.622 -3.2117  1.7959 -1.6324
   37MOL    C6210934   7.139   1.633   4.082  0.2664 -0.6146  0.7610
   37MOL    C6310935   7.018   1.548   4.126 -0.0352  0.4619  0.1244
   37MOL    C6410936   7.013   1.555   4.283 -0.0730 -0.0481 -0.1955
   37MOL    C6510937   6.885   1.608   4.067  0.7271 -0.9492 -0.3350
   37MOL    O6610938   6.791   1.652   4.129  0.6751  0.1743  0.2560
   37MOL    O6710939   6.887   1.601   3.935 -0.2662  0.0197 -0.9826
   37MOL    C6810940   6.793   1.671   3.863  0.2815  0.2923  0.5044
   37MOL    H6910941   7.227   1.604   4.139  0.0614 -2.0110  0.3984
   37MOL    H7010942   7.163   1.587   3.986  0.1051  0.5855  0.1402
   37MOL    H7110943   7.102   1.515   4.331 -1.3619 -0.1200  2.1738
   37MOL    H7210944   6.987   1.651   4.326 -0.4871 -0.2192 -0.0631
   37MOL    H7310945   6.934   1.489   4.318  1.0148 -2.5706 -2.3136
   37MOL    H7410946   6.692   1.638   3.886  0.4710  0.1258  1.0999
   37MOL    H7510947   6.809   1.646   3.758 -1.8208 -2.8910  0.8722
   37MOL    H7610948   6.798   1.778   3.885 -0.4190  0.6883 -1.1605
   37MOL    C7710949   7.039   1.401   4.084 -0.2858  0.3136  0.2076
   37MOL    C7810950   6.941   1.280   4.129  0.0231 -0.2538  0.0185
   37MOL    C7910951   7.002   1.229   4.261  0.2329 -0.0615 -0.0517
   37MOL    C8010952   6.791   1.323   4.151  0.7412  0.6052 -0.9952
   37MOL    O8110953   6.719   1.352   4.058  0.2742  0.2219 -0.2687
   37MOL    O8210954   6.752   1.317   4.280 -0.6036 -0.2144 -0.0395
   37MOL    C8310955   6.618   1.334   4.308 -0.3079 -0.3094  0.4393
   37MOL    H8410956   7.139   1.379   4.121 -0.8059  0.9320  2.0753
   37MOL    H8510957   7.045   1.407   3.976  1.4665  1.3498  0.3410
   37MOL    H8610958   7.076   1.152   4.241  0.7155  0.6370 -0.9547
   37MOL    H8710959   7.037   1.318   4.314 -1.3058  1.2023 -1.1122
   37MOL    H8810960   6.926   1.172   4.315 -0.5455  0.1603 -0.8944
   37MOL    H8910961   6.560   1.259   4.254 -1.1954  0.1718  0.7050
   37MOL    H9010962   6.576   1.425   4.267 -1.4865 -0.7416  0.6642
   37MOL    H9110963   6.585   1.312   4.410 -3.0332 -0.3379 -0.4053
   37MOL    C9210964   6.948   1.175   4.011 -0.3551  0.5347  0.1438
   37MOL    C9310965   6.858   1.042   3.997 -0.0874  0.8007 -0.3489
   37MOL    C9410966   6.861   0.971   4.137 -0.9185  0.7182  0.0569
   37MOL    C9510967   6.709   1.068   3.954  0.0305 -0.0726 -0.8234
   37MOL    O9610968   6.611   1.022   4.017 -0.7746 -0.3966 -0.0001
   37MOL    O9710969   6.703   1.143   3.835  0.2339 -0.3320  0.2455
   37MOL    C9810970   6.580   1.197   3.782  0.2505  0.3716 -0.1059
   37MOL    H9910971   7.052   1.143   3.999 -0.3533  1.1543 -1.6233
   37MOL   H10010972   6.932   1.233   3.920  0.4817  1.8812  0.8413
   37MOL   H10110973   6.792   1.009   4.212  0.2455 -0.4583  1.7781
   37MOL   H10210974   6.830   0.867   4.129  0.7224  0.1930  0.2135
   37MOL   H10310975   6.960   0.963   4.183 -1.7619  0.7771  1.9433
   37MOL   H10410976   6.603   1.252   3.691 -0.3607  0.6062 -0.1209
   37MOL   H10510977   6.532   1.266   3.852 -1.6033 -0.8035 -0.1801
   37MOL   H10610978   6.514   1.112   3.765  1.8356 -0.2874 -3.3023
   37MOL   C10710979   6.936   0.955   3.892  0.3389  0.1990  0.6344
   37MOL   C10810980   6.869   0.834   3.812  0.5760  0.4607  0.6944
   37MOL   C10910981   6.778   0.747   3.899 -0.4062  0.3158  0.1605
   37MOL   C11010982   6.789   0.891   3.689  0.1727 -1.1009  0.5077
   37MOL   O11110983   6.671   0.856   3.671 -0.1754  0.1700 -0.3724
   37MOL   O11210984   6.861   0.985   3.618 -0.0613 -0.3469 -0.0509
   37MOL   C11310985   6.789   1.044   3.507 -0.1650  0.5168  0.2041
   37MOL   H11410986   7.021   0.908   3.941  0.0112 -0.5557  0.4835
   37MOL   H11510987   6.980   1.016   3.813 -1.6578  1.1470  0.2296
   37MOL   H11610988   6.693   0.799   3.943 -2.4108 -2.5641 -0.1125
   37MOL   H11710989   6.731   0.665   3.844  0.4221 -1.8871  2.6232
   37MOL   H11810990   6.832   0.691   3.976 -1.0439  0.5324  0.7597
   37MOL   H11910991   6.690   1.067   3.544 -1.4321 -3.2857 -0.6055
   37MOL   H12010992   6.770   0.977   3.424  2.4255 -0.7655  0.5756
   37MOL   H12110993   6.830   1.136   3.466 -0.8886  0.8698  0.2794
   37MOL   C12210994   6.993   0.741   3.766  0.1782 -0.1298  0.5190
   37MOL   C12310995   6.994   0.657   3.627  0.0747  0.2284  0.2777
   37MOL   C12410996   6.867   0.573   3.615 -0.0832 -0.3090 -0.1941
   37MOL   C12510997   7.020   0.743   3.500  0.1466  0.0450 -0.0791
   37MOL   O12610998   6.940   0.745   3.408  0.8572 -0.5176  0.3589
   37MOL   O12710999   7.122   0.827   3.517 -0.0557  0.1234 -0.0727
   37MOL   C12811000   7.167   0.900   3.398  0.5573 -0.7101 -0.4215
   37MOL   H12911001   7.024   0.676   3.848 -1.1386 -1.6320 -0.1404
   37MOL   H13011002   7.079   0.807   3.755 -0.6442  1.0188  0.8854
   37MOL   H13111003   6.861   0.513   3.706 -0.4371  0.9373  0.6191
   37MOL   H13211004   6.772   0.627   3.609  0.1727  0.2376  0.5741
   37MOL   H13311005   6.861   0.499   3.536 -1.7586  0.0044 -0.3758
   37MOL   H13411006   7.078   0.951   3.361 -0.5293 -0.3207  2.5652
   37MOL   H13511007   7.215   0.852   3.313 -0.9761  0.7249 -2.1433
   37MOL   H13611008   7.238   0.982   3.415  1.5175 -1.3851 -1.1423
   37MOL   C13711009   7.118   0.561   3.656 -1.2152 -0.3383  0.3980
   37MOL   C13811010   7.185   0.469   3.545  0.1001  0.2699 -0.1692
   37MOL   C13911011   7.075   0.388   3.460  0.5496 -0.5965  0.1412
   37MOL   C14011012   7.278   0.548   3.454  0.0411  0.3707 -0.0348
   37MOL   O14111013   7.279   0.546   3.329 -0.2241 -1.1618 -0.1342
   37MOL   O14211014   7.375   0.606   3.518 -0.4291 -0.3990  0.0919
   37MOL   C14311015   7.478   0.669   3.451 -0.3249  0.4982  0.1873
   37MOL   H14411016   7.095   0.489   3.734  1.3661  0.5991  2.0852
   37MOL   H14511017   7.197   0.619   3.704 -0.1428  0.4385 -2.1850
   37MOL   H14611018   7.122   0.311   3.399  1.1412  0.2262 -0.4546
   37MOL   H14711019   7.003   0.347   3.530  0.6078 -0.5843  0.2078
   37MOL   H14811020   7.021   0.450   3.388 -1.2560  0.0459  2.0133
   37MOL   H14911021   7.472   0.778   3.451  0.0351  0.5218 -1.2112
   37MOL   H15011022   7.493   0.646   3.346 -1.0716 -1.2633  0.4561
   37MOL   H15111023   7.569   0.629   3.496 -0.1013  0.5000 -0.2636
   37MOL   C15211024   7.262   0.360   3.622 -0.4791  0.1243  0.4573
   37MOL   C15311025   7.369   0.263   3.558 -0.2806 -0.3765 -0.8595
   37MOL   C15411026   7.358   0.212   3.414  0.4816  0.1205  0.3883
   37MOL   C15511027   7.512   0.330   3.570  0.2298 -0.9100 -0.1983
   37MOL   O15611028   7.544   0.382   3.679 -0.2127 -0.2275 -0.3690
   37MOL   O15711029   7.595   0.312   3.462 -0.3902  0.0970  0.1703
   37MOL   C15811030   7.722   0.371   3.462 -0.9072  0.6276  0.4976
   37MOL   H15911031   7.191   0.295   3.672 -0.2488 -0.8765 -0.4993
   37MOL   H16011032   7.301   0.404   3.713  0.4392 -0.9193  0.5720
   37MOL   H16111033   7.437   0.150   3.372  0.6115  0.3443  0.2939
   37MOL   H16211034   7.270   0.150   3.401  2.1469 -1.9522 -1.2154
   37MOL   H16311035   7.356   0.294   3.341  1.7262 -3.1859 -3.5792
   37MOL   H16411036   7.784   0.344   3.376 -0.9011  0.4771  0.5504
   37MOL   H16511037   7.784   0.330   3.541 -1.1119  1.4688  1.1006
   37MOL   H16611038   7.719   0.478   3.482 -2.5059  0.4737  1.1847
   37MOL   C16711039   7.391   0.141   3.663 -0.0938 -0.1069  0.0141
   37MOL   C16811040   7.326   7.874   3.649  0.2278  0.3938 -0.2958
   37MOL   C16911041   7.170   0.012   3.641 -0.1661  0.6503 -0.3997
   37MOL   C17011042   7.382   7.795   3.522  0.0919  0.0463 -0.0513
   37MOL   O17111043   7.304   7.744   3.435  0.1698 -0.3750 -0.0006
   37MOL   O17211044   7.517   7.800   3.515  0.2017 -0.6033  0.4402
   37MOL   C17311045   7.580   7.728   3.406  0.0530 -0.9681  0.0583
   37MOL   H17411046   7.375   0.188   3.761 -0.9417  1.6718 -0.9542
   37MOL   H17511047   7.498   0.117   3.667 -0.0166  0.4217  2.2708
   37MOL   H17611048   7.131   7.795   3.605  2.9938  0.3486 -3.2178
   37MOL   H17711049   7.125   0.043   3.736  1.1600 -1.5266  0.9932
   37MOL   H17811050   7.136   0.086   3.569 -2.4177 -2.0213 -2.1972
   37MOL   H17911051   7.624   7.633   3.436 -1.5890 -1.7475  0.0683
   37MOL   H18011052   7.661   7.785   3.361 -2.0818  1.9257 -0.2811
   37MOL   H18111053   7.509   7.717   3.324 -0.4536 -2.9716  0.7403
   37MOL   C18211054   7.360   7.803   3.786 -0.6835  0.0993  0.1835
   37MOL   C18311055   7.302   7.663   3.829  0.0135 -0.0055 -0.1373
   37MOL   C18411056   7.158   7.673   3.884  0.3139 -0.3909  0.5578
   37MOL   C18511057   7.309   7.561   3.715  0.4714 -0.0307 -0.2899
   37MOL   O18611058   7.210   7.512   3.663  0.4636  0.2920 -0.5320
   37MOL   O18711059   7.436   7.528   3.682  0.4736 -0.2515 -0.7867
   37MOL   C18811060   7.453   7.436   3.570  0.3746 -0.0421 -0.7484
   37MOL   H18911061   7.339   0.001   3.862  0.2050  0.2384  0.2985
   37MOL   H19011062   7.468   7.805   3.799 -0.4284  1.6315 -1.8632
   37MOL   H19111063   7.082   7.682   3.806  1.9553 -0.8480 -1.1250
   37MOL   H19211064   7.129   7.586   3.943 -0.2143 -0.1496  0.6542
   37MOL   H19311065   7.134   7.753   3.954  1.3870  0.2182  0.2330
   37MOL   H19411066   7.551   7.404   3.536  1.2484  1.4623  0.2963
   37MOL   H19511067   7.397   7.473   3.484  0.8748  1.0650 -0.6125
   37MOL   H19611068   7.392   7.352   3.602  0.9392 -0.2643 -0.2509
   37MOL   C19711069   7.399   7.618   3.945 -0.5271  1.0261  0.0860
   37MOL   C19811070   7.391   7.493   4.048  0.1932 -0.3942 -0.3719
   37MOL   C19911071   7.285   7.510   4.166 -0.1048 -0.1698 -0.4808
   37MOL   C20011072   7.346   7.363   3.965  0.4335 -0.3502 -0.8791
   37MOL   O20111073   7.431   7.280   3.924  0.0430 -0.2285 -0.1479
   37MOL   O20211074   7.215   7.355   3.946 -0.4986 -0.1041 -0.3299
   37MOL   C20311075   7.164   7.235   3.886  0.5516  0.5097  0.4907
   37MOL   H20411076   7.405   7.700   4.016 -1.7160  1.8681 -0.7578
   37MOL   H20511077   7.498   7.607   3.900 -1.2525  0.7841 -1.4950
   37MOL   H20611078   7.181   7.493   4.140 -0.1344  0.3516 -0.7065
   37MOL   H20711079   7.309   7.449   4.252 -0.5501  1.3482  0.7483
   37MOL   H20811080   7.283   7.611   4.207 -1.9907 -0.8178  1.0668
   37MOL   H20911081   7.176   7.139   3.937 -0.9129 -0.0262 -0.1624
   37MOL   H21011082   7.187   7.210   3.782 -0.9700 -0.4759  0.3834
   37MOL   H21111083   7.056   7.239   3.889  0.4503 -0.8097 -0.8212
   37MOL   C21211084   7.535   7.464   4.108 -0.2144  1.0932 -0.0009
   37MOL   C21311085   7.639   7.559   4.179 -0.3971  0.0378  0.1874
   37MOL   C21411086   7.753   7.470   4.243  0.2904 -0.2816 -0.4517
   37MOL   C21511087   7.709   7.646   4.067  0.2208  0.1085 -0.5973
   37MOL   O21611088   7.819   7.623   4.026  0.4348 -0.6946  1.0424
   37MOL   O21711089   7.640   7.755   4.039 -0.4931 -0.4342 -0.0255
   37MOL   C21811090   7.705   7.839   3.935  0.1013  0.3872 -0.0930
   37MOL   H21911091   7.607   7.423   4.037 -0.2912 -0.2725  0.6804
   37MOL   H22011092   7.525   7.393   4.190  1.3199  1.2284  0.3231
   37MOL   H22111093   7.830   7.530   4.292 -0.7847 -1.0740  2.3182
   37MOL   H22211094   7.709   7.400   4.315 -0.6451  2.1629  1.3997
   37MOL   H22311095   7.806   7.414   4.166  2.5803  2.9265 -1.3078
   37MOL   H22411096   7.812   7.840   3.952 -0.1475 -1.2416  1.8955
   37MOL   H22511097   7.663   0.060   3.920 -1.0496 -0.1481 -0.4971
   37MOL   H22611098   7.683   7.784   3.843 -0.2274 -1.6796  1.1688
   37MOL   C22711099   7.561   7.639   4.287  0.3521  1.1485  0.0393
   37MOL   C22811100   7.616   7.725   4.416  0.2384 -0.5622 -0.6108
   37MOL   C22911101   7.737   7.821   4.364  0.2121 -0.0811 -0.1977
   37MOL   C23011102   7.493   7.817   4.445 -0.8477  0.5441 -0.0773
   37MOL   O23111103   7.485   0.059   4.407  0.2391  0.0103  0.1983
   37MOL   O23211104   7.386   7.741   4.494 -0.2264 -0.5861  0.1336
   37MOL   C23311105   7.258   7.792   4.484  0.0551  0.4138 -0.0590
   37MOL   H23411106   7.491   7.567   4.330 -1.0510  1.9375 -0.8646
   37MOL   H23511107   7.494   7.711   4.238  0.9273  1.7091  0.0721
   37MOL   H23611108   7.764   0.018   4.439  0.2370 -0.8266  0.5472
   37MOL   H23711109   7.830   7.770   4.338  0.9643  0.9728  0.3855
   37MOL   H23811110   7.697   0.003   4.283  0.9307 -1.9061 -1.9517
   37MOL   H23911111   7.218   7.811   4.384 -0.0673  0.0492 -0.0803
   37MOL   H24011112   7.245   7.866   4.562  1.8783 -1.5857  2.2385
   37MOL   H24111113   7.202   7.709   4.527  1.1606 -0.6175 -0.5723
   37MOL   C24211114   7.640   7.626   4.537 -0.2325 -0.0962  0.1002
   37MOL   C24311115   7.712   7.673   4.665  0.0971 -0.3517 -0.4683
   37MOL   C24411116   7.865   7.668   4.650  0.3016 -0.7402 -0.2073
   37MOL   C24511117   7.672   7.814   4.710  0.5136  0.0191  0.2532
   37MOL   O24611118   7.747   0.032   4.729  0.5843 -0.1739  0.1049
   37MOL   O24711119   7.540   7.821   4.736  0.2571 -0.4712  0.0279
   37MOL   C24811120   7.486   0.074   4.752  0.2378  0.3765  0.3681
   37MOL   H24911121   7.717   7.560   4.499 -0.8792 -1.4892  1.1735
   37MOL   H25011122   7.545   7.576   4.558 -1.1177  1.7760  0.7722
   37MOL   H25111123   0.039   7.677   4.745 -0.0730 -2.1260  0.1429
   37MOL   H25211124   0.019   7.576   4.600 -0.3904 -1.3685  0.5173
   37MOL   H25311125   0.009   7.750   4.581 -0.9931 -0.8343 -0.7339
   37MOL   H25411126   7.379   0.082   4.771 -0.1116 -0.1102 -1.3721
   37MOL   H25511127   7.499   0.140   4.667 -0.5280 -0.3617 -0.3320
   37MOL   H25611128   7.529   0.125   4.838 -0.5226  2.3527 -0.4076
   37MOL   C25711129   7.664   7.570   4.776 -0.0433 -0.7193 -0.2224
   37MOL   C25811130   7.694   7.412   4.783 -0.0112  0.2106  0.2787
   37MOL   C25911131   7.698   7.344   4.644 -0.2646 -0.5547  0.6660
   37MOL   C26011132   7.831   7.395   4.848 -0.0225  0.3608 -0.1665
   37MOL   O26111133   0.043   7.338   4.791  0.1532 -0.0917  0.5804
   37MOL   O26211134   7.843   7.442   4.974  0.5847  0.0769  0.2264
   37MOL   C26311135   0.092   7.423   5.039  0.4231 -0.0368 -0.7960
   37MOL   H26411136   7.558   7.581   4.795 -0.1195 -0.6348 -0.6804
   37MOL   H26511137   7.697   7.617   4.868 -1.9214  0.2000  0.0051
   37MOL   H26611138   7.709   7.237   4.666  1.0734 -0.3561  0.9899
   37MOL   H26711139   7.612   7.368   4.581  1.0370  0.0625 -0.9130
   37MOL   H26811140   7.783   7.381   4.587 -0.4214  0.5742  1.1543
   37MOL   H26911141   0.091   7.340   5.110  0.1029 -1.2171 -2.1426
   37MOL   H27011142   0.111   7.515   5.094 -2.9654 -0.2264  0.8400
   37MOL   H27111143   0.175   7.399   4.973  1.0823 -0.1385  0.0643
   37MOL   C27211144   7.594   7.342   4.880 -0.3984 -0.0157  0.0899
   37MOL   C27311145   7.446   7.289   4.852  1.0156 -0.0460  0.5115
   37MOL   C27411146   7.354   7.403   4.799 -0.0511  0.1951 -0.0770
   37MOL   C27511147   7.444   7.172   4.756  0.0720 -0.1667  0.5639
   37MOL   O27611148   7.401   7.186   4.642 -0.5655  0.2152  0.7664
   37MOL   O27711149   7.495   7.062   4.805  0.4420  0.1550 -0.0033
   37MOL   C27811150   7.516   6.961   4.718  0.1954 -0.5149  0.3013
   37MOL   H27911151   7.597   7.402   4.970  1.8789  1.0217 -0.6284
   37MOL   H28011152   7.650   7.259   4.925  1.4156  1.7406  1.1627
   37MOL   H28111153   7.378   7.487   4.864  0.0821 -0.3817  0.6309
   37MOL   H28211154   7.373   7.433   4.696  2.7966 -1.6938 -0.1532
   37MOL   H28311155   7.248   7.378   4.810 -0.5661  1.9548 -0.9231
   37MOL   H28411156   7.435   6.888   4.722  1.7393 -2.2435  0.5561
   37MOL   H28511157   7.609   6.917   4.752 -0.1972 -1.4807  0.1510
   37MOL   H28611158   7.525   6.991   4.613 -1.6788  1.5004  0.6629
   37MOL   C28711159   7.375   7.246   4.986  0.7023 -0.6266 -0.8514
   37MOL   C28811160   7.457   7.230   5.118  0.0017  1.1706  0.6298
   37MOL   C28911161   7.372   7.243   5.241 -0.5003  0.2392 -0.1526
   37MOL   C29011162   7.517   7.093   5.115 -0.2899 -0.2753 -0.5151
   37MOL   O29111163   7.642   7.068   5.111 -0.3482  0.4643  0.0966
   37MOL   O29211164   7.425   6.998   5.107  0.5193 -0.0246 -0.4195
   37MOL   C29311165   7.467   6.868   5.075  0.6908  0.0133  0.5780
   37MOL   H29411166   7.300   7.168   4.972 -0.3979  0.1111  0.6981
   37MOL   H29511167   7.306   7.327   5.013 -0.3512 -1.5320 -0.7913
   37MOL   H29611168   7.342   7.348   5.241  2.7018  1.2218 -0.0736
   37MOL   H29711169   7.277   7.191   5.240 -0.1408 -0.4701  1.9990
   37MOL   H29811170   7.441   7.228   5.324 -0.3053  0.3461 -0.2948
   37MOL   H29911171   7.504   6.867   4.973 -0.2642  2.3314  0.1679
   37MOL   H30011172   7.387   6.794   5.078 -0.0103  0.6233 -2.1385
   37MOL   H30111173   7.543   6.828   5.142  0.1535 -1.3699  0.3741
   37MOL   H30211174   7.527   7.312   5.132 -0.6164  2.6515 -4.1888
   38MOL     C111175   2.397   2.146   1.276 -0.0246 -0.0990  0.8228
   38MOL     C211176   2.338   2.048   1.166 -0.2917  0.0825 -0.3769
   38MOL     C311177   2.294   1.921   1.241  0.3118  0.2844  0.9148
   38MOL     C411178   2.214   2.113   1.102 -0.2668  0.1857 -0.5255
   38MOL     O511179   2.158   2.212   1.150 -0.5138  0.5852  0.2892
   38MOL     O611180   2.155   2.040   1.004 -0.4917 -0.3871 -0.3526
   38MOL     C711181   2.047   2.115   0.935 -0.5425  0.8884  0.2376
   38MOL     H811182   2.419   2.240   1.227  1.2487 -0.9458 -0.2520
   38MOL     H911183   2.340   2.155   1.369 -0.1349  2.6260  0.5214
   38MOL    H1011184   2.382   1.866   1.273  0.9840  0.2693 -0.8843
   38MOL    H1111185   2.230   1.935   1.329  0.7482  0.1566  1.2508
   38MOL    H1211186   2.239   1.853   1.176  2.1537 -0.0926 -0.2884
   38MOL    H1311187   2.094   2.211   0.916 -0.3173  0.8920  0.7979
   38MOL    H1411188   1.958   2.140   0.992 -0.0318  0.6296  1.1648
   38MOL    H1511189   2.012   2.059   0.848 -0.0822 -1.4896  1.5142
   38MOL    H1611190   2.493   2.099   1.297  0.4192 -0.4044 -1.7611
   38MOL    C1711191   2.442   2.010   1.052  0.0625  0.0954  0.3049
   38MOL    C1811192   2.502   2.104   0.944  0.9393  0.4926 -0.2408
   38MOL    C1911193   2.404   2.182   0.855  0.3055  0.3428 -0.1806
   38MOL    C2011194   2.594   2.201   1.016  0.1095 -0.4328 -0.0778
   38MOL    O2111195   2.689   2.165   1.086  0.1052  0.2244  0.3521
   38MOL    O2211196   2.559   2.334   1.004  0.7328 -0.8958 -0.5414
   38MOL    C2311197   2.629   2.440   1.066  0.7291  0.4366 -0.3911
   38MOL    H2411198   2.380   1.943   0.992  0.8685 -0.2843 -0.1144
   38MOL    H2511199   2.519   1.950   1.099  0.1186  0.8778  1.2274
   38MOL    H2611200   2.352   2.257   0.915  1.9472  1.6922 -0.4022
   38MOL    H2711201   2.450   2.239   0.774  0.5755  0.8852  0.3424
   38MOL    H2811202   2.322   2.117   0.826 -1.9113  1.1691  3.8143
   38MOL    H2911203   2.731   2.411   1.044  0.3302 -0.4619 -1.0685
   38MOL    H3011204   2.613   2.429   1.174  1.9460 -0.5933 -0.2962
   38MOL    H3111205   2.590   2.537   1.037 -0.2782 -0.3487 -1.7257
   38MOL    C3211206   2.587   2.006   0.851 -0.1243 -0.5482  0.5967
   38MOL    C3311207   2.655   2.033   0.713  0.3856  0.7205 -0.0465
   38MOL    C3411208   2.548   2.016   0.602  0.1377 -0.6296  0.8823
   38MOL    C3511209   2.718   2.173   0.714  0.5699 -0.3943  0.3174
   38MOL    O3611210   2.689   2.261   0.633  0.1846 -0.4493 -0.0648
   38MOL    O3711211   2.817   2.176   0.805 -0.5283  0.1837 -0.1228
   38MOL    C3811212   2.883   2.304   0.825 -1.2663  0.2601  0.7126
   38MOL    H3911213   2.533   1.912   0.836 -0.5770 -0.4202  1.3526
   38MOL    H4011214   2.664   1.974   0.921  0.2241  0.7052  0.8009
   38MOL    H4111215   2.504   2.107   0.562 -0.5376 -1.8371 -1.1991
   38MOL    H4211216   2.603   1.973   0.518  0.8810  0.9042  0.5614
   38MOL    H4311217   2.469   1.943   0.618 -0.5279  0.0760  0.8177
   38MOL    H4411218   2.818   2.378   0.873 -1.1931 -0.0521  1.2960
   38MOL    H4511219   2.932   2.341   0.735 -2.5322  0.5369  0.1345
   38MOL    H4611220   2.963   2.291   0.899  1.1443 -1.4848 -2.0907
   38MOL    C4711221   2.778   1.932   0.680 -0.5868 -0.3134  0.1888
   38MOL    C4811222   2.770   1.776   0.690  0.0642  0.6149  0.6580
   38MOL    C4911223   2.795   1.746   0.838  0.4771 -0.3748 -0.1390
   38MOL    C5011224   2.636   1.719   0.638  0.6158 -1.0619 -0.8675
   38MOL    O5111225   2.554   1.662   0.708  0.2108  0.2741 -0.1202
   38MOL    O5211226   2.621   1.732   0.504 -0.2944 -0.6460 -0.4722
   38MOL    C5311227   2.533   1.669   0.427  0.3101  0.2087 -0.2381
   38MOL    H5411228   2.858   1.952   0.752 -2.0998  1.9450  1.3390
   38MOL    H5511229   2.834   1.960   0.591 -2.7957  1.4193 -0.7231
   38MOL    H5611230   2.878   1.799   0.884 -1.7076  3.1720 -0.1518
   38MOL    H5711231   2.707   1.777   0.893 -0.2726  0.4152 -1.7503
   38MOL    H5811232   2.797   1.638   0.855  1.1449 -0.8464 -2.9227
   38MOL    H5911233   2.536   1.561   0.442 -1.1653 -0.1129 -2.1366
   38MOL    H6011234   2.549   1.687   0.321 -1.8556  2.2643 -0.2484
   38MOL    H6111235   2.432   1.704   0.447  0.6716  0.4370  1.3099
   38MOL    C6211236   2.897   1.714   0.608 -0.0420 -0.1411 -0.2311
   38MOL    C6311237   2.971   1.573   0.635 -1.3584  0.1712  0.4078
   38MOL    C6411238   3.050   1.567   0.769 -0.1070 -0.4053 -0.0532
   38MOL    C6511239   2.864   1.466   0.643 -0.0323  0.5224  0.4738
   38MOL    O6611240   2.833   1.409   0.747 -0.1038  0.2184 -0.5550
   38MOL    O6711241   2.800   1.456   0.517 -0.1429 -0.1426 -0.1489
   38MOL    C6811242   2.702   1.366   0.490  0.6079 -0.4194  0.0948
   38MOL    H6911243   2.981   1.784   0.612 -0.4317  0.4053 -1.4739
   38MOL    H7011244   2.876   1.708   0.501  2.1971 -0.8384 -0.6591
   38MOL    H7111245   2.989   1.580   0.858 -0.0022  0.5615 -0.1136
   38MOL    H7211246   3.117   1.483   0.791 -0.0578 -0.4645 -0.4219
   38MOL    H7311247   3.110   1.658   0.767 -0.8682  0.1007  0.2121
   38MOL    H7411248   2.691   1.361   0.382  0.3400 -0.6732  0.1355
   38MOL    H7511249   2.613   1.405   0.540  2.2438  0.6285  2.2923
   38MOL    H7611250   2.708   1.271   0.542  0.6729 -0.6824 -0.3987
   38MOL    C7711251   3.066   1.555   0.506  1.0840  0.3019  0.2004
   38MOL    C7811252   3.189   1.461   0.495  0.5564  0.0226  0.3363
   38MOL    C7911253   3.308   1.523   0.573  0.0082  0.9284 -0.0874
   38MOL    C8011254   3.153   1.329   0.559 -0.2138  0.6223  0.2299
   38MOL    O8111255   3.214   1.288   0.658  0.2106 -0.2610  0.0687
   38MOL    O8211256   3.048   1.266   0.494  0.1086  0.2269  0.6857
   38MOL    C8311257   3.002   1.150   0.549  0.4028 -0.4768 -0.3962
   38MOL    H8411258   3.109   1.652   0.481 -0.2506  0.3815 -1.8983
   38MOL    H8511259   3.007   1.548   0.415  0.4647  0.2370  0.6014
   38MOL    H8611260   3.391   1.459   0.602 -0.6109 -0.1246 -0.6136
   38MOL    H8711261   3.353   1.606   0.519  0.4667  1.5149  1.1650
   38MOL    H8811262   3.275   1.566   0.668 -2.8688 -0.6946 -0.3076
   38MOL    H8911263   2.922   1.159   0.622  0.7921  1.1729 -0.1572
   38MOL    H9011264   3.081   1.098   0.604 -0.8790 -0.5225  1.4309
   38MOL    H9111265   2.959   1.086   0.472 -1.2733 -0.8798  0.8434
   38MOL    C9211266   3.221   1.448   0.341 -0.0908  0.4081  0.4293
   38MOL    C9311267   3.342   1.380   0.275 -0.8866 -0.3014  0.3732
   38MOL    C9411268   3.366   1.237   0.331  0.1428  0.1924  0.2362
   38MOL    C9511269   3.299   1.371   0.125 -0.3193 -0.2523 -0.6164
   38MOL    O9611270   3.281   1.265   0.061 -0.4530  0.6035  0.7839
   38MOL    O9711271   3.291   1.494   0.066 -0.6184  0.1315  0.0991
   38MOL    C9811272   3.226   1.507   7.820 -0.0355 -0.0922 -0.0154
   38MOL    H9911273   3.229   1.554   0.316 -0.4415  0.6358  1.2753
   38MOL   H10011274   3.130   1.418   0.288  0.0236  0.9024 -0.0560
   38MOL   H10111275   3.271   1.184   0.320  1.1739 -1.4870 -0.7153
   38MOL   H10211276   3.450   1.189   0.281  1.0945  2.4244 -0.3963
   38MOL   H10311277   3.386   1.233   0.438  0.7615  0.9110  0.1509
   38MOL   H10411278   3.283   1.453   7.745 -2.6391 -3.3499  0.2565
   38MOL   H10511279   3.207   1.611   7.791  2.2974  1.3268  3.2627
   38MOL   H10611280   3.130   1.457   7.830 -0.0328 -0.0944  0.0001
   38MOL   C10711281   3.472   1.468   0.295 -0.2274  0.3199  0.1688
   38MOL   C10811282   3.603   1.462   0.197  0.5306  0.6685 -0.2958
   38MOL   C10911283   3.583   1.570   0.085  0.3359 -0.4892  1.1898
   38MOL   C11011284   3.725   1.507   0.277  0.7435  0.2680  0.2242
   38MOL   O11111285   3.778   1.614   0.262  0.1183 -0.7912  0.3856
   38MOL   O11211286   3.762   1.412   0.360  0.2603  0.4380  0.1053
   38MOL   C11311287   3.857   1.432   0.466 -0.7873  0.6923 -0.2188
   38MOL   H11411288   3.500   1.445   0.398 -0.9495  0.8214  0.4835
   38MOL   H11511289   3.449   1.574   0.305 -0.7332 -0.0225  3.0051
   38MOL   H11611290   3.526   1.523   0.004 -0.1591 -0.2678  1.4048
   38MOL   H11711291   3.531   1.664   0.105  0.8504  0.1789 -0.5316
   38MOL   H11811292   3.677   1.600   0.039 -1.2865  1.2055 -1.1316
   38MOL   H11911293   3.904   1.529   0.453  3.0351 -1.2274 -1.5955
   38MOL   H12011294   3.940   1.361   0.468 -0.5773  0.9502  0.2196
   38MOL   H12111295   3.802   1.427   0.559 -0.9737 -2.5738 -0.4557
   38MOL   C12211296   3.633   1.320   0.126  0.8788  0.4772  0.0563
   38MOL   C12311297   3.735   1.303   0.007  0.8678  0.1220 -0.5181
   38MOL   C12411298   3.683   1.358   7.746 -0.3012 -0.1274  0.2299
   38MOL   C12511299   3.871   1.377   0.032  0.5800 -0.0549 -0.6254
   38MOL   O12611300   3.912   1.477   7.848 -0.3246 -0.6559 -0.6429
   38MOL   O12711301   3.940   1.329   0.145 -0.9060 -0.0616  0.0451
   38MOL   C12811302   4.056   1.391   0.190 -0.6167  0.2026  0.0789
   38MOL   H12911303   3.536   1.283   0.093  0.0088  0.2353  2.7442
   38MOL   H13011304   3.660   1.244   0.200  1.4898  0.6465  0.0127
   38MOL   H13111305   3.688   1.467   7.735  2.3221 -0.2693 -0.2704
   38MOL   H13211306   3.741   1.318   7.663 -0.8037 -0.9873  0.2942
   38MOL   H13311307   3.576   1.342   7.738 -0.2870 -0.2357  0.2572
   38MOL   H13411308   4.039   1.493   0.224  0.8628  0.8340 -1.0201
   38MOL   H13511309   4.138   1.383   0.119 -1.2665 -1.7185 -0.4876
   38MOL   H13611310   4.098   1.324   0.266  0.3525 -1.4600 -1.8655
   38MOL   C13711311   3.772   1.154   7.863 -0.0005  0.1164 -0.1251
   38MOL   C13811312   3.685   1.037   7.803  0.9742  0.8399  0.7829
   38MOL   C13911313   3.535   1.054   7.845 -0.2686  0.2192 -0.2249
   38MOL   C14011314   3.683   1.035   7.648 -0.1929 -0.7081 -0.4507
   38MOL   O14111315   3.761   1.097   7.583  0.7204 -0.2080  0.1547
   38MOL   O14211316   3.598   0.949   7.596  0.0537  0.3960 -0.0398
   38MOL   C14311317   3.597   0.927   7.459  0.0919 -0.0853 -1.0055
   38MOL   H14411318   3.801   1.124   0.086 -0.1822  0.4919  0.0432
   38MOL   H14511319   3.870   1.150   7.817  0.0263 -1.9806  0.0552
   38MOL   H14611320   3.495   1.152   7.820  0.7676  1.8015  4.0414
   38MOL   H14711321   3.463   0.983   7.804 -0.5402 -0.7223  1.8245
   38MOL   H14811322   3.518   1.040   0.074  1.9311 -5.4144 -0.4242
   38MOL   H14911323   3.492   0.917   7.429 -1.0338  3.2510  1.5972
   38MOL   H15011324   3.654   0.836   7.439 -0.8900 -0.2868 -3.0970
   38MOL   H15111325   3.636   1.016   7.410  0.9879  0.2540  0.3119
   38MOL   C15211326   3.733   0.899   7.862 -0.0587 -0.5037 -0.3873
   38MOL   C15311327   3.879   0.835   7.838  0.3869  0.2552  0.4897
   38MOL   C15411328   3.919   0.828   7.683  0.1779  0.0459  0.5412
   38MOL   C15511329   3.981   0.932   0.040 -0.2967 -0.2319 -0.2086
   38MOL   O15611330   4.080   0.984   7.865  0.2799  0.1514 -0.1400
   38MOL   O15711331   3.950   0.951   0.172  0.5875 -0.0114 -0.1315
   38MOL   C15811332   4.023   1.026   0.255 -0.3914 -0.5234 -0.1335
   38MOL   H15911333   3.657   0.824   7.837 -2.3606  0.7915  2.4543
   38MOL   H16011334   3.725   0.906   0.093  1.5446  0.2792 -0.3180
   38MOL   H16111335   4.005   0.766   7.658 -1.2763 -1.9552  0.3174
   38MOL   H16211336   3.838   0.780   7.628 -1.4728  2.3431  0.8832
   38MOL   H16311337   3.936   0.926   7.640 -0.7501  0.8174  1.8908
   38MOL   H16411338   4.110   0.968   0.285 -1.2769 -1.7333  0.1030
   38MOL   H16511339   3.963   1.017   0.345 -1.4759 -0.8694 -0.8808
   38MOL   H16611340   4.038   1.123   0.207 -1.8013 -0.6736 -0.8732
   38MOL   C16711341   3.865   0.685   0.023  0.9474 -0.3617  0.0802
   38MOL   C16811342   3.983   0.582   0.021  0.0753  0.3402  0.1085
   38MOL   C16911343   3.937   0.474   0.126 -0.5023 -0.2604  0.4279
   38MOL   C17011344   3.985   0.518   7.755 -0.0837 -0.2974 -0.6590
   38MOL   O17111345   4.076   0.535   7.675 -0.5300  0.3852  0.3025
   38MOL   O17211346   3.872   0.455   7.730  0.2960  0.1031  0.1813
   38MOL   C17311347   3.855   0.396   7.600  0.2695  0.3212 -0.0943
   38MOL   H17411348   3.779   0.636   7.856  1.6369 -1.0108 -0.5391
   38MOL   H17511349   3.835   0.702   0.127 -0.4834 -0.0161 -0.3797
   38MOL   H17611350   3.922   0.518   0.224  0.9007  0.2609  0.4191
   38MOL   H17711351   3.840   0.431   0.097  1.1906 -2.8493 -1.6174
   38MOL   H17811352   3.999   0.385   0.124  0.0264  0.1178 -0.9487
   38MOL   H17911353   3.750   0.369   7.594  0.0806  0.7574  1.0909
   38MOL   H18011354   3.913   0.304   7.600 -1.9635 -1.1629  2.8219
   38MOL   H18111355   3.881   0.462   7.517 -0.9416  0.1366 -0.6309
   38MOL   C18211356   4.126   0.649   0.048  0.3905  0.4063 -0.2970
   38MOL   C18311357   4.250   0.571   0.101  0.0861 -0.4006  0.7810
   38MOL   C18411358   4.239   0.542   0.250  0.3346 -0.4997 -0.5704
   38MOL   C18511359   4.266   0.436   0.024 -0.8659 -0.0485 -0.0540
   38MOL   O18611360   4.226   0.330   0.072 -0.1075 -0.1386 -0.1238
   38MOL   O18711361   4.330   0.446   7.786 -0.0354 -0.6700 -0.6726
   38MOL   C18811362   4.337   0.325   7.714 -0.1956  0.1329  0.1198
   38MOL   H18911363   4.116   0.720   0.130  1.7978 -1.1070  1.2195
   38MOL   H19011364   4.151   0.717   7.844  2.0537 -0.7019 -0.7321
   38MOL   H19111365   4.287   0.616   0.314 -0.6297 -0.3440 -0.0119
   38MOL   H19211366   4.132   0.551   0.273  0.1199 -0.5878 -1.5221
   38MOL   H19311367   4.278   0.450   0.294 -2.9637 -1.8046 -0.2290
   38MOL   H19411368   4.253   0.304   7.648 -1.3424  3.7815  0.3036
   38MOL   H19511369   4.364   0.233   7.766 -1.3994  0.1775  0.8293
   38MOL   H19611370   4.421   0.344   7.647 -0.5115  2.4993  0.3788
   38MOL   C19711371   4.376   0.667   0.094 -0.5519 -0.0681 -0.2666
   38MOL   C19811372   4.530   0.623   0.119  0.3607  0.4444  0.3841
   38MOL   C19911373   4.538   0.505   0.213 -0.5554  0.5762  0.0140
   38MOL   C20011374   4.588   0.578   7.864 -0.2680 -0.7041 -0.1434
   38MOL   O20111375   4.625   0.465   7.849  0.3226  0.1662 -0.0528
   38MOL   O20211376   4.598   0.674   7.768  0.3559 -0.7136 -0.2068
   38MOL   C20311377   4.655   0.652   7.642  0.4092  0.3853 -0.5845
   38MOL   H20411378   4.364   0.749   0.165  0.5371 -0.8876  0.9194
   38MOL   H20511379   4.377   0.721   0.000 -1.2906  2.6137  1.2329
   38MOL   H20611380   4.490   0.530   0.308 -0.9207 -1.7500  0.4659
   38MOL   H20711381   4.491   0.413   0.177 -0.2102  1.2004 -2.0593
   38MOL   H20811382   4.637   0.466   0.236 -0.9418  0.0802  0.8836
   38MOL   H20911383   4.607   0.571   7.587 -1.1834  1.6061 -1.0098
   38MOL   H21011384   4.756   0.610   7.645  0.4517  0.3093 -2.3544
   38MOL   H21111385   4.657   0.745   7.586  3.4978  1.8672  1.8225
   38MOL   C21211386   4.610   0.748   0.175  0.3346  0.3365  0.1822
   38MOL   C21311387   4.762   0.734   0.220  0.5622 -0.6820 -0.3149
   38MOL   C21411388   4.812   0.880   0.249  0.5016  0.5533  1.0496
   38MOL   C21511389   4.754   0.661   0.361  0.3865  0.0714  0.4266
   38MOL   O21611390   4.816   0.558   0.394  0.5310 -0.5735 -0.0719
   38MOL   O21711391   4.668   0.732   0.453  0.5045 -0.2516  0.0239
   38MOL   C21811392   4.650   0.680   0.581 -0.8462 -0.3873  0.6668
   38MOL   H21911393   4.559   0.811   0.247  0.8532 -1.2537  1.9939
   38MOL   H22011394   4.619   0.816   0.090  1.9712  0.3916  0.3830
   38MOL   H22111395   4.908   0.889   0.300  2.1647  1.1024 -2.0946
   38MOL   H22211396   4.815   0.943   0.161 -0.2391 -0.0139  0.6127
   38MOL   H22311397   4.741   0.926   0.318 -0.8425 -0.5105  0.3952
   38MOL   H22411398   4.600   0.583   0.577  1.3659 -1.5123 -0.5688
   38MOL   H22511399   4.590   0.744   0.645 -3.2717 -2.7188  0.8279
   38MOL   H22611400   4.745   0.651   0.625 -1.0396 -2.4048 -0.1980
   38MOL   C22711401   4.853   0.668   0.112  0.1809  0.5670  1.3759
   38MOL   C22811402   5.007   0.663   0.110  0.5875 -0.3008 -0.1155
   38MOL   C22911403   5.060   0.793   0.049  0.3677  0.1804 -0.0245
   38MOL   C23011404   5.081   0.640   0.247 -0.2518  0.2286  0.2277
   38MOL   O23111405   5.107   0.531   0.289 -0.3479  0.2506 -0.8672
   38MOL   O23211406   5.106   0.752   0.309  0.2650  0.3694  0.2816
   38MOL   C23311407   5.149   0.742   0.442 -0.0982  0.6322  0.2557
   38MOL   H23411408   4.825   0.717   0.019  0.7938 -2.1381 -0.2730
   38MOL   H23511409   4.827   0.562   0.114 -2.4427  1.1875  1.2334
   38MOL   H23611410   5.017   0.807   7.827  0.6112  3.1480  0.2585
   38MOL   H23711411   5.029   0.877   0.111 -1.1505 -0.5867  0.2810
   38MOL   H23811412   5.169   0.799   0.044  0.3950 -0.4984 -0.3711
   38MOL   H23911413   5.138   0.835   0.499  0.6763  0.5446  0.5610
   38MOL   H24011414   5.251   0.703   0.456 -0.8379 -1.2840  0.4596
   38MOL   H24111415   5.091   0.667   0.496  0.9701 -0.0277  0.5087
   38MOL   C24211416   5.039   0.539   0.013  0.5694  0.2692 -0.6439
   38MOL   C24311417   5.181   0.527   7.809  0.4947  0.5991  0.4696
   38MOL   C24411418   5.298   0.536   0.025  0.2582 -0.0296  0.2289
   38MOL   C24511419   5.178   0.382   7.758  0.8166 -0.4675  0.6056
   38MOL   O24611420   5.268   0.304   7.778 -0.3396 -0.0207  0.2880
   38MOL   O24711421   5.073   0.357   7.682 -0.6239  0.4372 -0.3222
   38MOL   C24811422   5.053   0.229   7.637  0.0272  0.0489  0.0164
   38MOL   H24911423   4.963   0.551   7.813 -0.5136 -1.8359  0.0492
   38MOL   H25011424   5.015   0.445   0.063  0.3950 -0.2148 -1.6376
   38MOL   H25111425   5.331   0.635   0.057  2.5233  0.6746 -3.9257
   38MOL   H25211426   5.289   0.462   0.104 -1.0776 -1.5824 -1.3304
   38MOL   H25311427   5.390   0.506   7.853 -0.5709  0.0478 -1.3952
   38MOL   H25411428   5.123   0.191   7.563  1.0304  2.3257 -0.2418
   38MOL   H25511429   4.953   0.228   7.594  0.1947 -1.7132 -0.3751
   38MOL   H25611430   5.046   0.167   7.727 -0.1258  1.4266  0.9676
   38MOL   C25711431   5.183   0.617   7.671 -0.1920  0.8560  0.0980
   38MOL   C25811432   5.285   0.603   7.556 -0.4247  0.2593 -0.4074
   38MOL   C25911433   5.425   0.555   7.610 -0.6683 -0.6746 -0.1491
   38MOL   C26011434   5.249   0.508   7.436  0.7039  0.1306 -0.5142
   38MOL   O26111435   5.336   0.457   7.370 -0.4573  0.1020  0.4760
   38MOL   O26211436   5.112   0.498   7.410 -0.0897 -0.1719  0.7053
   38MOL   C26311437   5.076   0.405   7.311 -0.6223  0.5682 -0.2215
   38MOL   H26411438   5.195   0.719   7.708 -1.6690  0.3761  1.9932
   38MOL   H26511439   5.085   0.616   7.624  1.1013 -4.2922 -2.8312
   38MOL   H26611440   5.464   0.622   7.687 -0.3053 -0.3249 -0.6384
   38MOL   H26711441   5.422   0.450   7.640 -2.3948 -0.1456  1.6075
   38MOL   H26811442   5.501   0.575   7.534  1.2396  1.1022  2.1361
   38MOL   H26911443   5.129   0.418   7.217  0.5481 -0.6290  0.2458
   38MOL   H27011444   4.968   0.411   7.304 -0.6440 -0.8781 -1.4991
   38MOL   H27111445   5.098   0.301   7.336 -0.2363  0.1864 -2.1004
   38MOL   C27211446   5.314   0.751   7.502  0.3611  0.1422  0.1298
   38MOL   C27311447   5.211   0.834   7.409  0.0848 -0.4871  0.6167
   38MOL   C27411448   5.066   0.818   7.453 -0.0037 -0.3973 -0.1107
   38MOL   C27511449   5.263   0.978   7.431 -0.5221  0.2091 -0.8280
   38MOL   O27611450   5.192   1.063   7.485 -0.0445  0.7400  0.6980
   38MOL   O27711451   5.388   0.997   7.367  0.3941  0.0425 -0.1582
   38MOL   C27811452   5.451   1.124   7.381  0.3636  0.3417 -0.0576
   38MOL   H27911453   5.403   0.744   7.439 -0.1262 -0.7644 -0.4632
   38MOL   H28011454   5.353   0.811   7.584  1.0001  0.8353 -0.6756
   38MOL   H28111455   5.020   0.720   7.448  1.0016 -0.9149  0.5245
   38MOL   H28211456   5.063   0.849   7.557  2.0784 -2.4276  0.6026
   38MOL   H28311457   5.001   0.886   7.397  0.0096  2.0416  2.7188
   38MOL   H28411458   5.441   1.153   7.486  2.2417 -1.9206  0.7844
   38MOL   H28511459   5.397   1.185   7.310 -1.2246  0.1082  0.9257
   38MOL   H28611460   5.555   1.120   7.347  1.2625  0.0180  2.5951
   38MOL   C28711461   5.216   0.809   7.253 -0.3788  0.0759  0.2498
   38MOL   C28811462   5.155   0.922   7.164  0.0360 -0.8353 -0.2210
   38MOL   C28911463   5.257   0.947   7.054  0.2789  0.3409 -1.1419
   38MOL   C29011464   5.020   0.882   7.100  0.5534 -0.0979 -0.9159
   38MOL   O29111465   4.965   0.767   7.117 -0.1347 -0.0785 -0.0878
   38MOL   O29211466   4.970   0.979   7.030 -0.2122 -0.0250 -0.2982
   38MOL   C29311467   4.850   0.972   6.966 -0.3781 -0.7891 -0.1529
   38MOL   H29411468   5.189   0.705   7.237  0.1416 -0.2533  1.4453
   38MOL   H29511469   5.324   0.801   7.236 -0.2320 -1.2932  1.6981
   38MOL   H29611470   5.217   1.010   6.975  2.4002  1.9028 -1.0113
   38MOL   H29711471   5.356   0.985   7.078 -0.6977  1.4158  1.3024
   38MOL   H29811472   5.268   0.854   6.998  1.8970 -0.0777 -0.1483
   38MOL   H29911473   4.855   0.920   6.870 -1.5937 -1.9293  0.3798
   38MOL   H30011474   4.811   1.073   6.956 -3.5327 -1.7450  1.8101
   38MOL   H30111475   4.776   0.918   7.025 -1.3392 -1.7928 -2.2290
   38MOL   H30211476   5.147   1.012   7.225  0.0053 -0.1797 -1.2008
   39MOL     C111477   7.263   7.364   0.822 -0.2672 -0.0687  0.0455
   39MOL     C211478   7.218   7.234   0.752  0.0612 -1.1325  0.0903
   39MOL     C311479   7.067   7.249   0.735 -0.5637 -0.3929 -0.4334
   39MOL     C411480   7.285   7.226   0.618 -1.0769 -0.3633  1.3729
   39MOL     O511481   7.377   7.299   0.579 -0.4951  0.8569  0.0233
   39MOL     O611482   7.230   7.136   0.531  0.4588 -0.2948  0.6831
   39MOL     C711483   7.290   7.094   0.414 -0.5229  0.3877 -0.2984
   39MOL     H811484   7.371   7.371   0.840 -0.2077 -1.5637  0.3751
   39MOL     H911485   7.232   7.460   0.782  1.8557  0.1395 -1.1680
   39MOL    H1011486   7.045   7.347   0.694  0.4779 -0.6019 -1.5160
   39MOL    H1111487   7.024   7.177   0.665 -1.0730  0.4702 -1.0125
   39MOL    H1211488   7.016   7.251   0.831  1.2284  0.4965  0.5175
   39MOL    H1311489   7.378   7.035   0.438 -0.6719 -0.0510 -0.8375
   39MOL    H1411490   7.307   7.185   0.357 -0.5778  0.7106  0.1965
   39MOL    H1511491   7.219   7.036   0.355  1.4618 -0.3288 -2.0404
   39MOL    H1611492   7.210   7.366   0.917 -0.6114  3.1766 -0.1919
   39MOL    C1711493   7.267   7.122   0.853  0.0969  0.2940 -0.3276
   39MOL    C1811494   7.253   6.964   0.829  0.4922 -0.3106 -0.4468
   39MOL    C1911495   7.104   6.924   0.797 -0.0902  0.0644 -0.1121
   39MOL    C2011496   7.353   6.919   0.721 -0.1524  0.7980 -0.1468
   39MOL    O2111497   7.324   6.832   0.643  0.5483  0.0974  0.1542
   39MOL    O2211498   7.470   6.981   0.722 -0.3522 -0.4815  0.7321
   39MOL    C2311499   7.562   6.952   0.622 -0.9232  0.0641  0.2446
   39MOL    H2411500   7.211   7.146   0.943  1.1567  0.5140  0.2824
   39MOL    H2511501   7.374   7.139   0.865  0.4439 -0.9377 -1.4271
   39MOL    H2611502   7.092   6.959   0.694 -1.0451 -1.4121 -0.5175
   39MOL    H2711503   7.087   6.817   0.789  0.5697 -0.0967  0.6075
   39MOL    H2811504   7.028   6.986   0.845 -1.4881 -1.2641 -0.6025
   39MOL    H2911505   7.527   6.898   0.533 -0.0374  1.0640 -0.7229
   39MOL    H3011506   7.645   6.890   0.656 -1.0977 -0.7321 -0.7319
   39MOL    H3111507   7.601   7.044   0.580 -1.1928  0.3982  0.7337
   39MOL    C3211508   7.302   6.908   0.969  0.1674 -0.0203  0.0691
   39MOL    C3311509   7.331   6.763   1.002  0.6446  0.0496 -0.5685
   39MOL    C3411510   7.221   6.669   0.944 -0.4986  0.0151  0.1663
   39MOL    C3511511   7.465   6.709   0.940  0.0279  1.3401 -0.1936
   39MOL    O3611512   7.552   6.786   0.903  0.2582  0.0506  0.2186
   39MOL    O3711513   7.477   6.575   0.939  0.0938 -0.4942 -0.0942
   39MOL    C3811514   7.570   6.520   0.851 -0.5946 -0.3998  0.2202
   39MOL    H3911515   7.234   6.956   1.040 -0.6389 -2.0511  0.7131
   39MOL    H4011516   7.396   6.961   0.985 -1.9632  3.1249  3.0327
   39MOL    H4111517   7.223   6.651   0.837  0.3838  0.4804  0.0970
   39MOL    H4211518   7.222   6.570   0.990 -1.9277  0.1774  0.5655
   39MOL    H4311519   7.127   6.717   0.971 -0.3123 -0.8629  2.5070
   39MOL    H4411520   7.557   6.553   0.748  1.1112  2.7271  0.9438
   39MOL    H4511521   7.550   6.413   0.848  2.6392 -1.0627  0.1631
   39MOL    H4611522   7.671   6.540   0.889 -0.9662 -0.1718  1.0921
   39MOL    C4711523   7.342   6.743   1.159 -0.0014 -0.5052 -0.5338
   39MOL    C4811524   7.459   6.793   1.248  0.1361 -0.0293  0.4805
   39MOL    C4911525   7.576   6.692   1.234  0.0251 -0.5594 -0.5706
   39MOL    C5011526   7.519   6.931   1.206  0.5870  0.4264 -1.0909
   39MOL    O5111527   7.642   6.949   1.202 -0.2629 -0.0641 -0.5952
   39MOL    O5211528   7.425   7.021   1.203  0.4253  0.2389  0.0859
   39MOL    C5311529   7.452   7.158   1.181  0.8118 -0.0736  0.2045
   39MOL    H5411530   7.321   6.641   1.190 -1.2047  0.0334  0.4574
   39MOL    H5511531   7.250   6.795   1.185  0.2698 -0.0584 -0.4616
   39MOL    H5611532   7.646   6.714   1.153  0.0933 -1.1754 -0.6855
   39MOL    H5711533   7.641   6.702   1.320 -0.0634  1.5416 -0.7227
   39MOL    H5811534   7.550   6.586   1.224 -0.1758 -0.2519 -3.8863
   39MOL    H5911535   7.364   7.222   1.190 -0.0282 -0.8075 -2.3196
   39MOL    H6011536   7.501   7.178   1.085  2.3331  3.3967  1.5975
   39MOL    H6111537   7.518   7.182   1.264  0.0783  2.3757  0.1322
   39MOL    C6211538   7.408   6.813   1.391  0.4689 -0.8983 -0.4028
   39MOL    C6311539   7.349   6.705   1.499 -0.1309  0.2594  0.8251
   39MOL    C6411540   7.199   6.683   1.456  0.1292 -0.6021  0.1749
   39MOL    C6511541   7.425   6.568   1.491 -0.0375  0.8044 -0.2476
   39MOL    O6611542   7.369   6.461   1.474  0.3785 -0.3981  0.3648
   39MOL    O6711543   7.558   6.580   1.513 -0.3980  0.1153 -0.3027
   39MOL    C6811544   7.647   6.465   1.511 -0.1728 -0.5425  0.3187
   39MOL    H6911545   7.332   6.891   1.385 -0.4044 -1.6960  0.1586
   39MOL    H7011546   7.497   6.855   1.438 -0.7754  0.2747  0.9667
   39MOL    H7111547   7.129   6.765   1.453 -0.9419 -1.4425  1.4093
   39MOL    H7211548   7.189   6.651   1.352 -0.6921 -2.4231  0.7854
   39MOL    H7311549   7.153   6.601   1.513 -2.0910  0.1255 -0.5283
   39MOL    H7411550   7.630   6.417   1.607 -0.3331 -0.3398  0.3922
   39MOL    H7511551   7.747   6.497   1.480 -1.2366  1.4919 -1.1878
   39MOL    H7611552   7.610   6.389   1.442  0.7687 -1.8690  1.2615
   39MOL    C7711553   7.370   6.774   1.636 -0.3238 -0.5590  0.2246
   39MOL    C7811554   7.290   6.743   1.773  0.3384  0.6638  0.5123
   39MOL    C7911555   7.153   6.806   1.762 -0.3841  0.0841  0.1284
   39MOL    C8011556   7.260   6.593   1.800  0.4309  0.1769 -0.3122
   39MOL    O8111557   7.156   6.553   1.844 -0.0685  0.6467  0.3037
   39MOL    O8211558   7.370   6.520   1.777 -0.4950 -0.4306  0.3442
   39MOL    C8311559   7.359   6.378   1.813 -0.3368 -0.7102  0.7909
   39MOL    H8411560   7.349   6.880   1.621  0.0471 -0.7572 -1.8161
   39MOL    H8511561   7.477   6.771   1.657 -0.0178 -0.8263 -1.3525
   39MOL    H8611562   7.086   6.787   1.845 -0.8351  0.0632 -0.2369
   39MOL    H8711563   7.163   6.915   1.762  1.2914 -0.0538 -1.1364
   39MOL    H8811564   7.101   6.776   1.671  1.4446 -0.4455 -0.7785
   39MOL    H8911565   7.451   6.320   1.810 -0.9509 -1.6230 -1.3870
   39MOL    H9011566   7.295   6.322   1.745 -1.2410  0.9648  0.2198
   39MOL    H9111567   7.316   6.368   1.913 -0.1373 -0.3042  0.9174
   39MOL    C9211568   7.378   6.797   1.895  0.6103  0.0111 -0.2888
   39MOL    C9311569   7.364   6.764   2.051 -0.2900 -0.3033 -0.1331
   39MOL    C9411570   7.447   6.628   2.081 -0.4253 -1.3203 -0.1092
   39MOL    C9511571   7.424   6.875   2.138  0.2304  0.2505 -0.2318
   39MOL    O9611572   7.513   6.856   2.221  0.1498 -0.0106  0.4208
   39MOL    O9711573   7.371   6.998   2.111  0.2414  0.0622  0.4761
   39MOL    C9811574   7.412   7.102   2.182 -0.3936 -0.4608 -0.1615
   39MOL    H9911575   7.375   6.905   1.882  2.8919  0.0775 -0.4265
   39MOL   H10011576   7.481   6.767   1.876 -0.1441 -2.4585 -0.6242
   39MOL   H10111577   7.403   6.543   2.028  0.1423 -1.3173 -0.5945
   39MOL   H10211578   7.543   6.630   2.029 -0.5951  0.9091 -0.3632
   39MOL   H10311579   7.461   6.589   2.182  2.6710  0.3115  0.1280
   39MOL   H10411580   7.331   7.143   2.243 -1.7757 -0.5879 -1.8783
   39MOL   H10511581   7.447   7.177   2.111 -0.0334 -1.8083 -1.4248
   39MOL   H10611582   7.487   7.084   2.259 -0.6863  2.2253  0.8104
   39MOL   C10711583   7.206   6.761   2.092  0.3494 -0.3330 -0.3046
   39MOL   C10811584   7.135   6.739   2.235  0.0215 -0.4108 -0.0242
   39MOL   C10911585   6.979   6.723   2.204 -0.0432  0.2988  0.4323
   39MOL   C11011586   7.188   6.606   2.295  0.0473  0.0546  0.1705
   39MOL   O11111587   7.138   6.498   2.267 -0.0851 -0.5262  0.5546
   39MOL   O11211588   7.299   6.616   2.373  0.6119 -0.5692  0.1524
   39MOL   C11311589   7.364   6.494   2.417  0.2347  0.2527 -0.3308
   39MOL   H11411590   7.169   6.683   2.026 -1.3474 -0.5429  0.8637
   39MOL   H11511591   7.150   6.848   2.057 -1.2598 -0.9700  0.6085
   39MOL   H11611592   6.962   6.631   2.148 -3.5859  0.8183  0.5441
   39MOL   H11711593   6.922   6.744   2.294 -0.5037 -1.3255  0.5419
   39MOL   H11811594   6.962   6.801   2.130  0.0246 -0.5417 -0.4870
   39MOL   H11911595   7.317   6.398   2.396  0.3184  0.6425 -2.3173
   39MOL   H12011596   7.378   6.498   2.525 -0.9699 -0.0847 -0.1579
   39MOL   H12111597   7.469   6.486   2.386 -0.0466 -1.3783 -0.9550
   39MOL   C12211598   7.157   6.862   2.330  0.4972 -0.0357  0.5394
   39MOL   C12311599   7.077   6.903   2.465 -0.2943 -0.0140 -0.1675
   39MOL   C12411600   6.963   6.998   2.413 -0.2801 -0.0921 -0.2080
   39MOL   C12511601   7.019   6.778   2.545  0.6944  0.3613  0.5625
   39MOL   O12611602   6.900   6.767   2.575  0.3557 -0.0964 -0.5943
   39MOL   O12711603   7.112   6.687   2.583  0.0548 -0.3712  0.2879
   39MOL   C12811604   7.067   6.569   2.633 -0.5227  0.2898  0.4298
   39MOL   H12911605   7.159   6.944   2.259 -0.6734 -2.1934 -2.0925
   39MOL   H13011606   7.260   6.861   2.364  1.4163  0.3012 -2.1222
   39MOL   H13111607   6.912   6.963   2.323 -3.5899  1.0209  1.1412
   39MOL   H13211608   6.879   6.993   2.482  0.4651 -0.1871  0.6916
   39MOL   H13311609   6.993   7.101   2.393  3.1790 -0.9098  0.4308
   39MOL   H13411610   7.138   6.489   2.610  0.7800  1.1267  1.4166
   39MOL   H13511611   6.966   6.538   2.607 -0.3193  1.9974 -2.6541
   39MOL   H13611612   7.069   6.573   2.742  0.4133 -1.5971  0.4900
   39MOL   C13711613   7.184   6.980   2.552  0.0729  0.8214  0.1986
   39MOL   C13811614   7.142   7.085   2.662  0.6563  0.2620  0.0843
   39MOL   C13911615   7.059   7.210   2.601 -0.2191 -0.2184 -0.2076
   39MOL   C14011616   7.058   7.013   2.766 -0.7744  0.2059 -0.5388
   39MOL   O14111617   7.112   6.931   2.846 -0.2838  0.0517  0.0079
   39MOL   O14211618   6.928   7.049   2.761 -0.1007  0.4499  0.0466
   39MOL   C14311619   6.833   6.969   2.823 -0.3291  0.0568 -0.2139
   39MOL   H14411620   7.254   7.036   2.490  2.5778 -1.8959  0.4719
   39MOL   H14511621   7.247   6.908   2.604 -0.7824 -0.8344 -0.9846
   39MOL   H14611622   6.954   7.199   2.574 -1.1475  3.2342  1.5568
   39MOL   H14711623   7.059   7.300   2.663 -2.1652  1.3102 -2.3219
   39MOL   H14811624   7.101   7.237   2.505 -0.1055 -0.1549 -0.1402
   39MOL   H14911625   6.853   6.862   2.819 -1.4087 -0.2747  2.1697
   39MOL   H15011626   6.736   7.007   2.788 -0.1736  1.2025  0.5790
   39MOL   H15111627   6.834   6.990   2.930  0.0879  0.5330 -0.3089
   39MOL   C15211628   7.276   7.128   2.729  0.0479  0.5336  0.8654
   39MOL   C15311629   7.292   7.249   2.832 -0.1425  0.3574  0.1478
   39MOL   C15411630   7.318   7.377   2.752 -0.1442 -0.2735 -0.1652
   39MOL   C15511631   7.168   7.254   2.924  0.2814  0.1543 -0.7830
   39MOL   O15611632   7.076   7.338   2.903 -0.0062 -0.4384  0.6245
   39MOL   O15711633   7.164   7.167   3.025 -0.5001 -0.3943  0.1491
   39MOL   C15811634   7.057   7.152   3.119  0.0358 -0.5178  0.6230
   39MOL   H15911635   7.338   7.154   2.643 -1.5892  2.5825  0.2728
   39MOL   H16011636   7.329   7.039   2.764  0.8186  0.4594 -0.4640
   39MOL   H16111637   7.250   7.387   2.667 -1.9444  0.4486  1.3220
   39MOL   H16211638   7.318   7.470   2.809 -1.9304 -1.3423  1.6276
   39MOL   H16311639   7.410   7.373   2.693 -0.5639  1.0533 -0.9531
   39MOL   H16411640   6.961   7.196   3.094  1.5156  2.5011 -0.0442
   39MOL   H16511641   7.099   7.198   3.209 -1.6064  0.0889  1.0840
   39MOL   H16611642   7.038   7.046   3.137 -2.6851 -0.1314  0.2191
   39MOL   C16711643   7.422   7.218   2.923  0.3085 -0.7476  0.1899
   39MOL   C16811644   7.493   7.314   3.024  0.4605 -0.1544  0.2134
   39MOL   C16911645   7.393   7.394   3.106 -0.0960  0.2405  0.4163
   39MOL   C17011646   7.568   7.216   3.115  0.4968  0.0009  0.8312
   39MOL   O17111647   7.541   7.204   3.233 -0.4114  0.7818  0.1701
   39MOL   O17211648   7.659   7.141   3.050  0.1091 -0.3322  0.0858
   39MOL   C17311649   7.728   7.035   3.117  0.2463 -0.0650 -0.4017
   39MOL   H17411650   7.496   7.181   2.852  0.1558 -1.2400  0.2845
   39MOL   H17511651   7.397   7.123   2.970 -2.2671 -0.1374  0.1801
   39MOL   H17611652   7.441   7.430   3.197  1.8140  1.6620 -1.1183
   39MOL   H17711653   7.355   7.482   3.054 -3.3660 -1.9060 -0.9466
   39MOL   H17811654   7.306   7.336   3.136  0.5061 -0.9456 -0.0971
   39MOL   H17911655   7.801   6.986   3.053  1.4973 -0.4765  1.3357
   39MOL   H18011656   7.657   6.953   3.128 -0.2126  0.3505 -0.2200
   39MOL   H18111657   7.782   7.069   3.205 -1.0792 -0.3803  0.5514
   39MOL   C18211658   7.602   7.407   2.944  0.4458  0.6846  0.0136
   39MOL   C18311659   7.678   7.536   3.001  0.0708 -0.4506  0.0517
   39MOL   C18411660   7.573   7.638   3.042  0.4980 -0.2261 -0.4309
   39MOL   C18511661   7.773   7.512   3.120 -0.2207 -0.2847  0.0597
   39MOL   O18611662   7.800   7.403   3.166  0.6240  0.0467 -0.5195
   39MOL   O18711663   7.824   7.626   3.175 -0.6641 -0.1708  0.4818
   39MOL   C18811664   0.076   7.610   3.241  0.4205  0.6224 -0.4683
   39MOL   H18911665   7.536   7.447   2.867 -1.0840 -0.5940  0.6390
   39MOL   H19011666   7.670   7.338   2.894  1.2412  1.4133  0.0737
   39MOL   H19111667   7.608   7.741   3.048 -1.0941  0.3496 -1.0208
   39MOL   H19211668   7.480   7.644   2.986  1.3575  1.9762 -1.6922
   39MOL   H19311669   7.533   7.620   3.141  0.7832 -0.8538 -0.4227
   39MOL   H19411670   0.071   7.544   3.328  1.6722 -0.4380 -1.1869
   39MOL   H19511671   0.131   7.700   3.270  0.1411  0.7461 -0.3235
   39MOL   H19611672   0.151   7.566   3.176  0.3322  1.1349 -0.9246
   39MOL   C19711673   7.764   7.593   2.890 -0.0203 -0.0384  0.0914
   39MOL   C19811674   7.875   7.525   2.799  0.1321 -0.0088 -0.5605
   39MOL   C19911675   0.086   7.444   2.889 -0.5944  0.0764 -0.3703
   39MOL   C20011676   7.806   7.430   2.694  0.9507  0.2860  0.0922
   39MOL   O20111677   7.692   7.452   2.658 -0.6458  0.5924  0.1570
   39MOL   O20211678   0.007   7.328   2.649 -0.3073  0.5137 -0.4167
   39MOL   C20311679   7.833   7.222   2.571  0.3749  0.4288 -0.6688
   39MOL   H20411680   7.813   7.678   2.936 -0.7033  2.6243 -3.8291
   39MOL   H20511681   7.700   7.642   2.817  0.4045 -0.9251 -0.9009
   39MOL   H20611682   0.041   7.353   2.929 -2.1233  0.3417 -1.4552
   39MOL   H20711683   0.174   7.410   2.835 -0.8268  0.2953 -0.8872
   39MOL   H20811684   0.129   7.505   2.968  0.4852  0.5678 -1.3281
   39MOL   H20911685   0.000   7.130   2.607  0.3393  0.2007 -1.1989
   39MOL   H21011686   7.865   7.223   2.467 -1.3147 -1.8229 -1.2590
   39MOL   H21111687   7.725   7.207   2.574  0.5390 -0.4312  1.8266
   39MOL   C21211688   0.088   7.617   2.711  0.6552 -0.6586 -0.1967
   39MOL   C21311689   0.069   7.772   2.702 -1.0096  0.2484 -0.3567
   39MOL   C21411690   7.802   7.803   2.652 -0.3063  0.3413  0.2738
   39MOL   C21511691   0.101   7.849   2.835  0.1212  0.2123  0.5073
   39MOL   O21611692   0.167   7.802   2.922 -0.3554 -0.1658  0.5691
   39MOL   O21711693   0.070   0.102   2.830 -0.2723  0.3379 -0.2076
   39MOL   C21811694   0.069   0.178   2.952  0.5660 -0.2179 -0.5096
   39MOL   H21911695   0.111   7.581   2.610  3.5972 -0.3054  0.3235
   39MOL   H22011696   0.182   7.598   2.761  1.6070  0.1942 -1.6117
   39MOL   H22111697   7.811   0.007   2.580 -1.2397 -1.0249 -1.4101
   39MOL   H22211698   7.745   7.718   2.615  0.5336 -0.2816  0.3906
   39MOL   H22311699   7.747   7.858   2.728 -0.1050  0.3965  0.3819
   39MOL   H22411700   7.842   0.200   2.975  0.8520 -0.6436  1.2318
   39MOL   H22511701   0.135   0.260   2.924 -0.9920  0.9734 -0.7536
   39MOL   H22611702   0.103   0.123   3.040  3.2537 -0.3260 -1.5567
   39MOL   C22711703   0.165   7.833   2.579  1.0020  0.4479  0.0352
   39MOL   C22811704   0.326   7.819   2.572  0.4894 -1.1295 -0.0172
   39MOL   C22911705   0.398   7.850   2.708  0.0965 -0.4298  0.0808
   39MOL   C23011706   0.359   7.681   2.518  0.0467  0.8157  0.1561
   39MOL   O23111707   0.309   7.647   2.411 -0.1557  0.4314  0.2831
   39MOL   O23211708   0.414   7.605   2.599 -0.0845  0.0458  0.2044
   39MOL   C23311709   0.412   7.467   2.560  0.5810 -0.8903 -0.5210
   39MOL   H23411710   0.141   0.062   2.578  1.1709  0.4887  0.4572
   39MOL   H23511711   0.119   7.795   2.487  0.8842 -0.7661  0.5832
   39MOL   H23611712   0.363   7.779   2.783 -3.9227  0.8996 -0.4290
   39MOL   H23711713   0.506   7.835   2.710 -0.0433 -1.7212 -1.5765
   39MOL   H23811714   0.377   0.075   2.737 -1.4850 -0.3521 -1.2779
   39MOL   H23911715   0.485   7.451   2.481 -1.1527 -2.2971 -1.8747
   39MOL   H24011716   0.313   7.431   2.533  0.0044 -0.8994  1.4938
   39MOL   H24111717   0.445   7.402   2.641  1.2208 -0.6757 -0.6086
   39MOL   C24211718   0.372   0.039   2.471  0.2787 -0.3389 -0.0460
   39MOL   C24311719   0.508   0.045   2.394 -0.3069  0.0595  0.0389
   39MOL   C24411720   0.489   0.170   2.299 -0.0075  0.2405 -0.2026
   39MOL   C24511721   0.628   0.076   2.494  0.1070  0.0530 -0.4245
   39MOL   O24611722   0.708   7.870   2.526 -0.2198  0.0514 -0.9551
   39MOL   O24711723   0.622   0.205   2.533 -0.4738  0.6989 -0.3426
   39MOL   C24811724   0.699   0.259   2.636  0.2486  0.0067  0.1691
   39MOL   H24911725   0.358   0.135   2.521 -0.2094 -0.0738 -0.6875
   39MOL   H25011726   0.295   0.055   2.396  0.5915  2.8320  0.2606
   39MOL   H25111727   0.578   0.204   2.246 -0.7889  2.3985 -0.1706
   39MOL   H25211728   0.422   0.147   2.216 -2.4572 -0.2751  1.8720
   39MOL   H25311729   0.458   0.258   2.355  3.2336  1.4677 -0.2398
   39MOL   H25411730   0.656   0.244   2.735 -0.8311 -1.0787 -0.4505
   39MOL   H25511731   0.705   0.366   2.616 -2.0303 -0.3522 -2.6947
   39MOL   H25611732   0.799   0.217   2.628  0.1747 -0.4383  1.4323
   39MOL   C25711733   0.535   7.800   2.293 -0.2654  0.3149  0.0011
   39MOL   C25811734   0.636   7.794   2.170  0.1646  0.6475  0.6596
   39MOL   C25911735   0.780   7.856   2.205  0.4280 -0.1294 -0.4446
   39MOL   C26011736   0.653   7.644   2.134 -0.0236  0.2594  0.2174
   39MOL   O26111737   0.761   7.593   2.112 -0.1006 -0.4788  0.3522
   39MOL   O26211738   0.533   7.582   2.124 -0.1971 -0.2523  0.9841
   39MOL   C26311739   0.532   7.449   2.081  0.6857 -0.5726 -0.2017
   39MOL   H26411740   0.436   7.770   2.259 -0.6659  0.8844  0.6406
   39MOL   H26511741   0.579   7.722   2.356  0.0824 -3.2892 -4.4376
   39MOL   H26611742   0.862   7.837   2.136 -1.4103 -0.5511 -2.5857
   39MOL   H26711743   0.784   0.088   2.202  1.7972 -0.1524  0.2266
   39MOL   H26811744   0.807   7.819   2.303  0.5757  0.4182 -0.2766
   39MOL   H26911745   0.431   7.412   2.098  0.4257 -0.2351 -0.9731
   39MOL   H27011746   0.603   7.393   2.142 -0.3493 -1.5796  0.1017
   39MOL   H27111747   0.561   7.435   1.977 -1.9574 -1.1385 -0.8989
   39MOL   C27211748   0.563   7.861   2.043 -0.2463 -0.2950  0.3261
   39MOL   C27311749   0.606   7.855   1.890  0.4790  0.0780  0.4842
   39MOL   C27411750   0.499   0.066   1.821  0.4080  0.2742  0.7579
   39MOL   C27511751   0.753   0.028   1.873  0.0879 -0.1615  0.3330
   39MOL   O27611752   0.837   7.823   1.835  0.3345 -0.1759 -0.0083
   39MOL   O27711753   0.770   0.158   1.909  0.3590 -0.3557 -0.0402
   39MOL   C27811754   0.899   0.214   1.903 -0.0282 -0.5127 -0.0082
   39MOL   H27911755   0.554   0.090   2.063 -0.7530 -0.0529 -1.1570
   39MOL   H28011756   0.460   7.824   2.051 -1.1080  1.8053 -0.6753
   39MOL   H28111757   0.404   0.014   1.807  0.4539  0.5011 -0.4105
   39MOL   H28211758   0.468   0.149   1.885  1.4726  1.3012 -0.0465
   39MOL   H28311759   0.527   0.109   1.725 -0.7334  1.6330  1.0242
   39MOL   H28411760   0.935   0.213   1.800 -1.2538  0.7583 -0.4755
   39MOL   H28511761   0.968   0.149   1.957  1.0343  1.7649  1.4833
   39MOL   H28611762   0.910   0.315   1.944 -0.1374 -0.4522 -0.1280
   39MOL   C28711763   0.599   7.711   1.834  0.1076  0.1833  0.3245
   39MOL   C28811764   0.599   7.700   1.675  0.4969 -0.4574  0.4470
   39MOL   C28911765   0.662   7.567   1.629  0.1020 -0.0925  0.0497
   39MOL   C29011766   0.466   7.727   1.597  0.5583  0.0146 -0.3165
   39MOL   O29111767   0.356   7.701   1.647 -0.4248  0.4438  0.0316
   39MOL   O29211768   0.487   7.779   1.478  0.1876 -0.5520 -0.7416
   39MOL   C29311769   0.375   7.797   1.390  0.2692  0.2252  0.4842
   39MOL   H29411770   0.505   7.663   1.863 -1.0794  1.9626 -0.4700
   39MOL   H29511771   0.675   7.641   1.869 -1.6592 -1.4524  0.9826
   39MOL   H29611772   0.676   7.572   1.521  3.1608 -0.1676  0.4094
   39MOL   H29711773   0.760   7.552   1.673  0.7012  0.2855 -1.1360
   39MOL   H29811774   0.583   7.498   1.657  1.2198 -0.4604  2.3556
   39MOL   H29911775   0.406   7.789   1.286  0.7769 -1.8218  0.7638
   39MOL   H30011776   0.327   0.016   1.402  1.0821  0.8383 -1.0622
   39MOL   H30111777   0.305   7.715   1.410  0.3442 -0.4871 -1.9312
   39MOL   H30211778   0.660   7.784   1.642  0.3162 -0.9635 -1.2431
   40MOL     C111779   5.554   7.235   1.092 -0.5773 -0.0499 -1.0286
   40MOL     C211780   5.504   7.348   1.005  0.0821 -0.2146 -0.1768
   40MOL     C311781   5.627   7.428   0.976 -1.0387  0.4070  0.1131
   40MOL     C411782   5.440   7.292   0.879  0.0861  0.2048  0.3139
   40MOL     O511783   5.500   7.316   0.774 -0.4998  0.2418  0.4642
   40MOL     O611784   5.325   7.221   0.888  0.5833 -0.3691  0.1852
   40MOL     C711785   5.267   7.154   0.782 -0.1910 -0.6595 -0.4050
   40MOL     H811786   5.479   7.159   1.113  0.1955 -1.1754 -2.1933
   40MOL     H911787   5.623   7.179   1.028 -2.1771 -1.3968 -1.6192
   40MOL    H1011788   5.673   7.478   1.061  1.5772  0.7866 -1.4865
   40MOL    H1111789   5.697   7.360   0.928 -1.9540 -0.5700  0.1372
   40MOL    H1211790   5.617   7.503   0.898  1.7121 -1.7691 -2.4017
   40MOL    H1311791   5.342   7.106   0.719 -0.0239 -0.8398 -0.0720
   40MOL    H1411792   5.202   7.218   0.722  0.0289  0.8823  0.9714
   40MOL    H1511793   5.206   7.076   0.828  0.1225  0.4305  1.8795
   40MOL    H1611794   5.598   7.266   1.186 -1.5623 -0.4053 -0.4449
   40MOL    C1711795   5.404   7.424   1.105 -0.6194  0.2549 -0.9022
   40MOL    C1811796   5.336   7.560   1.077  0.4211  0.5381 -0.5488
   40MOL    C1911797   5.269   7.608   1.210  0.7385  0.3520  0.0039
   40MOL    C2011798   5.436   7.668   1.033  0.4440  0.1664 -0.1834
   40MOL    O2111799   5.443   7.705   0.915  0.3169 -0.4854  0.2285
   40MOL    O2211800   5.528   7.698   1.136 -0.2814 -0.0655  0.0162
   40MOL    C2311801   5.635   7.788   1.121 -0.1970  0.9567 -0.3174
   40MOL    H2411802   5.463   7.441   1.195  0.3283 -1.1845 -1.2404
   40MOL    H2511803   5.324   7.357   1.135  0.4810 -0.7544 -0.1777
   40MOL    H2611804   5.202   7.537   1.258  0.4872  0.1402 -0.6484
   40MOL    H2711805   5.340   7.639   1.286  0.6382  4.8547 -1.5538
   40MOL    H2811806   5.226   7.706   1.191 -0.8290 -0.6425 -1.8183
   40MOL    H2911807   5.639   7.817   1.015 -1.9400  1.2302 -0.3216
   40MOL    H3011808   5.727   7.735   1.147 -0.1675  0.8510 -0.6280
   40MOL    H3111809   5.625   0.002   1.178 -0.4424  1.7707 -1.6338
   40MOL    C3211810   5.219   7.534   0.972  0.2731 -0.4649  0.0665
   40MOL    C3311811   5.090   7.617   0.958 -0.9779  0.8404  0.2820
   40MOL    C3411812   5.001   7.606   1.085  0.2742  0.1470  0.7903
   40MOL    C3511813   5.125   7.759   0.928 -0.8234  0.0676 -0.3211
   40MOL    O3611814   5.079   7.850   0.997 -0.2525 -0.2805  0.5880
   40MOL    O3711815   5.201   7.778   0.812 -0.2082 -0.0496 -0.1105
   40MOL    C3811816   5.259   0.034   0.789 -0.1243  0.5192  0.3712
   40MOL    H3911817   5.174   7.436   0.990 -1.1191  0.1751  0.0717
   40MOL    H4011818   5.257   7.544   0.870 -0.1215 -2.3419 -0.2965
   40MOL    H4111819   4.896   7.632   1.073 -0.0424 -1.0868  0.7453
   40MOL    H4211820   4.988   7.503   1.118  0.0139 -0.1043 -0.0791
   40MOL    H4311821   5.028   7.668   1.170  0.8396  0.3089  0.4970
   40MOL    H4411822   5.304   0.072   0.880 -1.8652  0.7008  1.1804
   40MOL    H4511823   5.180   0.104   0.761 -2.2873 -2.3824 -0.9360
   40MOL    H4611824   5.333   0.016   0.711 -0.6708  1.1928 -0.3111
   40MOL    C4711825   5.015   7.554   0.836 -0.0003  0.1285  0.2034
   40MOL    C4811826   4.871   7.590   0.773  0.3318  0.4354  0.0766
   40MOL    C4911827   4.845   7.743   0.789  0.5524  0.2144 -0.5398
   40MOL    C5011828   4.879   7.555   0.624 -0.3574 -0.1598 -0.0848
   40MOL    O5111829   4.863   7.643   0.536  0.3596 -0.6970 -0.6839
   40MOL    O5211830   4.886   7.426   0.612  0.2798  0.0354 -0.2943
   40MOL    C5311831   4.878   7.373   0.480  0.1721 -0.0584 -0.0470
   40MOL    H5411832   5.006   7.448   0.861  1.8919 -0.1236 -0.1422
   40MOL    H5511833   5.083   7.548   0.751  0.1927 -1.7207  0.4639
   40MOL    H5611834   4.846   7.781   0.891 -2.3878 -0.6490 -0.1667
   40MOL    H5711835   4.928   7.798   0.745  2.0060 -0.5339  1.1906
   40MOL    H5811836   4.751   7.771   0.742 -0.5365 -1.3807  0.6034
   40MOL    H5911837   4.833   7.443   0.409  2.0340 -0.0192 -1.2183
   40MOL    H6011838   4.816   7.283   0.472 -2.6452  2.0122 -2.8186
   40MOL    H6111839   4.976   7.356   0.436 -1.0551 -1.1511 -2.4674
   40MOL    C6211840   4.763   7.505   0.861 -0.2588 -0.0258  0.1747
   40MOL    C6311841   4.607   7.545   0.860 -0.1913 -0.2956  0.5230
   40MOL    C6411842   4.580   7.676   0.942  0.2060  0.1623 -0.0121
   40MOL    C6511843   4.557   7.570   0.714 -0.6169 -0.1812  0.1147
   40MOL    O6611844   4.496   7.667   0.676  0.1641  0.1751 -0.2992
   40MOL    O6711845   4.590   7.472   0.627  0.7689 -0.7992  0.5883
   40MOL    C6811846   4.557   7.490   0.487  0.2995  0.0423 -0.7013
   40MOL    H6911847   4.792   7.503   0.966  1.4842 -1.4798 -0.3247
   40MOL    H7011848   4.782   7.400   0.840 -0.7622 -0.3284  1.1813
   40MOL    H7111849   4.479   7.692   0.979 -0.2597 -0.6406 -0.8980
   40MOL    H7211850   4.638   7.682   1.034 -2.6007 -0.6791  1.8705
   40MOL    H7311851   4.595   7.759   0.873  0.7422 -0.0896 -0.2012
   40MOL    H7411852   4.614   7.575   0.449  1.6048 -0.2867  0.4348
   40MOL    H7511853   4.450   7.507   0.481  0.3718  1.2552  0.9905
   40MOL    H7611854   4.588   7.396   0.441  0.4047 -1.0245  1.4453
   40MOL    C7711855   4.513   7.429   0.914 -0.7149 -0.0547 -0.4634
   40MOL    C7811856   4.503   7.403   1.069 -0.3601  0.2478 -0.3519
   40MOL    C7911857   4.631   7.427   1.151  0.6109  0.1287  0.0097
   40MOL    C8011858   4.382   7.475   1.131 -0.0963 -0.1109  0.5240
   40MOL    O8111859   4.295   7.537   1.065 -0.5793  0.1794  0.2071
   40MOL    O8211860   4.385   7.475   1.267 -0.4684 -0.3909  0.2198
   40MOL    C8311861   4.283   7.539   1.343  0.5938  0.3695 -0.1793
   40MOL    H8411862   4.550   7.342   0.859  1.0848  1.2105 -1.3149
   40MOL    H8511863   4.419   7.440   0.860 -1.0469  3.3205  0.6743
   40MOL    H8611864   4.645   7.533   1.169  0.6287 -0.0307  0.9366
   40MOL    H8711865   4.614   7.394   1.253 -0.9935 -0.6628 -0.4910
   40MOL    H8811866   4.712   7.370   1.105  0.4423  1.3285 -1.8087
   40MOL    H8911867   4.276   7.495   1.442 -0.0653 -2.4434 -1.4174
   40MOL    H9011868   4.184   7.535   1.297  2.0097 -2.6264 -3.1826
   40MOL    H9111869   4.313   7.642   1.363 -0.0473  0.2762  1.3326
   40MOL    C9211870   4.482   7.249   1.096 -0.2831  0.4656 -0.1429
   40MOL    C9311871   4.343   7.175   1.076 -0.3893  0.8248 -0.4342
   40MOL    C9411872   4.244   7.185   1.191 -0.8645  0.2404  0.2693
   40MOL    C9511873   4.273   7.219   0.943 -0.7066  0.0963 -0.4207
   40MOL    O9611874   4.158   7.275   0.939  0.6003 -0.4778 -0.3809
   40MOL    O9711875   4.343   7.187   0.833  0.4670  1.2791  0.5797
   40MOL    C9811876   4.311   7.222   0.700 -0.0067 -0.5665 -0.1425
   40MOL    H9911877   4.502   7.241   1.203 -2.4368 -1.7313  0.1210
   40MOL   H10011878   4.559   7.196   1.041 -1.7348 -1.3873 -0.4350
   40MOL   H10111879   4.283   7.169   1.292  1.7166  0.7694 -0.6049
   40MOL   H10211880   4.199   7.284   1.195 -0.0627  0.6078  0.4590
   40MOL   H10311881   4.170   7.106   1.190 -0.3986 -0.1828 -1.0458
   40MOL   H10411882   4.393   7.204   0.630  2.2075  1.8308  1.7062
   40MOL   H10511883   4.299   7.330   0.693  0.1065 -0.6075 -1.0368
   40MOL   H10611884   4.221   7.180   0.655 -0.6177  0.7343 -0.1558
   40MOL   C10711885   4.374   7.020   1.052 -0.0024 -0.5038 -0.5016
   40MOL   C10811886   4.410   6.919   1.166 -0.3082 -0.3811  0.3495
   40MOL   C10911887   4.517   6.978   1.262 -0.0247  0.4091 -0.1771
   40MOL   C11011888   4.286   6.881   1.247 -0.6408 -0.1693 -0.7390
   40MOL   O11111889   4.280   6.913   1.364 -0.1107 -0.2522  0.4507
   40MOL   O11211890   4.191   6.823   1.182 -0.0718 -0.5099 -0.6574
   40MOL   C11311891   4.081   6.770   1.253 -0.0533 -0.2204 -0.1406
   40MOL   H11411892   4.451   7.019   0.974 -1.5669 -0.6065 -2.0721
   40MOL   H11511893   4.294   6.973   0.995  1.5619 -0.4974 -2.8024
   40MOL   H11611894   4.474   7.055   1.327  3.5423  0.3024  2.4597
   40MOL   H11711895   4.558   6.913   1.339  0.1531  1.1492  0.3522
   40MOL   H11811896   4.604   7.026   1.216  1.3174 -2.0374 -0.2927
   40MOL   H11911897   4.024   6.853   1.294  0.2246  1.1135 -2.3286
   40MOL   H12011898   4.109   6.707   1.337 -2.7055 -1.5705 -0.2015
   40MOL   H12111899   4.023   6.705   1.187  1.4491 -2.7697  0.9719
   40MOL   C12211900   4.477   6.796   1.092 -0.4677 -0.1812  0.2575
   40MOL   C12311901   4.503   6.651   1.152 -0.4364 -0.4096 -0.6499
   40MOL   C12411902   4.560   6.656   1.299 -0.6714 -0.4578  0.2268
   40MOL   C12511903   4.369   6.570   1.158  0.9153  0.0695 -0.6869
   40MOL   O12611904   4.315   6.542   1.265 -0.5185 -0.1922  0.0694
   40MOL   O12711905   4.320   6.532   1.040 -0.1019  0.1664 -0.1005
   40MOL   C12811906   4.197   6.470   1.022 -0.4015  0.4819  0.0013
   40MOL   H12911907   4.569   6.835   1.048 -0.3932  0.9777  1.4067
   40MOL   H13011908   4.422   6.778   0.999  1.7860 -0.1896 -1.1273
   40MOL   H13111909   4.489   6.712   1.360 -0.1859  1.7677 -1.2126
   40MOL   H13211910   4.572   6.557   1.343  1.9476 -0.4366 -0.3777
   40MOL   H13311911   4.662   6.695   1.301 -0.2625 -1.5180  0.1652
   40MOL   H13411912   4.198   6.433   0.919 -0.0500 -2.7774  1.1126
   40MOL   H13511913   4.123   6.549   1.034 -2.5720 -1.9092  3.2569
   40MOL   H13611914   4.173   6.388   1.090 -0.2506  0.6997  0.3147
   40MOL   C13711915   4.611   6.584   1.057 -0.0118  0.6461 -0.4092
   40MOL   C13811916   4.689   6.445   1.085 -0.0399  0.6542  1.0710
   40MOL   C13911917   4.726   6.399   0.946  0.3863  0.6237  0.1136
   40MOL   C14011918   4.818   6.472   1.167  0.4141  0.2195  0.7433
   40MOL   O14111919   4.811   6.485   1.290 -0.1128  0.3840 -0.2935
   40MOL   O14211920   4.929   6.474   1.094 -0.8550 -0.1555 -0.4085
   40MOL   C14311921   5.054   6.470   1.162 -0.1478  0.2107 -0.5489
   40MOL   H14411922   4.693   6.651   1.027  1.8822 -1.3678  0.1298
   40MOL   H14511923   4.560   6.582   0.961 -0.7710 -0.1842  0.0075
   40MOL   H14611924   4.781   6.306   0.950  1.2165  1.1175  0.2577
   40MOL   H14711925   4.642   6.387   0.877  1.0186 -0.4918 -0.4682
   40MOL   H14811926   4.791   6.470   0.895  1.6066  0.0493  0.8583
   40MOL   H14911927   5.120   6.534   1.105 -0.0592 -0.2107 -0.9244
   40MOL   H15011928   5.100   6.371   1.170 -0.8411  0.0323  1.7754
   40MOL   H15111929   5.055   6.526   1.255  1.0318 -1.0170  0.2016
   40MOL   C15211930   4.592   6.337   1.139 -0.0950 -0.3793 -0.6186
   40MOL   C15311931   4.628   6.204   1.211 -0.0367  0.4501  0.1009
   40MOL   C15411932   4.725   6.122   1.123  0.2112  0.3018 -0.4744
   40MOL   C15511933   4.683   6.223   1.355  0.6325 -0.4806 -0.0214
   40MOL   O15611934   4.781   6.165   1.393 -0.4896  0.3790  0.2756
   40MOL   O15711935   4.602   6.297   1.434 -0.2743 -0.5017  1.0015
   40MOL   C15811936   4.663   6.362   1.543 -0.1890 -0.5914  0.0225
   40MOL   H15911937   4.529   6.309   1.055  0.5560  0.7326 -1.4849
   40MOL   H16011938   4.530   6.391   1.211 -0.1210 -0.1117 -0.8411
   40MOL   H16111939   4.686   6.114   1.021  1.0502 -0.6920 -0.7174
   40MOL   H16211940   4.816   6.181   1.113 -0.3995  1.0767 -1.5991
   40MOL   H16311941   4.737   6.017   1.147  2.5622  0.3343 -1.4340
   40MOL   H16411942   4.721   6.449   1.513 -0.0187 -1.0870 -1.1062
   40MOL   H16511943   4.729   6.294   1.597 -1.2745  0.1890  2.4040
   40MOL   H16611944   4.587   6.401   1.611 -0.7672 -0.0096 -0.9365
   40MOL   C16711945   4.484   6.135   1.232 -0.4755 -0.0740 -0.0474
   40MOL   C16811946   4.455   5.982   1.278 -0.4555 -0.1021 -0.3248
   40MOL   C16911947   4.540   5.947   1.403 -0.0349 -0.1040 -0.2342
   40MOL   C17011948   4.304   5.985   1.320  0.7253 -0.2247  0.0317
   40MOL   O17111949   4.268   5.980   1.438  0.2391  0.4031 -0.6156
   40MOL   O17211950   4.217   5.995   1.218  0.1895 -0.1952 -0.1759
   40MOL   C17311951   4.080   5.990   1.249 -0.9063  0.2150  0.0315
   40MOL   H17411952   4.423   6.131   1.142 -0.2968 -0.8880 -0.1365
   40MOL   H17511953   4.431   6.203   1.298 -0.8769 -1.1198  0.7270
   40MOL   H17611954   4.647   5.951   1.380 -0.4227 -1.2897 -2.3066
   40MOL   H17711955   4.516   6.022   1.479  0.9318 -1.3578  1.3411
   40MOL   H17811956   4.522   5.847   1.441  0.4567 -0.4610 -0.9372
   40MOL   H17911957   4.020   5.986   1.158 -2.5565 -3.2595  1.2047
   40MOL   H18011958   4.039   6.069   1.312 -1.4778 -1.0089  1.1996
   40MOL   H18111959   4.056   5.896   1.299 -0.3840 -0.1956 -0.4772
   40MOL   C18211960   4.486   5.888   1.164  0.4881  0.4904 -0.0602
   40MOL   C18311961   4.509   5.734   1.162 -0.4256  0.4930  0.3069
   40MOL   C18411962   4.655   5.712   1.227 -0.4274  0.0217 -0.3645
   40MOL   C18511963   4.396   5.655   1.240 -0.7485  0.1685  0.1756
   40MOL   O18611964   4.281   5.694   1.255 -0.2242  0.3772 -0.0124
   40MOL   O18711965   4.446   5.532   1.270  0.3498  0.1590 -0.2747
   40MOL   C18811966   4.370   5.455   1.358  0.1913  0.2918 -0.0063
   40MOL   H18911967   4.565   5.929   1.101  1.6830 -2.1889 -0.3796
   40MOL   H19011968   4.399   5.894   1.098 -0.3764 -0.0484  1.0327
   40MOL   H19111969   4.656   5.708   1.336 -0.6818  0.8045 -0.3269
   40MOL   H19211970   4.697   5.622   1.183  0.8808  0.9194 -0.9888
   40MOL   H19311971   4.719   5.795   1.196 -0.4833 -0.1790 -1.0284
   40MOL   H19411972   4.411   5.456   1.459  0.8085 -2.7965 -0.1535
   40MOL   H19511973   4.358   5.351   1.328  0.3686  0.2261  0.1531
   40MOL   H19611974   4.266   5.482   1.374 -0.1807 -1.5724  0.8211
   40MOL   C19711975   4.525   5.668   1.012  0.0192  0.1980  0.0942
   40MOL   C19811976   4.428   5.703   0.889 -0.1920  0.6579 -0.5539
   40MOL   C19911977   4.279   5.688   0.931 -0.3139 -0.5105  0.1957
   40MOL   C20011978   4.456   5.855   0.833  0.1576  0.2742 -0.0957
   40MOL   O20111979   4.553   5.931   0.856  0.2937  0.2857 -0.1828
   40MOL   O20211980   4.359   5.896   0.744  0.3574  0.5021  0.0777
   40MOL   C20311981   4.375   6.008   0.654  0.2554 -0.4094 -0.4805
   40MOL   H20411982   4.523   5.561   1.030 -0.9896  0.0673 -0.7510
   40MOL   H20511983   4.629   5.688   0.986  0.3386 -2.0590 -0.4187
   40MOL   H20611984   4.227   5.707   0.837  0.8042 -2.8882 -0.9362
   40MOL   H20711985   4.257   5.584   0.954 -1.1390 -0.4237 -0.1958
   40MOL   H20811986   4.241   5.761   1.003 -0.1637 -1.0285  0.8102
   40MOL   H20911987   4.438   5.975   0.572  0.3393 -0.0217 -0.5721
   40MOL   H21011988   4.424   6.084   0.715 -0.1782  0.3965 -1.1128
   40MOL   H21111989   4.286   6.057   0.613 -0.1556  0.4428  1.3458
   40MOL   C21211990   4.447   5.601   0.767  0.2302  0.0923  0.2169
   40MOL   C21311991   4.592   5.570   0.718  0.5189 -0.0682 -1.1225
   40MOL   C21411992   4.681   5.690   0.710  0.2790  0.2537  1.2756
   40MOL   C21511993   4.655   5.462   0.814  0.8136 -0.0655  0.7557
   40MOL   O21611994   4.597   5.353   0.834  0.8231  0.3657  0.0460
   40MOL   O21711995   4.764   5.499   0.870 -0.1908  0.4261 -0.0851
   40MOL   C21811996   4.821   5.407   0.961  0.1372 -0.3412 -0.1244
   40MOL   H21911997   4.390   5.636   0.681  1.4668  2.7627  0.4345
   40MOL   H22011998   4.387   5.513   0.791 -0.7517 -0.0080 -2.4266
   40MOL   H22111999   4.626   5.750   0.639  0.6128  1.8154  2.3207
   40MOL   H22212000   4.697   5.752   0.798 -1.8199 -1.1470  2.7023
   40MOL   H22312001   4.780   5.667   0.670  0.5300  1.4946  1.1722
   40MOL   H22412002   4.877   5.331   0.906  0.5104 -0.9185  1.0295
   40MOL   H22512003   4.748   5.372   1.033  0.5414 -0.4028  0.2604
   40MOL   H22612004   4.890   5.459   1.027 -0.7073  0.1705  0.3635
   40MOL   C22712005   4.572   5.502   0.577 -0.4780  0.7987  0.6460
   40MOL   C22812006   4.686   5.456   0.470  0.7632 -0.3115 -0.2708
   40MOL   C22912007   4.608   5.372   0.372  0.7194 -0.3108  0.4269
   40MOL   C23012008   4.744   5.573   0.391  0.8606 -0.1468  0.2063
   40MOL   O23112009   4.671   5.619   0.303 -0.3055  0.1989 -0.6761
   40MOL   O23212010   4.856   5.628   0.427  0.5455 -0.0365  0.3501
   40MOL   C23312011   4.896   5.748   0.370 -0.2859 -0.3354 -0.0044
   40MOL   H23412012   4.506   5.569   0.521  0.9333  0.9876 -0.8576
   40MOL   H23512013   4.499   5.426   0.602  0.4803 -1.0497 -1.9013
   40MOL   H23612014   4.666   5.344   0.284 -0.4068  1.2114 -0.8245
   40MOL   H23712015   4.548   5.297   0.425  1.5629 -0.4408  1.1974
   40MOL   H23812016   4.518   5.412   0.325 -0.0723  0.0851  2.2452
   40MOL   H23912017   4.817   5.817   0.342  0.9993  1.2439  0.2208
   40MOL   H24012018   4.952   5.722   0.280 -1.0723 -0.1001 -0.5683
   40MOL   H24112019   4.960   5.807   0.435 -1.2732  0.8144 -0.0523
   40MOL   C24212020   4.786   5.363   0.548  0.4542  0.2211 -0.4928
   40MOL   C24312021   4.895   5.263   0.492  0.5605 -0.2769 -1.0066
   40MOL   C24412022   4.888   5.242   0.333  0.7156  0.4314 -0.3515
   40MOL   C24512023   5.034   5.330   0.516 -0.0485  0.4131  0.4443
   40MOL   O24612024   5.112   5.300   0.610  0.2415  0.0957  0.2114
   40MOL   O24712025   5.061   5.440   0.435  0.4707  0.2020  0.0049
   40MOL   C24812026   5.188   5.503   0.439  0.0316 -0.1757  0.5883
   40MOL   H24912027   4.730   5.297   0.615 -1.3514  1.3617 -0.8415
   40MOL   H25012028   4.830   5.439   0.611 -1.6749  0.7707  0.3889
   40MOL   H25112029   4.810   5.175   0.296  0.8901 -1.3289  2.3506
   40MOL   H25212030   4.894   5.338   0.282  2.2564  0.5510  0.0483
   40MOL   H25312031   4.977   5.191   0.295  0.0207 -1.2804  0.2579
   40MOL   H25412032   5.188   5.600   0.389  1.2341  0.4712  1.8113
   40MOL   H25512033   5.255   5.431   0.393 -0.4202  1.0652 -2.0878
   40MOL   H25612034   5.221   5.516   0.542  0.4053 -1.3711  0.6244
   40MOL   C25712035   4.907   5.124   0.564  0.0675  0.1586  0.5026
   40MOL   C25812036   4.805   5.000   0.560 -0.0373  0.2384  0.2795
   40MOL   C25912037   4.664   5.041   0.618 -0.5906 -0.4030  0.0314
   40MOL   C26012038   4.780   4.951   0.416 -0.3413  0.1135  0.3150
   40MOL   O26112039   4.670   4.936   0.369  0.7717  0.4558 -0.2467
   40MOL   O26212040   4.894   4.924   0.348  0.7137 -0.2966  0.0483
   40MOL   C26312041   4.878   4.867   0.219  0.4975  0.2297  0.0842
   40MOL   H26412042   4.921   5.144   0.671  0.3950  0.9284  0.3172
   40MOL   H26512043   5.001   5.081   0.531 -1.5606 -1.0636 -2.7704
   40MOL   H26612044   4.605   4.959   0.660  1.3399 -1.9943 -0.2898
   40MOL   H26712045   4.669   5.110   0.702 -2.2070 -0.8286  0.4901
   40MOL   H26812046   4.602   5.096   0.547  0.4306  0.4789 -0.1818
   40MOL   H26912047   4.796   4.908   0.162  0.4549 -0.7762 -0.5963
   40MOL   H27012048   4.848   4.766   0.247 -0.6510  0.5754  0.0885
   40MOL   H27112049   4.976   4.851   0.173  0.7293 -2.5884  1.4188
   40MOL   C27212050   4.856   4.873   0.631  0.2079 -0.2168 -0.6380
   40MOL   C27312051   4.926   4.869   0.775 -0.2745 -1.0384  0.0040
   40MOL   C27412052   5.074   4.897   0.747 -0.2529 -0.6850 -0.2475
   40MOL   C27512053   4.860   4.970   0.874  0.0385 -0.1310 -0.0654
   40MOL   O27612054   4.919   5.072   0.919  0.3954  0.3831 -0.2592
   40MOL   O27712055   4.731   4.941   0.897 -0.1769 -0.0234 -0.2010
   40MOL   C27812056   4.652   5.045   0.959  0.5703 -0.0929  0.4179
   40MOL   H27912057   4.906   4.797   0.570 -0.6714 -1.0566 -0.3224
   40MOL   H28012058   4.764   4.815   0.638 -0.1769  0.4850  0.1569
   40MOL   H28112059   5.141   4.881   0.832 -0.2285 -1.9173 -0.4982
   40MOL   H28212060   5.106   4.825   0.672  2.8814  3.0153 -2.7071
   40MOL   H28312061   5.097   4.996   0.707  0.1325 -0.0939  1.4046
   40MOL   H28412062   4.701   5.103   1.037 -0.1705 -0.1989  0.9804
   40MOL   H28512063   4.557   5.013   1.004  0.7365 -2.2167 -0.6733
   40MOL   H28612064   4.632   5.126   0.890  0.7940 -0.7722 -0.4466
   40MOL   C28712065   4.915   4.725   0.849  0.6060 -0.6818  0.3414
   40MOL   C28812066   4.984   4.719   0.985 -0.1867  0.7161  0.1486
   40MOL   C28912067   4.899   4.654   1.096  0.2484  0.1613 -0.6013
   40MOL   C29012068   5.122   4.646   0.974 -1.2965 -0.5322  0.1449
   40MOL   O29112069   5.157   4.571   0.879 -0.0109 -0.1456 -0.1084
   40MOL   O29212070   5.196   4.682   1.079  0.1014 -0.5635 -0.1801
   40MOL   C29312071   5.297   4.605   1.134  0.9192  0.6955  0.9166
   40MOL   H29412072   4.959   4.647   0.787  0.1307 -1.7392  1.3256
   40MOL   H29512073   4.807   4.713   0.857  0.6179 -1.1638 -0.1678
   40MOL   H29612074   4.938   4.652   1.198  0.4543  2.1920 -0.6324
   40MOL   H29712075   4.810   4.710   1.125 -0.3401 -0.4806 -1.1655
   40MOL   H29812076   4.878   4.550   1.071  1.4336  0.3349 -2.4621
   40MOL   H29912077   5.369   4.676   1.174 -0.3209  2.5924 -0.1252
   40MOL   H30012078   5.349   4.535   1.068  0.2540  1.0949 -0.0385
   40MOL   H30112079   5.257   4.545   1.216  0.4374 -1.0464 -0.5358
   40MOL   H30212080   5.007   4.815   1.030 -1.7719  1.6750 -1.0480
   41MOL     C112081   1.182   2.178   5.697  0.7890  0.1543 -0.1678
   41MOL     C212082   1.272   2.187   5.570  0.1158  0.0425 -0.3801
   41MOL     C312083   1.178   2.205   5.446  0.0984  0.3927  0.2024
   41MOL     C412084   1.370   2.310   5.588 -0.1863 -0.0405 -0.2049
   41MOL     O512085   1.372   2.376   5.695 -0.3406 -0.4717 -0.2621
   41MOL     O612086   1.453   2.336   5.486  1.1306  0.3412 -0.4449
   41MOL     C712087   1.541   2.445   5.498  0.4319 -0.0385 -0.0456
   41MOL     H812088   1.243   2.179   5.787 -0.5433  1.1844  0.7505
   41MOL     H912089   1.133   2.273   5.716  0.2362 -0.4108  1.3117
   41MOL    H1012090   1.113   2.120   5.426  0.9637  0.0481 -1.1934
   41MOL    H1112091   1.112   2.288   5.470 -0.1167  0.0855  0.6945
   41MOL    H1212092   1.231   2.225   5.353 -0.1403  1.2023  0.2347
   41MOL    H1312093   1.626   2.414   5.559  0.8225 -2.3108 -1.6456
   41MOL    H1412094   1.496   2.541   5.519  1.9012  0.8691 -0.9564
   41MOL    H1512095   1.590   2.451   5.401  0.1649 -0.9694 -0.2428
   41MOL    H1612096   1.102   2.105   5.700 -0.3007  1.3001 -0.8890
   41MOL    C1712097   1.353   2.056   5.546  0.5060 -0.5759 -0.5914
   41MOL    C1812098   1.435   1.969   5.646 -0.3764 -0.1967 -0.1218
   41MOL    C1912099   1.511   2.062   5.742 -0.3839  0.5699  0.6458
   41MOL    C2012100   1.337   1.878   5.729 -0.7675 -0.2428  0.3588
   41MOL    O2112101   1.344   1.857   5.850  0.4091 -0.0487  1.1031
   41MOL    O2212102   1.236   1.821   5.653 -0.3132 -0.0577 -0.3986
   41MOL    C2312103   1.156   1.726   5.711  0.4916 -0.1439  0.7573
   41MOL    H2412104   1.418   2.076   5.461 -1.2086  0.4780 -1.6930
   41MOL    H2512105   1.274   1.997   5.499 -1.5331  2.2434 -0.9011
   41MOL    H2612106   1.442   2.108   5.813 -1.3365 -0.1607  0.2138
   41MOL    H2712107   1.581   2.007   5.805 -1.2729 -1.7336 -0.3009
   41MOL    H2812108   1.572   2.128   5.680  0.9898 -0.8093  0.5017
   41MOL    H2912109   1.119   1.755   5.810  1.6185 -3.4785  2.2176
   41MOL    H3012110   1.194   1.626   5.731  1.3373  0.1978  0.8688
   41MOL    H3112111   1.075   1.706   5.640  1.0390 -1.2916  0.4419
   41MOL    C3212112   1.534   1.884   5.556 -0.4213 -0.1754 -0.2669
   41MOL    C3312113   1.593   1.746   5.595 -0.0474 -0.3272 -1.1602
   41MOL    C3412114   1.705   1.719   5.488  0.1920 -0.3398 -0.0975
   41MOL    C3512115   1.673   1.765   5.732  0.1835  0.6290 -0.2724
   41MOL    O3612116   1.790   1.796   5.737  0.1947 -0.6324 -0.6105
   41MOL    O3712117   1.597   1.750   5.844 -0.8397 -0.0868  0.4317
   41MOL    C3812118   1.645   1.780   5.977  0.3041 -0.2750  0.0062
   41MOL    H3912119   1.616   1.952   5.533 -1.2695  2.1499  3.1478
   41MOL    H4012120   1.488   1.862   5.460  1.8294 -1.2152 -1.1435
   41MOL    H4112121   1.770   1.806   5.477  0.2080 -0.0760  1.8354
   41MOL    H4212122   1.763   1.631   5.515  0.7694 -0.4371 -1.6088
   41MOL    H4312123   1.667   1.693   5.389 -0.1472 -0.7914  0.1495
   41MOL    H4412124   1.600   1.875   6.004  0.1307  0.3658 -2.5119
   41MOL    H4512125   1.753   1.779   5.988  0.4541  1.6792 -1.1992
   41MOL    H4612126   1.611   1.710   6.055  1.1607 -1.9533 -1.1058
   41MOL    C4712127   1.486   1.625   5.604  0.0590 -0.7021 -0.0746
   41MOL    C4812128   1.517   1.474   5.592 -0.0002 -0.1485  0.2236
   41MOL    C4912129   1.623   1.429   5.690 -0.1662 -0.7863 -0.7304
   41MOL    C5012130   1.389   1.395   5.629 -0.2571 -0.2931 -0.6274
   41MOL    O5112131   1.393   1.285   5.680 -0.2277 -0.6824  0.0971
   41MOL    O5212132   1.267   1.446   5.579  0.0047 -0.1690 -0.1896
   41MOL    C5312133   1.144   1.397   5.630 -0.1714  0.1982  0.2280
   41MOL    H5412134   1.403   1.642   5.535 -0.5757 -0.5414  0.7239
   41MOL    H5512135   1.434   1.631   5.699 -0.8216  0.7579 -0.6111
   41MOL    H5612136   1.593   1.452   5.792  1.2701 -0.7993 -0.2916
   41MOL    H5712137   1.648   1.325   5.672  0.2803 -0.8838  0.4208
   41MOL    H5812138   1.715   1.488   5.684 -1.7782  1.9407  0.4943
   41MOL    H5912139   1.132   1.415   5.737 -0.7775 -0.3574  0.2558
   41MOL    H6012140   1.141   1.291   5.605  3.9984  0.9483 -4.0037
   41MOL    H6112141   1.068   1.445   5.569 -0.1086 -0.0817 -0.0670
   41MOL    C6212142   1.568   1.445   5.443  0.4795 -0.1887 -0.8380
   41MOL    C6312143   1.516   1.326   5.344 -0.2129 -0.2762 -0.0383
   41MOL    C6412144   1.568   1.190   5.409  0.1056  0.1184  0.2703
   41MOL    C6512145   1.365   1.323   5.322 -0.5207 -0.4841 -0.0170
   41MOL    O6612146   1.293   1.231   5.357  0.2259  0.1340  0.0194
   41MOL    O6712147   1.320   1.440   5.268 -0.2956  0.4220  0.4801
   41MOL    C6812148   1.182   1.468   5.282  0.0093  0.4536  0.2591
   41MOL    H6912149   1.676   1.447   5.450  0.3391 -1.3214  2.5976
   41MOL    H7012150   1.547   1.532   5.381 -0.5481  0.3167  0.1998
   41MOL    H7112151   1.532   1.168   5.509  1.5690  1.4542  1.1186
   41MOL    H7212152   1.551   1.108   5.339  1.0948  1.4335 -1.5529
   41MOL    H7312153   1.675   1.200   5.429  0.3992 -1.8947 -0.2236
   41MOL    H7412154   1.118   1.383   5.307 -1.1677  1.5670  1.1018
   41MOL    H7512155   1.138   1.502   5.188  3.0922  1.7455 -0.7865
   41MOL    H7612156   1.169   1.546   5.357  1.1362  0.9557 -0.0561
   41MOL    C7712157   1.589   1.351   5.203  0.0394 -0.3015 -0.1244
   41MOL    C7812158   1.618   1.242   5.086 -0.3907  0.9188  0.1490
   41MOL    C7912159   1.653   1.332   4.964  0.4548  0.0149 -0.2091
   41MOL    C8012160   1.740   1.160   5.136 -0.0005 -0.1535  0.0320
   41MOL    O8112161   1.741   1.040   5.171 -0.3352 -0.5935  0.4710
   41MOL    O8212162   1.857   1.231   5.129 -0.4455 -0.5385  0.7671
   41MOL    C8312163   1.977   1.164   5.172  0.5472 -0.4959 -0.1950
   41MOL    H8412164   1.681   1.408   5.213  0.0963 -0.0827 -1.7447
   41MOL    H8512165   1.531   1.432   5.157  2.5213  1.0357 -0.9966
   41MOL    H8612166   1.696   1.288   4.875 -1.1208  2.5397 -2.2892
   41MOL    H8712167   1.568   1.391   4.928 -0.2589 -1.2143 -0.5563
   41MOL    H8812168   1.727   1.407   4.994  0.0596  0.5132 -0.4717
   41MOL    H8912169   1.962   1.136   5.277 -2.5635 -0.4015 -0.5679
   41MOL    H9012170   2.071   1.218   5.166 -0.7543  1.9262  0.7277
   41MOL    H9112171   1.994   1.074   5.113 -0.4025 -0.2600 -0.8394
   41MOL    C9212172   1.482   1.159   5.051  0.5675 -0.1364 -0.4520
   41MOL    C9312173   1.495   1.026   4.970 -0.2539  1.2344 -0.5269
   41MOL    C9412174   1.593   1.046   4.852 -0.1599  0.5101 -0.1499
   41MOL    C9512175   1.535   0.899   5.054 -0.1180 -0.8016 -0.3269
   41MOL    O9612176   1.504   0.874   5.172  0.3360  0.2571 -0.0035
   41MOL    O9712177   1.596   0.806   4.972  0.2941 -0.3906 -0.7306
   41MOL    C9812178   1.632   0.683   5.029 -0.1583 -0.5002 -0.4173
   41MOL    H9912179   1.410   1.229   5.008 -0.3937 -0.5615  0.4102
   41MOL   H10012180   1.427   1.136   5.143 -1.5774 -2.3948 -2.2160
   41MOL   H10112181   1.593   0.979   4.766  1.3262  0.5049 -0.1709
   41MOL   H10212182   1.572   1.135   4.791 -0.9174 -0.6367 -1.5933
   41MOL   H10312183   1.699   1.037   4.879 -0.1356 -0.2489 -0.4999
   41MOL   H10412184   1.704   0.692   5.110 -0.9603  1.9472  0.0787
   41MOL   H10512185   1.675   0.622   4.950 -0.1074 -1.3581  0.2693
   41MOL   H10612186   1.540   0.633   5.062 -2.7859  3.8108 -0.8330
   41MOL   C10712187   1.362   1.001   4.891  0.2908  0.1031 -0.6810
   41MOL   C10812188   1.213   0.989   4.951 -0.0920 -0.3932  0.8711
   41MOL   C10912189   1.207   0.939   5.095  0.0274  0.4415 -0.7638
   41MOL   C11012190   1.140   1.131   4.944 -0.5801 -0.0067  0.0778
   41MOL   O11112191   1.196   1.231   4.900 -0.1029 -0.7135 -0.6266
   41MOL   O11212192   1.011   1.125   5.006 -0.2188 -0.1902  0.3210
   41MOL   C11312193   0.932   1.240   5.025  0.4509 -0.0101  0.0176
   41MOL   H11412194   1.371   0.904   4.843  0.2694 -0.4913  0.4797
   41MOL   H11512195   1.363   1.085   4.822  1.3590 -0.4680 -1.3707
   41MOL   H11612196   1.105   0.930   5.133  1.1904  1.1109  2.6854
   41MOL   H11712197   1.243   0.838   5.112  2.4968  1.5764  0.9150
   41MOL   H11812198   1.252   1.019   5.154  0.5933  0.4518 -1.2098
   41MOL   H11912199   0.831   1.208   5.049  0.3155 -0.2156 -0.8211
   41MOL   H12012200   0.920   1.307   4.940  0.9674  0.0810  0.0120
   41MOL   H12112201   0.968   1.305   5.105 -2.0240  0.2661  0.9512
   41MOL   C12212202   1.131   0.885   4.862 -0.5498  0.0740  0.1827
   41MOL   C12312203   1.075   0.911   4.716 -0.0394  0.2662  1.0810
   41MOL   C12412204   0.936   0.961   4.721  1.1350 -0.7716 -0.1376
   41MOL   C12512205   1.159   1.010   4.632 -0.5534 -0.2434 -0.0142
   41MOL   O12612206   1.119   1.121   4.603 -0.2682 -0.4571 -0.0593
   41MOL   O12712207   1.280   0.967   4.599  0.0946 -0.2462  0.0107
   41MOL   C12812208   1.374   1.066   4.541  0.1350  0.6609  0.4495
   41MOL   H12912209   1.041   0.857   4.917 -1.5567  1.2916 -0.8147
   41MOL   H13012210   1.194   0.796   4.866  1.3150  1.3785  0.6557
   41MOL   H13112211   0.892   0.980   4.623 -0.3512 -2.6147  0.1570
   41MOL   H13212212   0.869   0.888   4.767  3.2380 -1.1210  2.5284
   41MOL   H13312213   0.927   1.047   4.787 -2.2317 -2.0931  1.2518
   41MOL   H13412214   1.474   1.029   4.563 -0.3219 -0.0896  1.3022
   41MOL   H13512215   1.374   1.167   4.581  3.8153  0.6840  0.5503
   41MOL   H13612216   1.390   1.061   4.433  1.4975 -1.0680  0.6997
   41MOL   C13712217   1.082   0.768   4.640  0.3529 -0.6213 -0.1716
   41MOL   C13812218   1.003   0.742   4.504  0.0426 -0.0605  0.6669
   41MOL   C13912219   1.025   0.842   4.389 -0.0219  0.0276 -0.1866
   41MOL   C14012220   1.059   0.600   4.461  0.0119 -0.1790 -0.1759
   41MOL   O14112221   1.112   0.583   4.351  0.6916  0.2934 -0.4002
   41MOL   O14212222   1.050   0.506   4.564  0.0623 -0.0799  0.4789
   41MOL   C14312223   1.114   0.381   4.557 -0.0822  0.3117 -0.1208
   41MOL   H14412224   1.048   0.687   4.705 -0.3429 -0.7925 -0.7496
   41MOL   H14512225   1.184   0.739   4.616 -0.0419 -1.2604 -1.0771
   41MOL   H14612226   1.121   0.892   4.380  0.2793 -0.1554  1.7427
   41MOL   H14712227   1.007   0.792   4.294 -1.0725 -0.1556  0.0956
   41MOL   H14812228   0.957   0.928   4.386 -2.9726 -2.2875 -2.6843
   41MOL   H14912229   1.221   0.396   4.572  0.3914 -0.0188 -2.8186
   41MOL   H15012230   1.108   0.333   4.459 -0.5042  0.4904 -0.1803
   41MOL   H15112231   1.078   0.315   4.636 -3.5723  2.4252  0.1606
   41MOL   C15212232   0.843   0.724   4.537 -0.4580 -0.0504  1.0572
   41MOL   C15312233   0.730   0.674   4.439 -0.6306  0.2225  0.0469
   41MOL   C15412234   0.610   0.664   4.531  0.0775  0.4553 -0.5084
   41MOL   C15512235   0.699   0.780   4.326  0.4045  0.8654  0.2510
   41MOL   O15612236   0.611   0.860   4.349  0.0039 -0.3988  0.1189
   41MOL   O15712237   0.773   0.765   4.201  0.5663  0.1958 -0.6307
   41MOL   C15812238   0.773   0.860   4.098  0.2237 -0.4055 -0.6105
   41MOL   H15912239   0.800   0.822   4.558 -0.5916  0.5155 -1.6816
   41MOL   H16012240   0.835   0.663   4.626  0.3893 -1.0274  0.4733
   41MOL   H16112241   0.514   0.643   4.485 -0.9190  1.2517  1.1515
   41MOL   H16212242   0.631   0.587   4.605 -0.9170  1.5026  0.8921
   41MOL   H16312243   0.591   0.749   4.597 -1.7463  0.0811 -0.5356
   41MOL   H16412244   0.858   0.863   4.029  0.6839  2.8809  0.0386
   41MOL   H16512245   0.770   0.958   4.144 -0.4130  0.1330 -1.7690
   41MOL   H16612246   0.694   0.853   4.022 -1.2598 -2.1430  1.0349
   41MOL   C16712247   0.773   0.542   4.370 -0.7761  0.4602  0.2352
   41MOL   C16812248   0.670   0.437   4.304 -0.6562 -0.0041  0.4346
   41MOL   C16912249   0.570   0.510   4.217  0.1989  0.0067  0.7929
   41MOL   C17012250   0.764   0.352   4.208  0.1200 -0.1485 -0.0082
   41MOL   O17112251   0.743   0.333   4.083  0.0028 -0.2978 -0.4024
   41MOL   O17212252   0.872   0.293   4.266  0.3261  0.0699  0.2491
   41MOL   C17312253   0.985   0.236   4.194 -0.0713  0.0091  0.3782
   41MOL   H17412254   0.818   0.483   4.450 -0.4948 -0.3303 -0.5049
   41MOL   H17512255   0.860   0.555   4.307 -0.6328  2.6684  0.8687
   41MOL   H17612256   0.622   0.587   4.162 -2.6968  1.2839 -0.2525
   41MOL   H17712257   0.527   0.442   4.143 -0.6511  1.3248  0.0749
   41MOL   H17812258   0.481   0.547   4.268 -1.3378 -1.8961 -0.4106
   41MOL   H17912259   1.063   0.311   4.180 -0.5235  0.1749 -1.3729
   41MOL   H18012260   0.969   0.189   4.097  1.2059 -0.8557  0.5643
   41MOL   H18112261   1.028   0.157   4.256 -0.4405 -1.4190 -1.1714
   41MOL   C18212262   0.596   0.355   4.413 -0.5057 -0.3012 -0.5160
   41MOL   C18312263   0.545   0.209   4.392  0.5693 -0.2964  0.2436
   41MOL   C18412264   0.448   0.192   4.266 -0.0261  0.0373  0.4975
   41MOL   C18512265   0.662   0.108   4.394 -0.3425 -0.5553 -0.3596
   41MOL   O18612266   0.683   0.028   4.307 -0.0454  0.4773  0.5182
   41MOL   O18712267   0.726   0.122   4.503 -0.1944  0.3026 -0.1457
   41MOL   C18812268   0.851   0.044   4.518 -0.4304 -0.8904 -0.2855
   41MOL   H18912269   0.521   0.422   4.454  0.7396 -0.4072  2.0313
   41MOL   H19012270   0.654   0.349   4.505 -1.4979 -2.2629  0.0077
   41MOL   H19112271   0.358   0.253   4.273  1.2876  1.9493  1.1659
   41MOL   H19212272   0.484   0.220   4.167 -2.6825  2.1310  0.0568
   41MOL   H19312273   0.415   0.089   4.253  0.7996 -0.3853  1.6953
   41MOL   H19412274   0.835   7.825   4.471 -1.3468 -0.1346 -1.5540
   41MOL   H19512275   0.873   0.034   4.625 -1.7461 -1.0556 -0.0203
   41MOL   H19612276   0.945   0.085   4.483 -1.0775  1.8980  1.0659
   41MOL   C19712277   0.442   0.191   4.516  0.0009 -0.3229 -0.2262
   41MOL   C19812278   0.386   0.052   4.576  0.3892  0.2615 -0.0989
   41MOL   C19912279   0.251   0.095   4.637 -0.8847  0.0136  0.4143
   41MOL   C20012280   0.360   7.820   4.470 -0.1241 -0.0693 -0.7103
   41MOL   O20112281   0.253   7.809   4.407  0.4508  0.7257  0.5102
   41MOL   O20212282   0.474   7.752   4.444 -0.1812 -0.2820  0.0357
   41MOL   C20312283   0.486   7.648   4.352 -0.6307 -0.1793 -0.1493
   41MOL   H20412284   0.356   0.247   4.479  1.1145  0.3928 -1.7845
   41MOL   H20512285   0.478   0.249   4.600  0.8007  2.1559 -2.2163
   41MOL   H20612286   0.244   0.179   4.707  1.5441 -0.0749  0.8128
   41MOL   H20712287   0.183   0.107   4.553  1.0705 -1.9375 -1.5408
   41MOL   H20812288   0.203   0.004   4.672 -0.3358 -0.2565  0.4704
   41MOL   H20912289   0.579   7.593   4.363  0.1901  1.6849  3.1168
   41MOL   H21012290   0.463   7.670   4.248 -0.5531 -0.3690 -0.2056
   41MOL   H21112291   0.399   7.583   4.359 -3.0650  2.8934 -0.8474
   41MOL   C21212292   0.477   0.009   4.697 -0.0679 -0.6523 -0.3953
   41MOL   C21312293   0.448   7.800   4.820 -0.0267  0.5587  0.6555
   41MOL   C21412294   0.366   0.009   4.920  0.1043 -0.1789 -0.1965
   41MOL   C21512295   0.366   7.674   4.783  0.1051 -0.2307  0.6210
   41MOL   O21612296   0.286   7.627   4.863 -0.1888  0.3929  0.1071
   41MOL   O21712297   0.404   7.618   4.668  0.1085  0.3602 -0.0469
   41MOL   C21812298   0.339   7.503   4.623  0.3001  0.3853  0.2658
   41MOL   H21912299   0.518   0.102   4.736 -1.1379 -1.3865  2.6838
   41MOL   H22012300   0.566   7.845   4.650 -1.2019 -2.8546 -0.6684
   41MOL   H22112301   0.408   0.107   4.940 -1.2265 -0.1106  2.5525
   41MOL   H22212302   0.262   0.007   4.887  0.0639  0.6899 -0.1278
   41MOL   H22312303   0.350   7.852   5.023 -1.8113  1.4542  0.0727
   41MOL   H22412304   0.366   7.419   4.688 -0.0933 -0.9681 -1.2842
   41MOL   H22512305   0.363   7.471   4.521  1.1246 -1.8981  1.1433
   41MOL   H22612306   0.231   7.518   4.620  0.0283 -1.6313 -1.0139
   41MOL   C22712307   0.591   7.748   4.870 -0.1458  0.3575 -0.6327
   41MOL   C22812308   0.619   7.639   4.978 -0.7622  0.4665  0.1597
   41MOL   C22912309   0.531   7.653   5.098  1.8201 -0.2168 -0.2600
   41MOL   C23012310   0.596   7.489   4.929  0.1927 -0.1111 -0.2859
   41MOL   O23112311   0.605   7.464   4.811  0.2752  0.3573 -0.0459
   41MOL   O23212312   0.556   7.403   5.024 -0.7606 -0.3838  0.5711
   41MOL   C23312313   0.519   7.274   4.995 -0.4860 -0.3963 -0.8304
   41MOL   H23412314   0.638   7.836   4.912 -1.1802  0.3924  0.4724
   41MOL   H23512315   0.650   7.710   4.786 -1.4904 -0.5178 -1.1952
   41MOL   H23612316   0.431   7.624   5.068  1.3523  0.6254  0.4644
   41MOL   H23712317   0.541   7.592   5.187  0.0267  1.3613  1.0637
   41MOL   H23812318   0.525   7.759   5.123  0.4320 -0.3174 -0.1626
   41MOL   H23912319   0.457   7.266   4.906 -1.0595 -0.0835 -0.4601
   41MOL   H24012320   0.467   7.226   5.078  2.0038 -1.5641  0.1109
   41MOL   H24112321   0.603   7.207   4.975  0.4043  0.0414  1.3652
   41MOL   C24212322   0.768   7.656   5.041 -0.3370 -0.5089  0.0483
   41MOL   C24312323   0.904   7.596   4.987 -0.4205  0.1154 -0.0494
   41MOL   C24412324   0.903   7.441   5.022  0.0873  0.5034  0.2004
   41MOL   C24512325   0.905   7.628   4.837 -0.1508  0.0038 -0.4386
   41MOL   O24612326   0.903   7.743   4.798 -0.1111 -0.3615  0.3311
   41MOL   O24712327   0.894   7.526   4.759 -0.0699 -0.0639  0.6757
   41MOL   C24812328   0.871   7.536   4.621 -0.0502 -0.0865 -1.0957
   41MOL   H24912329   0.755   7.600   5.133  0.6244  0.8758  1.0553
   41MOL   H25012330   0.774   7.761   5.071 -0.6141  0.2754 -2.5133
   41MOL   H25112331   0.990   7.384   4.989 -1.7069 -0.4560 -2.9982
   41MOL   H25212332   0.884   7.425   5.128 -0.9359 -4.1312 -0.5599
   41MOL   H25312333   0.826   7.386   4.967 -0.3427 -0.3135  1.5700
   41MOL   H25412334   0.953   7.522   4.550  2.2650  0.6469  1.3394
   41MOL   H25512335   0.815   7.625   4.594 -0.8397 -0.2834 -0.1018
   41MOL   H25612336   0.793   7.465   4.595  1.3213 -0.8945 -3.1761
   41MOL   C25712337   1.016   7.667   5.070 -0.1178 -0.4033 -0.5300
   41MOL   C25812338   1.167   7.669   5.029 -0.0689  0.4033  0.3667
   41MOL   C25912339   1.216   7.534   4.978 -0.1054  0.9879  0.2735
   41MOL   C26012340   1.182   7.780   4.912 -0.4267  0.0521  0.7809
   41MOL   O26112341   1.257   7.756   4.813 -0.0082 -0.0762 -0.2191
   41MOL   O26212342   1.118   0.017   4.933  0.0169 -0.1975 -0.0121
   41MOL   C26312343   1.109   0.112   4.826 -0.0807 -0.2490  0.3741
   41MOL   H26412344   1.024   7.622   5.169  0.1914 -0.0790 -0.4043
   41MOL   H26512345   0.985   7.771   5.077  1.8209  0.2676 -1.6117
   41MOL   H26612346   1.143   7.486   4.913  0.5847 -0.0414  0.2449
   41MOL   H26712347   1.303   7.538   4.911 -0.4436  1.1847 -0.1533
   41MOL   H26812348   1.236   7.462   5.057 -0.8830 -0.1262 -0.5361
   41MOL   H26912349   1.058   0.206   4.844 -1.2578 -1.0291  1.1697
   41MOL   H27012350   1.055   0.066   4.743  2.0674  0.3654 -1.4118
   41MOL   H27112351   1.205   0.134   4.779  0.0542 -1.1734  0.1916
   41MOL   C27212352   1.256   7.713   5.152  0.3816  0.2889 -0.2917
   41MOL   C27312353   1.409   7.759   5.141  0.0541 -0.0163 -0.8114
   41MOL   C27412354   1.449   7.769   5.291  0.4902 -0.0057  0.5580
   41MOL   C27512355   1.508   7.648   5.081  0.4401 -0.3049  0.2685
   41MOL   O27612356   1.559   7.657   4.968 -0.9004 -0.1972  0.1958
   41MOL   O27712357   1.514   7.541   5.162  0.4785  0.2440  0.0245
   41MOL   C27812358   1.596   7.425   5.138 -0.4604 -0.6303 -0.2382
   41MOL   H27912359   1.250   7.648   5.239 -1.3866  2.2656  1.1328
   41MOL   H28012360   1.212   7.807   5.187  0.7567 -0.4490  2.2516
   41MOL   H28112361   1.547   7.806   5.321  0.5013  1.7908 -1.5419
   41MOL   H28212362   1.389   7.847   5.339  0.5509  1.1923 -1.2554
   41MOL   H28312363   1.437   7.677   5.348  0.5710  0.1293  0.7920
   41MOL   H28412364   1.574   7.373   5.044 -0.7631  0.1460 -0.6004
   41MOL   H28512365   1.560   7.351   5.209  1.9040 -1.6136 -0.0219
   41MOL   H28612366   1.703   7.440   5.148 -0.1602 -1.7290 -1.6586
   41MOL   C28712367   1.436   0.020   5.074  0.6303  0.9260 -0.2595
   41MOL   C28812368   1.580   0.074   5.089  0.5695 -0.2520 -0.1324
   41MOL   C28912369   1.640   0.143   4.959  1.4423  0.3885 -0.3450
   41MOL   C29012370   1.590   0.190   5.195 -0.1481 -0.2524  0.3508
   41MOL   O29112371   1.676   0.186   5.285  0.3691  0.4623 -0.1702
   41MOL   O29212372   1.509   0.293   5.175  0.3039  0.6236 -0.1505
   41MOL   C29312373   1.491   0.389   5.282 -0.4021 -0.5302  0.0588
   41MOL   H29412374   1.367   0.098   5.106 -0.8534  1.0115 -3.4938
   41MOL   H29512375   1.420   0.017   4.966 -1.3764  0.0948  0.0381
   41MOL   H29612376   1.655   0.059   4.892  0.0099  0.0222 -0.2360
   41MOL   H29712377   1.576   0.225   4.924  2.1734  1.1505  0.0937
   41MOL   H29812378   1.732   0.198   4.977  2.5491 -1.4530 -0.3853
   41MOL   H29912379   1.443   0.345   5.369 -1.8381  0.9107  0.0332
   41MOL   H30012380   1.427   0.473   5.252 -1.2492 -1.2676 -0.2032
   41MOL   H30112381   1.584   0.437   5.311 -0.1453 -2.9752  3.4492
   41MOL   H30212382   1.657   0.002   5.117 -0.2309 -2.0701 -2.3859
   42MOL     C112383   0.795   1.570   2.124 -0.4651 -0.1427  0.0467
   42MOL     C212384   0.758   1.623   2.267 -0.0578 -0.1569 -0.1193
   42MOL     C312385   0.726   1.777   2.254 -0.1489  0.2349  0.4682
   42MOL     C412386   0.640   1.545   2.320  0.1590  0.3289  0.1257
   42MOL     O512387   0.600   1.441   2.269 -0.0682  0.0215  0.0625
   42MOL     O612388   0.600   1.596   2.431 -0.3534  0.0989 -0.4908
   42MOL     C712389   0.486   1.534   2.493 -0.7668  0.5619 -0.7587
   42MOL     H812390   0.801   1.461   2.121 -0.0876 -0.2251  2.4965
   42MOL     H912391   0.731   1.606   2.043  1.0180 -0.5408 -1.3320
   42MOL    H1012392   0.698   1.829   2.346  1.6007 -1.6907  2.1384
   42MOL    H1112393   0.817   1.823   2.214  0.2758 -1.2709 -0.3233
   42MOL    H1212394   0.648   1.787   2.179  1.3281 -0.8884 -1.2759
   42MOL    H1312395   0.403   1.505   2.429 -1.4253 -3.8529  1.9097
   42MOL    H1412396   0.454   1.585   2.584 -1.3542 -0.8904 -0.1452
   42MOL    H1512397   0.518   1.433   2.519 -0.0527  1.0496  0.3072
   42MOL    H1612398   0.894   1.600   2.090 -0.8250 -1.9484 -2.7796
   42MOL    C1712399   0.884   1.617   2.366  0.3747  0.1736 -0.2143
   42MOL    C1812400   0.965   1.490   2.420  0.1005 -0.1440 -0.1311
   42MOL    C1912401   1.080   1.552   2.510  0.7850  0.4736  0.7486
   42MOL    C2012402   0.871   1.399   2.504  0.4823  0.0440  0.8906
   42MOL    O2112403   0.863   1.414   2.632  0.5889 -0.4215  0.2204
   42MOL    O2212404   0.807   1.311   2.429  0.5957  0.0412 -0.8096
   42MOL    C2312405   0.719   1.213   2.485 -0.4540 -0.2835  0.6135
   42MOL    H2412406   0.862   1.668   2.460 -0.4945 -0.4614 -0.0664
   42MOL    H2512407   0.947   1.682   2.305  0.7479 -0.0843 -0.1017
   42MOL    H2612408   1.136   1.621   2.446 -1.8532 -0.1346 -2.3474
   42MOL    H2712409   1.066   1.618   2.596 -0.0280  0.4520  0.6309
   42MOL    H2812410   1.141   1.473   2.554 -0.0392 -1.6879 -1.8692
   42MOL    H2912411   0.678   1.238   2.583  0.7834  0.3463  0.9730
   42MOL    H3012412   0.785   1.128   2.505 -0.1264  0.4377  2.6255
   42MOL    H3112413   0.651   1.179   2.407  0.0099  0.6956 -0.2209
   42MOL    C3212414   1.038   1.414   2.294  0.4793 -0.4520  0.0542
   42MOL    C3312415   1.160   1.326   2.294 -0.3232 -0.4176 -1.0580
   42MOL    C3412416   1.293   1.408   2.315 -0.3238 -0.0002  0.2134
   42MOL    C3512417   1.150   1.206   2.402  0.1641  0.7420  0.1359
   42MOL    O3612418   1.044   1.142   2.418  0.0483  0.1231 -0.1184
   42MOL    O3712419   1.268   1.171   2.462 -0.5049  0.2615  0.3448
   42MOL    C3812420   1.272   1.134   2.596 -0.1346  0.3148  0.5837
   42MOL    H3912421   1.045   1.494   2.220  1.6150 -0.4026  0.1968
   42MOL    H4012422   0.961   1.345   2.261 -0.4046  1.2266 -1.4897
   42MOL    H4112423   1.321   1.426   2.419  1.5797 -1.0259 -0.1003
   42MOL    H4212424   1.371   1.347   2.270 -0.5405  0.0298 -0.1982
   42MOL    H4312425   1.285   1.506   2.269 -1.6962  0.7461  1.9918
   42MOL    H4412426   1.252   1.027   2.604  2.5173 -0.3395 -1.0220
   42MOL    H4512427   1.214   1.210   2.647  0.5377  2.5002 -1.8336
   42MOL    H4612428   1.376   1.152   2.624  0.4423  0.3073 -1.4824
   42MOL    C4712429   1.175   1.242   2.159  0.0529  0.7550 -0.1633
   42MOL    C4812430   1.174   1.303   2.017 -0.7492 -0.7272  0.0344
   42MOL    C4912431   1.245   1.440   2.015 -0.9558 -0.1351 -0.6155
   42MOL    C5012432   1.261   1.206   1.933 -0.2779  0.3867  0.0765
   42MOL    O5112433   1.359   1.239   1.867 -0.2543 -0.2657  0.3913
   42MOL    O5212434   1.214   1.073   1.944 -0.1174 -0.5451 -0.1459
   42MOL    C5312435   1.305   0.976   1.895  0.1517 -0.6283 -0.0441
   42MOL    H5412436   1.110   1.156   2.145  1.2908 -0.2996  0.3894
   42MOL    H5512437   1.274   1.200   2.179 -0.2709 -0.3612 -0.8670
   42MOL    H5612438   1.268   1.490   1.921 -1.3539  0.4449 -0.4015
   42MOL    H5712439   1.186   1.518   2.063 -1.8650  0.8860 -3.3047
   42MOL    H5812440   1.340   1.421   2.065 -0.9868 -0.1157 -0.5498
   42MOL    H5912441   1.260   0.877   1.890 -0.8816 -0.1983  0.7536
   42MOL    H6012442   1.396   0.973   1.955 -0.1455 -0.6823  0.4025
   42MOL    H6112443   1.332   0.997   1.791  3.4344  1.1296  1.0710
   42MOL    C6212444   1.025   1.317   1.958  0.3017 -0.6582 -0.1565
   42MOL    C6312445   0.986   1.320   1.813 -0.6384 -0.3372 -0.0539
   42MOL    C6412446   1.083   1.421   1.741  0.5122 -0.9427 -0.2121
   42MOL    C6512447   0.986   1.181   1.748  0.6166 -0.4845 -0.7970
   42MOL    O6612448   1.048   1.154   1.643 -0.4050 -0.3801  0.0727
   42MOL    O6712449   0.911   1.095   1.825  0.1086 -0.3223  0.9160
   42MOL    C6812450   0.913   0.961   1.787  0.4279  0.3567 -0.0797
   42MOL    H6912451   0.981   1.404   2.008  1.7933 -2.1242  3.9743
   42MOL    H7012452   0.965   1.245   2.013  0.6718 -0.4687  0.5018
   42MOL    H7112453   1.050   1.462   1.646  0.4764  0.0567  0.2282
   42MOL    H7212454   1.102   1.511   1.799  1.8690 -2.8172  2.3784
   42MOL    H7312455   1.181   1.376   1.722  1.8760  2.0266 -0.4630
   42MOL    H7412456   1.011   0.924   1.755 -0.4075 -1.1543 -0.9204
   42MOL    H7512457   0.831   0.941   1.718 -0.4041  2.3762  0.2836
   42MOL    H7612458   0.895   0.900   1.876 -1.5607  0.4773 -0.3788
   42MOL    C7712459   0.839   1.382   1.797 -0.2280  0.1381  0.2804
   42MOL    C7812460   0.750   1.368   1.665  0.3700  0.9968  0.2006
   42MOL    C7912461   0.831   1.399   1.543  0.3373 -0.2889 -0.1509
   42MOL    C8012462   0.673   1.236   1.650  1.3428 -0.2934  0.0147
   42MOL    O8112463   0.692   1.163   1.554 -0.0756 -0.5797 -0.1192
   42MOL    O8212464   0.598   1.219   1.753  0.0133 -0.0069 -0.2136
   42MOL    C8312465   0.526   1.102   1.764 -0.3004 -0.2475 -0.5215
   42MOL    H8412466   0.851   1.486   1.828  0.3369  0.4326 -0.9052
   42MOL    H8512467   0.774   1.345   1.877 -0.5067 -0.9350 -0.4325
   42MOL    H8612468   0.919   1.335   1.542  1.3498  1.0705  0.8283
   42MOL    H8712469   0.776   1.384   1.450  1.3593  1.1433 -1.0079
   42MOL    H8812470   0.850   1.506   1.550  1.7140 -0.6174  1.7127
   42MOL    H8912471   0.475   1.104   1.860  2.5861 -1.0089  1.0947
   42MOL    H9012472   0.605   1.029   1.779  0.2799 -0.2190 -3.1491
   42MOL    H9112473   0.457   1.088   1.681  0.0928  1.1530 -1.0990
   42MOL    C9212474   0.639   1.485   1.678  0.1688  0.0243 -0.3256
   42MOL    C9312475   0.497   1.502   1.598 -0.3755 -0.0623  0.2253
   42MOL    C9412476   0.512   1.448   1.447  0.1157 -0.7973  0.2690
   42MOL    C9512477   0.371   1.436   1.657  0.2143 -0.2437 -0.9015
   42MOL    O9612478   0.285   1.382   1.587  0.3476  0.0737  0.1873
   42MOL    O9712479   0.379   1.432   1.795 -0.0980  0.3021  0.1056
   42MOL    C9812480   0.276   1.378   1.876 -0.5359 -0.3965  0.6884
   42MOL    H9912481   0.690   1.582   1.683  0.7278 -0.3173  0.6737
   42MOL   H10012482   0.604   1.465   1.779 -2.4008 -0.8190 -1.3439
   42MOL   H10112483   0.584   1.506   1.389 -1.8247  0.6769 -0.6851
   42MOL   H10212484   0.534   1.342   1.434  0.0577 -0.7604 -0.1133
   42MOL   H10312485   0.423   1.465   1.388  0.4485  0.0142 -0.0033
   42MOL   H10412486   0.181   1.432   1.873 -1.0363 -1.2455  0.9501
   42MOL   H10512487   0.307   1.384   1.980  1.1083  1.9209  0.0915
   42MOL   H10612488   0.269   1.271   1.856 -3.8505  0.1191 -1.2340
   42MOL   C10712489   0.466   1.661   1.571 -0.0658  0.0643  0.1951
   42MOL   C10812490   0.407   1.764   1.677  0.1695  0.0994  0.3646
   42MOL   C10912491   0.256   1.767   1.676 -0.0666  0.1728  0.1305
   42MOL   C11012492   0.466   1.736   1.822  0.7446 -0.0772  0.1710
   42MOL   O11112493   0.586   1.756   1.845 -0.4652 -0.1417  0.2861
   42MOL   O11212494   0.371   1.682   1.908 -0.1207 -0.7308 -0.4069
   42MOL   C11312495   0.409   1.635   2.041  0.1878  0.3008  0.6617
   42MOL   H11412496   0.402   1.675   1.484  1.7055 -0.1621 -1.1847
   42MOL   H11512497   0.557   1.700   1.526 -1.1431  0.4744 -1.6607
   42MOL   H11612498   0.214   1.817   1.763  1.6971  0.0162  1.1074
   42MOL   H11712499   0.213   1.812   1.587 -0.7394  0.4703  0.6074
   42MOL   H11812500   0.215   1.666   1.675 -0.1504  0.2084 -0.2160
   42MOL   H11912501   0.323   1.617   2.105 -2.7955  1.2596 -2.9431
   42MOL   H12012502   0.473   1.717   2.076  2.1848 -0.3558 -1.3101
   42MOL   H12112503   0.467   1.543   2.030 -1.8646 -0.8601 -0.6731
   42MOL   C12212504   0.460   1.903   1.623 -0.5112  0.0407 -0.4932
   42MOL   C12312505   0.455   2.048   1.693  0.1160  0.0347  0.2403
   42MOL   C12412506   0.321   2.105   1.662 -0.0123 -0.1886 -0.3214
   42MOL   C12512507   0.476   2.052   1.849  0.0122 -0.4834 -0.3386
   42MOL   O12612508   0.384   2.058   1.928  0.3286  0.0559 -0.1600
   42MOL   O12712509   0.602   2.041   1.883  0.1464 -0.2192 -0.4582
   42MOL   C12812510   0.644   2.042   2.020 -0.0692 -0.0436  0.1219
   42MOL   H12912511   0.420   1.924   1.524 -1.1346  2.8825  0.3015
   42MOL   H13012512   0.564   1.877   1.607 -1.0117 -2.2037 -0.2774
   42MOL   H13112513   0.227   2.059   1.692  0.0295 -1.9297 -2.6455
   42MOL   H13212514   0.308   2.207   1.697 -1.7882  0.1828 -1.9655
   42MOL   H13312515   0.304   2.099   1.554  2.4111 -1.0313 -0.6890
   42MOL   H13412516   0.583   1.971   2.075  0.6500 -0.4218  0.4244
   42MOL   H13512517   0.643   2.137   2.074 -4.1800  0.5323 -0.7605
   42MOL   H13612518   0.747   2.008   2.011  0.0499  0.2583  0.3280
   42MOL   C13712519   0.558   2.138   1.605 -0.8648 -0.5099  0.4577
   42MOL   C13812520   0.591   2.293   1.610  0.6325  0.2077 -0.4556
   42MOL   C13912521   0.715   2.314   1.513 -0.1036  0.0356 -0.2908
   42MOL   C14012522   0.472   2.379   1.555 -0.4306  0.0752  0.3470
   42MOL   O14112523   0.460   2.410   1.436  0.5229 -0.3645 -0.4562
   42MOL   O14212524   0.391   2.418   1.650  0.5038 -0.1760  0.0441
   42MOL   C14312525   0.297   2.521   1.623 -0.4787 -0.6861 -0.5099
   42MOL   H14412526   0.535   2.114   1.502  3.2356 -0.8684 -0.4638
   42MOL   H14512527   0.652   2.085   1.616 -0.0929  1.3421  3.6535
   42MOL   H14612528   0.705   2.404   1.452  2.7372  0.2255 -0.5534
   42MOL   H14712529   0.810   2.329   1.565  1.0321  0.4031 -2.4006
   42MOL   H14812530   0.740   2.235   1.442  0.2409  1.2998 -1.5969
   42MOL   H14912531   0.326   2.574   1.533 -2.5465  0.3496 -0.5927
   42MOL   H15012532   0.302   2.597   1.701  1.3233  1.4740 -2.6488
   42MOL   H15112533   0.196   2.479   1.614 -0.4740 -0.5077 -1.4665
   42MOL   C15212534   0.622   2.336   1.758 -0.6331 -0.5141  0.2087
   42MOL   C15312535   0.693   2.472   1.801 -1.0255  0.4425  0.6545
   42MOL   C15412536   0.807   2.426   1.900  0.4121 -0.8587 -0.0409
   42MOL   C15512537   0.747   2.565   1.688 -0.3323  0.1015  0.3248
   42MOL   O15612538   0.868   2.590   1.679 -0.2699  0.3189  0.6263
   42MOL   O15712539   0.656   2.617   1.604 -0.6920 -0.4156 -0.3204
   42MOL   C15812540   0.708   2.686   1.485 -0.8599 -0.2081  0.2333
   42MOL   H15912541   0.691   2.259   1.791 -1.0012  0.0563  2.4004
   42MOL   H16012542   0.527   2.317   1.808 -1.5355  0.3179 -1.1518
   42MOL   H16112543   0.767   2.373   1.987 -1.1324  1.2061  0.5474
   42MOL   H16212544   0.883   2.367   1.850 -0.8268 -0.8661 -1.9535
   42MOL   H16312545   0.868   2.511   1.931 -2.5867  1.8546 -1.3350
   42MOL   H16412546   0.626   2.752   1.456 -1.8739 -1.0709  1.0698
   42MOL   H16512547   0.737   2.616   1.406 -1.4624  1.2100 -1.2817
   42MOL   H16612548   0.781   2.757   1.522 -0.9112 -0.0410  0.0135
   42MOL   C16712549   0.588   2.547   1.894 -0.3181  0.2959  0.4397
   42MOL   C16812550   0.604   2.686   1.961  0.0559 -0.2512 -0.5115
   42MOL   C16912551   0.751   2.727   1.980 -0.0627 -0.2911  0.4606
   42MOL   C17012552   0.539   2.794   1.872  0.1163 -0.0894  0.2515
   42MOL   O17112553   0.470   2.765   1.774 -0.1997 -0.2141  0.3336
   42MOL   O17212554   0.570   2.924   1.911 -0.0023 -0.1278 -0.1927
   42MOL   C17312555   0.531   3.037   1.838 -0.3105 -0.0507 -0.2457
   42MOL   H17412556   0.579   2.477   1.976 -2.2447  2.0298  1.7669
   42MOL   H17512557   0.496   2.533   1.837 -1.1222  2.0215  1.2780
   42MOL   H17612558   0.801   2.665   2.054  1.8774 -1.7880 -2.0431
   42MOL   H17712559   0.802   2.732   1.884  0.3776  0.0941  0.7131
   42MOL   H17812560   0.756   2.822   2.034  2.3629  0.0119 -0.2374
   42MOL   H17912561   0.468   3.020   1.751 -1.1459  1.1293  0.1214
   42MOL   H18012562   0.620   3.087   1.799  0.8772 -0.5146  1.7723
   42MOL   H18112563   0.492   3.107   1.912  3.3271  0.0454  1.7497
   42MOL   C18212564   0.537   2.678   2.109  0.3134  0.0459 -0.2077
   42MOL   C18312565   0.378   2.667   2.132  0.0697 -0.8453  0.5688
   42MOL   C18412566   0.299   2.802   2.138  0.5321 -0.4087 -0.6392
   42MOL   C18512567   0.297   2.580   2.030 -0.2587 -0.1362 -0.3240
   42MOL   O18612568   0.214   2.627   1.951  1.2193  0.4153  0.2781
   42MOL   O18712569   0.324   2.451   2.032 -0.6654  0.0347  0.4088
   42MOL   C18812570   0.264   2.361   1.938 -0.1464 -0.4856 -0.2501
   42MOL   H18912571   0.564   2.771   2.160 -1.2621  0.9783 -1.0310
   42MOL   H19012572   0.587   2.596   2.161 -2.0117 -0.3693  1.4816
   42MOL   H19112573   0.192   2.785   2.146  0.7821 -0.7619  2.9550
   42MOL   H19212574   0.333   2.881   2.206 -0.6589 -0.6669  0.2770
   42MOL   H19312575   0.309   2.848   2.039 -0.2512  1.9741  0.3420
   42MOL   H19412576   0.204   2.418   1.867 -2.5390 -0.7336  1.5175
   42MOL   H19512577   0.200   2.293   1.994 -1.1211  0.3340 -0.3463
   42MOL   H19612578   0.324   2.302   1.868 -0.2343 -0.6777 -0.1639
   42MOL   C19712579   0.351   2.588   2.262  0.4415  0.4032  0.0928
   42MOL   C19812580   0.363   2.649   2.402 -0.5426  0.6400  0.2716
   42MOL   C19912581   0.497   2.718   2.419  0.3986  0.2681  0.1544
   42MOL   C20012582   0.255   2.757   2.443 -0.2332 -0.3607  0.2937
   42MOL   O20112583   0.274   2.845   2.533  0.4609  0.4890  0.1346
   42MOL   O20212584   0.139   2.752   2.381  0.2106 -0.2555  0.0804
   42MOL   C20312585   0.030   2.821   2.427 -0.2410  0.2308 -0.3058
   42MOL   H20412586   0.417   2.502   2.260  0.2681  0.1651  2.6263
   42MOL   H20512587   0.250   2.546   2.267  0.2893  0.9470  2.1901
   42MOL   H20612588   0.587   2.671   2.379 -0.7602 -1.8757 -0.0398
   42MOL   H20712589   0.496   2.813   2.366 -3.0581  0.3599  0.3034
   42MOL   H20812590   0.519   2.761   2.516  1.3643 -2.3341  1.1257
   42MOL   H20912591   0.024   2.812   2.535  0.8128  0.6909 -0.1951
   42MOL   H21012592   7.820   2.799   2.367 -0.1821  0.1149 -0.3497
   42MOL   H21112593   0.053   2.926   2.408  3.2912 -0.0423  2.0196
   42MOL   C21212594   0.360   2.534   2.511 -0.2185  0.2255 -0.7346
   42MOL   C21312595   0.263   2.413   2.515  0.2824 -0.5962 -0.2742
   42MOL   C21412596   0.113   2.454   2.511 -0.1658 -0.2249  0.2971
   42MOL   C21512597   0.300   2.304   2.402  0.9950  0.7779 -0.2449
   42MOL   O21612598   0.206   2.244   2.341 -1.2266 -0.1154 -0.4698
   42MOL   O21712599   0.425   2.273   2.399 -0.5763 -0.4077  0.6764
   42MOL   C21812600   0.490   2.208   2.289  0.7136 -0.5260 -0.0148
   42MOL   H21912601   0.353   2.591   2.604 -0.2992  1.1319 -1.2939
   42MOL   H22012602   0.460   2.494   2.526 -0.8232 -0.9093  0.3427
   42MOL   H22112603   0.044   2.374   2.537  1.5535 -2.3041 -1.2640
   42MOL   H22212604   0.087   2.540   2.572  0.2274  0.5230 -0.5767
   42MOL   H22312605   0.103   2.486   2.408  3.4170 -3.5433 -1.2220
   42MOL   H22412606   0.488   2.281   2.208  1.7807  1.1842  1.4635
   42MOL   H22512607   0.435   2.117   2.263  0.0187  0.3029 -1.5021
   42MOL   H22612608   0.593   2.176   2.306  1.4108  2.6636  2.1060
   42MOL   C22712609   0.282   2.346   2.662  0.8931 -0.1453 -0.0223
   42MOL   C22812610   0.196   2.230   2.719 -0.1376 -0.3945  1.4957
   42MOL   C22912611   0.073   2.292   2.804  0.1201 -0.3389 -0.5096
   42MOL   C23012612   0.138   2.125   2.623 -0.6431 -0.6795 -0.5506
   42MOL   O23112613   0.018   2.117   2.595 -0.1386  0.4487 -0.2072
   42MOL   O23212614   0.236   2.038   2.576 -0.2430  0.0742  0.2365
   42MOL   C23312615   0.198   1.937   2.486  0.4329 -0.2368 -0.2746
   42MOL   H23412616   0.295   2.426   2.735  0.6629 -2.4093  2.6314
   42MOL   H23512617   0.381   2.301   2.654  1.6866  1.5067  0.2746
   42MOL   H23612618   0.100   2.336   2.900  0.2625  0.7366 -1.0415
   42MOL   H23712619   0.013   2.368   2.755  1.0806 -0.2350 -1.5593
   42MOL   H23812620   0.012   2.210   2.840 -1.6764  1.5731  0.8478
   42MOL   H23912621   0.178   1.839   2.528 -0.4490  0.8643  2.0207
   42MOL   H24012622   0.274   1.931   2.408  1.7792 -0.4779  1.0302
   42MOL   H24112623   0.114   1.982   2.433 -1.7642 -2.9629  0.7652
   42MOL   C24212624   0.290   2.146   2.823  0.3212 -0.2447  0.7014
   42MOL   C24312625   0.356   2.200   2.953 -0.6182  0.0293 -0.2790
   42MOL   C24412626   0.436   2.328   2.933  0.1438  0.4614 -0.1455
   42MOL   C24512627   0.259   2.222   3.073 -0.5755  0.1499  0.1081
   42MOL   O24612628   0.148   2.172   3.076 -0.1519  0.5259 -0.6007
   42MOL   O24712629   0.309   2.299   3.170  0.2687 -0.1719 -0.4326
   42MOL   C24812630   0.224   2.350   3.277 -0.4179 -0.1555 -0.7230
   42MOL   H24912631   0.372   2.104   2.764 -0.2662 -1.0295  0.4317
   42MOL   H25012632   0.234   2.060   2.859 -0.9965  0.1237 -0.4154
   42MOL   H25112633   0.379   2.421   2.942  0.1883  0.5544 -0.7876
   42MOL   H25212634   0.515   2.343   3.007 -0.8697  0.7237  0.9037
   42MOL   H25312635   0.482   2.327   2.835 -1.0126  0.0941 -0.6905
   42MOL   H25412636   0.265   2.443   3.315 -0.2330 -0.5154 -0.0433
   42MOL   H25512637   0.206   2.266   3.345 -3.6040  0.9826 -0.0514
   42MOL   H25612638   0.128   2.357   3.226 -0.0654  0.0651 -1.3665
   42MOL   C25712639   0.474   2.100   2.985 -0.1852  0.7212 -0.1329
   42MOL   C25812640   0.458   1.942   3.016  0.4945  0.4333  1.0312
   42MOL   C25912641   0.333   1.909   3.103  0.5919  0.3748 -0.0205
   42MOL   C26012642   0.455   1.865   2.881  0.3686  0.0568 -0.3636
   42MOL   O26112643   0.371   1.778   2.851 -1.0376  1.0459 -0.5249
   42MOL   O26212644   0.553   1.898   2.801 -0.2148 -0.2877 -0.0048
   42MOL   C26312645   0.575   1.827   2.681  0.6079  0.3380  0.5920
   42MOL   H26412646   0.527   2.139   3.072 -1.9198  2.0677  0.3502
   42MOL   H26512647   0.549   2.116   2.907 -0.2606 -2.0062 -0.7977
   42MOL   H26612648   0.344   1.808   3.142  1.9195 -0.0299 -1.3968
   42MOL   H26712649   0.329   1.973   3.191  1.9904  0.2320  0.1622
   42MOL   H26812650   0.245   1.921   3.040  0.8284 -0.8846 -0.5997
   42MOL   H26912651   0.485   1.770   2.658  0.0024  0.2798  3.0041
   42MOL   H27012652   0.663   1.764   2.689  1.9949  2.2104  0.3829
   42MOL   H27112653   0.594   1.899   2.601 -0.3563  1.5846  1.4557
   42MOL   C27212654   0.596   1.898   3.092  0.4617 -0.7276  0.4806
   42MOL   C27312655   0.646   1.762   3.129 -0.1092 -0.0592 -0.3092
   42MOL   C27412656   0.787   1.776   3.197  0.4411 -0.0118 -0.0413
   42MOL   C27512657   0.549   1.697   3.232 -1.0137  0.2594 -0.2775
   42MOL   O27612658   0.514   1.580   3.219 -0.3545  0.0739 -0.5705
   42MOL   O27712659   0.514   1.774   3.335  0.7186 -0.3161 -0.3028
   42MOL   C27812660   0.431   1.712   3.430  0.1455 -0.2147 -0.1549
   42MOL   H27912661   0.591   1.961   3.181 -0.8936  0.4334 -0.3838
   42MOL   H28012662   0.675   1.953   3.040 -0.6769 -0.1745 -0.6962
   42MOL   H28112663   0.776   1.836   3.288 -1.5712 -1.1157  0.4727
   42MOL   H28212664   0.836   1.681   3.215  1.6567  0.3105 -1.5362
   42MOL   H28312665   0.857   1.824   3.128  0.1171 -1.5534 -1.4676
   42MOL   H28412666   0.344   1.658   3.391 -0.1290  0.6074 -0.7036
   42MOL   H28512667   0.389   1.784   3.500 -1.0995 -1.4753  0.4351
   42MOL   H28612668   0.486   1.645   3.496  2.6440  0.7314 -1.2236
   42MOL   C28712669   0.655   1.671   2.997  1.2800 -0.6237 -0.0522
   42MOL   C28812670   0.748   1.550   3.006 -0.0938  0.5809 -0.1914
   42MOL   C28912671   0.695   1.434   2.919  0.0426 -0.6513  0.1059
   42MOL   C29012672   0.897   1.571   2.964  0.2651  0.1506  0.1421
   42MOL   O29112673   0.940   1.669   2.900 -0.2436  0.0843 -0.2906
   42MOL   O29212674   0.976   1.464   2.985  0.0507  0.7434  0.0764
   42MOL   C29312675   1.106   1.463   2.927  0.1097  0.0758 -0.1502
   42MOL   H29412676   0.691   1.734   2.916 -2.8875  0.5262 -1.1165
   42MOL   H29512677   0.555   1.640   2.966  0.9480  1.9857 -1.6945
   42MOL   H29612678   0.766   1.351   2.913  0.9636  0.2034 -0.8623
   42MOL   H29712679   0.604   1.393   2.963 -0.4907 -0.6478 -0.9883
   42MOL   H29812680   0.677   1.465   2.816  0.2114 -3.2649 -0.7593
   42MOL   H29912681   1.148   1.363   2.941 -0.1058 -0.0278 -0.2271
   42MOL   H30012682   1.169   1.537   2.975 -1.8581  2.0670 -0.5148
   42MOL   H30112683   1.112   1.478   2.819  2.6461 -0.2356 -0.0689
   42MOL   H30212684   0.753   1.517   3.110  0.5057  0.6970 -0.1829
   43MOL     C112685   4.931   3.275   6.368  0.4367  0.1540  0.0427
   43MOL     C212686   4.823   3.374   6.395 -0.8474  0.5739  0.3801
   43MOL     C312687   4.873   3.517   6.364  0.0843 -0.6381 -0.0237
   43MOL     C412688   4.692   3.347   6.316 -0.0286  0.4667  0.2033
   43MOL     O512689   4.688   3.263   6.233 -0.0766 -0.1443 -0.3987
   43MOL     O612690   4.587   3.425   6.356  0.4287  0.2989 -0.2983
   43MOL     C712691   4.468   3.417   6.287  0.0640 -0.3713  0.0954
   43MOL     H812692   4.973   3.283   6.267  1.4449 -1.3019  0.3324
   43MOL     H912693   5.015   3.296   6.435  0.6474 -1.0169  0.1594
   43MOL    H1012694   4.792   3.587   6.379  0.1689 -0.7253  0.8985
   43MOL    H1112695   4.952   3.526   6.439 -0.8013 -2.5177  1.1922
   43MOL    H1212696   4.923   3.520   6.267  1.0414 -0.6317  0.4562
   43MOL    H1312697   4.424   3.318   6.279  2.2288 -1.5631  2.3392
   43MOL    H1412698   4.477   3.466   6.190 -3.1089  0.2963  0.0707
   43MOL    H1512699   4.395   3.479   6.340 -0.1885 -1.6422  1.2521
   43MOL    H1612700   4.899   3.174   6.393 -0.3497 -0.2502 -2.4695
   43MOL    C1712701   4.784   3.370   6.547  0.6805 -0.6424 -1.0478
   43MOL    C1812702   4.752   3.244   6.636 -0.0057 -0.5128  0.1537
   43MOL    C1912703   4.645   3.151   6.573  0.1955 -0.1597  0.3383
   43MOL    C2012704   4.883   3.165   6.653  0.0609  0.5584  0.3856
   43MOL    O2112705   4.892   3.047   6.618  0.0334 -0.2283 -0.0709
   43MOL    O2212706   4.982   3.233   6.703 -0.3214  0.1608  0.5234
   43MOL    C2312707   5.105   3.179   6.730 -0.4835 -0.4463 -0.5148
   43MOL    H2412708   4.699   3.436   6.561  2.2359  1.1812  0.0710
   43MOL    H2512709   4.863   3.418   6.605 -0.9158  0.8071 -0.0459
   43MOL    H2612710   4.677   3.112   6.477 -0.8978  1.4585 -0.6936
   43MOL    H2712711   4.619   3.064   6.633  1.3603 -0.3083  0.6448
   43MOL    H2812712   4.553   3.203   6.546  1.7829  0.8742 -3.4743
   43MOL    H2912713   5.151   3.129   6.644  1.5291  0.2977  0.1006
   43MOL    H3012714   5.092   3.108   6.812 -1.7717  0.2664 -0.0821
   43MOL    H3112715   5.167   3.262   6.763  1.5062 -1.4587 -1.6372
   43MOL    C3212716   4.691   3.294   6.773 -0.4867  0.4263  0.0102
   43MOL    C3312717   4.592   3.201   6.865  0.0169 -0.6155 -0.1627
   43MOL    C3412718   4.448   3.182   6.800  0.4757 -0.0258  0.3090
   43MOL    C3512719   4.665   3.067   6.888  0.6960  0.6914 -0.1993
   43MOL    O3612720   4.607   2.963   6.871 -0.3559  0.1898 -0.2296
   43MOL    O3712721   4.787   3.083   6.934  0.0259 -0.1007  0.2755
   43MOL    C3812722   4.851   2.969   6.985 -0.1363  0.0843 -0.1658
   43MOL    H3912723   4.631   3.384   6.758 -1.2022 -0.1677 -0.7539
   43MOL    H4012724   4.777   3.338   6.823  1.1294  0.5901 -2.7858
   43MOL    H4112725   4.433   3.094   6.738  1.8226  1.5038 -2.2583
   43MOL    H4212726   4.368   3.182   6.875  0.4967  1.1896  0.3431
   43MOL    H4312727   4.426   3.262   6.730  0.9899 -0.5912 -0.5024
   43MOL    H4412728   4.956   2.987   7.010  0.5572 -0.6238 -2.4396
   43MOL    H4512729   4.835   2.886   6.916 -3.4556 -0.1916  0.8455
   43MOL    H4612730   4.808   2.933   7.079  0.1612  0.4284  0.1017
   43MOL    C4712731   4.576   3.293   7.000  0.6265 -0.5367  0.0074
   43MOL    C4812732   4.551   3.237   7.151  0.4961 -0.6881 -0.2038
   43MOL    C4912733   4.441   3.133   7.142 -0.4398 -0.1527 -0.2469
   43MOL    C5012734   4.681   3.166   7.207 -0.1577  0.0949 -0.4809
   43MOL    O5112735   4.794   3.225   7.193  0.5392 -0.0706 -0.5254
   43MOL    O5212736   4.663   3.046   7.269  0.3799 -0.8671 -0.4706
   43MOL    C5312737   4.773   2.988   7.340 -0.6621  0.3687  0.7617
   43MOL    H5412738   4.512   3.379   6.977  1.6746  0.1495 -0.3892
   43MOL    H5512739   4.669   3.350   7.008 -0.0295  1.2734 -3.9237
   43MOL    H5612740   4.387   3.116   7.235 -1.5790  1.2949 -0.6095
   43MOL    H5712741   4.359   3.169   7.079  0.1288 -0.5918 -1.2368
   43MOL    H5812742   4.473   3.037   7.103  2.1749  0.3028  0.7050
   43MOL    H5912743   4.802   3.047   7.427  1.6845 -1.3377  1.2089
   43MOL    H6012744   4.858   2.995   7.272 -0.2788 -2.4664  0.9096
   43MOL    H6112745   4.765   2.885   7.373  0.9369  0.6189  2.0206
   43MOL    C6212746   4.499   3.357   7.230  0.0502  0.2166  0.0112
   43MOL    C6312747   4.512   3.379   7.390 -1.0857  1.1098  0.3826
   43MOL    C6412748   4.459   3.251   7.457 -0.0522  0.4263  0.3092
   43MOL    C6512749   4.670   3.409   7.416  0.1601 -0.1499  0.1362
   43MOL    O6612750   4.729   3.343   7.501 -0.1532  0.1853  0.6527
   43MOL    O6712751   4.714   3.505   7.337 -0.0163 -0.2886 -0.7511
   43MOL    C6812752   4.832   3.571   7.365  0.5148  0.1636 -0.0575
   43MOL    H6912753   4.396   3.357   7.196  0.0647 -2.2830 -0.1295
   43MOL    H7012754   4.536   3.448   7.182 -1.2774 -0.2337 -1.9113
   43MOL    H7112755   4.518   3.159   7.453  1.4590  1.3766  0.4728
   43MOL    H7212756   4.441   3.272   7.563 -2.1413  1.1198 -0.1580
   43MOL    H7312757   4.364   3.216   7.415 -0.2592 -0.2556  1.3015
   43MOL    H7412758   4.903   3.494   7.394  0.0315  0.0125  0.7189
   43MOL    H7512759   4.812   3.635   7.451  3.2463  0.1673  0.6304
   43MOL    H7612760   4.874   3.614   7.274  2.7939 -1.2186  0.3020
   43MOL    C7712761   4.429   3.509   7.421 -0.6999 -0.7629 -0.2320
   43MOL    C7812762   4.445   3.607   7.545  0.3551  0.4106 -0.8453
   43MOL    C7912763   4.459   3.518   7.676 -0.2307  0.1771 -0.5288
   43MOL    C8012764   4.560   3.707   7.522  0.4790 -0.0560 -0.4975
   43MOL    O8112765   4.648   3.716   7.606 -0.0361 -0.0213  0.1434
   43MOL    O8212766   4.556   3.773   7.407 -0.1040  0.1518  0.5551
   43MOL    C8312767   4.656   3.865   7.363  0.0961  0.6445  0.2331
   43MOL    H8412768   4.324   3.484   7.407 -0.8985  0.2774 -0.5812
   43MOL    H8512769   4.446   3.575   7.337 -0.0994 -1.8339 -0.9676
   43MOL    H8612770   4.469   3.565   7.774 -1.7990 -0.5237 -0.0107
   43MOL    H8712771   4.393   3.432   7.686 -0.2674  0.0374 -1.8904
   43MOL    H8812772   4.552   3.462   7.668  0.3547  1.0161  0.2797
   43MOL    H8912773   4.631   3.904   7.264  1.3959 -0.0647 -0.3813
   43MOL    H9012774   4.753   3.821   7.341 -0.2436 -0.2744  0.5777
   43MOL    H9112775   4.671   3.939   7.441 -0.4498  0.3638  0.6064
   43MOL    C9212776   4.301   3.677   7.540 -0.3719 -0.2703 -0.1871
   43MOL    C9312777   4.263   3.808   7.621 -0.2538  0.2918 -0.0464
   43MOL    C9412778   4.292   3.930   7.524 -0.0360 -0.1448  0.0196
   43MOL    C9512779   4.109   3.789   7.642 -0.0055 -0.3477 -0.1545
   43MOL    O9612780   4.064   3.736   7.746  0.3990 -0.0174  0.4416
   43MOL    O9712781   4.035   3.812   7.532 -0.5179  0.3000  0.2584
   43MOL    C9812782   3.904   3.763   7.525 -0.0731 -0.5133 -0.3133
   43MOL    H9912783   4.250   3.593   7.587 -2.0767  1.0849  0.4572
   43MOL   H10012784   4.277   3.696   7.436  0.8818  1.4317 -0.1875
   43MOL   H10112785   4.396   3.922   7.491 -0.2158  0.2018 -0.6471
   43MOL   H10212786   4.227   3.924   7.437  0.9561  1.5418 -0.8635
   43MOL   H10312787   4.263   4.030   7.554  0.5511  0.8607 -2.6301
   43MOL   H10412788   3.886   3.723   7.425 -0.2467 -0.2794 -0.3779
   43MOL   H10512789   3.824   3.833   7.551  3.0305  2.8031  0.7585
   43MOL   H10612790   3.901   3.688   7.604 -1.2161  0.2521  0.3902
   43MOL   C10712791   4.348   3.829   7.755 -0.0347 -0.2334  0.0014
   43MOL   C10812792   4.380   3.967   7.823 -0.3425  0.2629 -0.2421
   43MOL   C10912793   4.498   4.048   7.746 -0.1528 -0.1677  0.1796
   43MOL   C11012794   4.253   4.049   7.827 -0.0394 -0.8613  0.1163
   43MOL   O11112795   4.235   4.158   7.770  0.4194 -0.0263  0.1208
   43MOL   O11212796   4.154   3.993   0.018  0.2450  0.0257 -0.6536
   43MOL   C11312797   4.035   4.065   0.031 -0.2059  0.1149 -0.1630
   43MOL   H11412798   4.450   3.797   7.731 -0.2819 -0.6902 -0.4464
   43MOL   H11512799   4.314   3.762   7.833  0.8756  0.0572  0.6610
   43MOL   H11612800   4.528   4.143   7.791  0.2265 -0.7322  1.1251
   43MOL   H11712801   4.587   3.987   7.735 -0.8595 -1.2097  0.1088
   43MOL   H11812802   4.464   4.069   7.645  1.3569 -1.5895 -0.6384
   43MOL   H11912803   3.955   4.003   0.073 -0.9915  1.8714  0.9854
   43MOL   H12012804   4.008   4.104   7.811  1.7810 -1.0682 -1.2365
   43MOL   H12112805   4.059   4.152   0.091  2.9578  0.6302 -2.0297
   43MOL   C12212806   4.445   3.922   0.083  0.7420 -0.4125  0.0400
   43MOL   C12312807   4.503   4.018   0.196 -0.5195 -0.4357 -0.6713
   43MOL   C12412808   4.428   4.149   0.198 -0.6368  0.0142 -0.7056
   43MOL   C12512809   4.480   3.957   0.336  0.4149  0.5766  0.0325
   43MOL   O12612810   4.434   4.028   0.421 -0.6419 -0.0168  0.0592
   43MOL   O12712811   4.515   3.836   0.351  0.2311 -0.8493  0.0956
   43MOL   C12812812   4.484   3.761   0.471  0.1800 -0.4255 -0.1700
   43MOL   H12912813   4.514   3.838   0.080  1.2828  0.0498 -0.4758
   43MOL   H13012814   4.360   3.870   0.128  0.9248 -0.5512  0.2305
   43MOL   H13112815   4.441   4.193   0.099  0.2792  2.7110  0.5542
   43MOL   H13212816   4.323   4.134   0.219 -0.5857  1.2745  0.5463
   43MOL   H13312817   4.452   4.230   0.268  1.0695 -1.3353  0.3186
   43MOL   H13412818   4.552   3.787   0.552 -0.3691  0.0764  0.1293
   43MOL   H13512819   4.493   3.653   0.457 -0.1789 -0.5216  0.3483
   43MOL   H13612820   4.380   3.777   0.498 -0.0922 -2.8058  0.2703
   43MOL   C13712821   4.660   4.045   0.163 -0.0120 -0.0884 -0.1235
   43MOL   C13812822   4.768   4.092   0.269  0.2492  0.4317  0.6761
   43MOL   C13912823   4.716   4.212   0.350 -0.2708 -0.5922  0.2697
   43MOL   C14012824   4.809   3.973   0.356 -0.4008 -0.1382  0.1999
   43MOL   O14112825   4.832   3.993   0.474 -0.2478 -0.1022 -0.3899
   43MOL   O14212826   4.830   3.860   0.292 -0.2092 -0.0672 -0.0381
   43MOL   C14312827   4.892   3.750   0.362  0.0847 -1.6776  0.2978
   43MOL   H14412828   4.671   4.114   0.079  2.6308 -1.5748 -1.0426
   43MOL   H14512829   4.696   3.954   0.115 -0.2736 -0.1356 -0.2319
   43MOL   H14612830   4.630   4.186   0.412  0.4147 -0.0500  1.4763
   43MOL   H14712831   4.793   4.246   0.419  0.5415 -0.9419 -0.4570
   43MOL   H14812832   4.690   4.309   0.310  0.8503 -0.6166 -0.5520
   43MOL   H14912833   4.943   3.676   0.300  0.3768 -2.1320  1.0616
   43MOL   H15012834   4.819   3.705   0.429 -2.6634  0.4974 -1.1252
   43MOL   H15112835   4.967   3.800   0.423  1.1511 -3.9075  0.8680
   43MOL   C15212836   4.895   4.129   0.180  1.0382  0.1980  0.2768
   43MOL   C15312837   5.018   4.211   0.217  0.0708 -0.8056  0.3243
   43MOL   C15412838   5.121   4.171   0.107  1.0078 -1.1785  0.2472
   43MOL   C15512839   4.982   4.364   0.205  0.2765  0.0757  0.1312
   43MOL   O15612840   4.933   4.427   0.298  0.2720 -0.6438  0.8177
   43MOL   O15712841   5.030   4.423   0.090 -0.3578 -0.3524  0.5361
   43MOL   C15812842   5.019   4.566   0.084  0.5645 -0.0959  0.0545
   43MOL   H15912843   4.851   4.176   0.092 -0.6297 -1.1959  0.3508
   43MOL   H16012844   4.930   4.041   0.127  0.5643  0.0913  0.1418
   43MOL   H16112845   5.082   4.178   0.006  2.0312 -1.4876 -0.1737
   43MOL   H16212846   5.203   4.243   0.103  1.0355 -1.1521  1.1185
   43MOL   H16312847   5.157   4.069   0.116  0.6366 -1.1875  1.8763
   43MOL   H16412848   5.101   4.592   0.151  0.1022 -0.9335  0.9613
   43MOL   H16512849   4.919   4.603   0.106  0.4387  0.2388 -1.0683
   43MOL   H16612850   5.050   4.607   7.865  0.7407  3.0084  1.3504
   43MOL   C16712851   5.077   4.160   0.355 -0.5108  0.4894  0.1198
   43MOL   C16812852   5.225   4.206   0.398  0.1217  0.1099 -0.0649
   43MOL   C16912853   5.223   4.194   0.552 -0.1236  0.0321 -0.2121
   43MOL   C17012854   5.326   4.099   0.341 -0.0034  0.2256  0.7933
   43MOL   O17112855   5.405   4.124   0.250 -0.0150 -0.2093  0.0569
   43MOL   O17212856   5.309   3.969   0.386 -0.3861  0.4227  0.5397
   43MOL   C17312857   5.411   3.874   0.368  0.1420 -0.0746 -0.1807
   43MOL   H17412858   5.077   4.052   0.365 -0.3754  0.4381 -0.4284
   43MOL   H17512859   4.999   4.193   0.424 -0.9274  0.9137 -0.5427
   43MOL   H17612860   5.172   4.280   0.596  0.4118  0.6838 -0.8494
   43MOL   H17712861   5.155   4.115   0.584  2.0054 -2.4082 -1.5704
   43MOL   H17812862   5.321   4.174   0.596 -1.0668  0.1599  1.9750
   43MOL   H17912863   5.497   3.899   0.429  0.1902  2.7203 -1.3270
   43MOL   H18012864   5.456   3.874   0.269  1.8564  1.3275  0.5854
   43MOL   H18112865   5.374   3.773   0.387  0.2524  0.0005  0.4378
   43MOL   C18212866   5.259   4.365   0.370  0.2392 -0.5538 -0.3542
   43MOL   C18312867   5.386   4.441   0.429  0.1572  0.7487  0.0264
   43MOL   C18412868   5.367   4.455   0.588 -0.2560 -0.1195 -0.0678
   43MOL   C18512869   5.516   4.358   0.408 -0.0471  0.5663  0.0398
   43MOL   O18612870   5.565   4.298   0.505  0.6209 -0.0993  0.0526
   43MOL   O18712871   5.558   4.352   0.284 -0.4518 -0.5611  0.2393
   43MOL   C18812872   5.657   4.266   0.233 -0.2817 -0.0249  0.1208
   43MOL   H18912873   5.171   4.420   0.403  1.6414  1.5402  0.0353
   43MOL   H19012874   5.276   4.370   0.263  0.3468 -0.3281 -0.3280
   43MOL   H19112875   5.453   4.515   0.616  0.5837 -1.1087 -0.4867
   43MOL   H19212876   5.278   4.513   0.615  0.2217  0.8848 -0.6335
   43MOL   H19312877   5.367   4.370   0.656 -1.5359 -0.7558 -0.8407
   43MOL   H19412878   5.747   4.297   0.286 -0.7584  1.7067 -0.0628
   43MOL   H19512879   5.670   4.279   0.126  0.9339 -0.4259  0.2171
   43MOL   H19612880   5.647   4.161   0.262  0.4056 -0.1636 -0.1383
   43MOL   C19712881   5.371   4.583   0.355  0.5950 -0.1628  0.5661
   43MOL   C19812882   5.418   4.721   0.408  0.4732 -0.5962  0.0195
   43MOL   C19912883   5.305   4.776   0.502  0.3786 -0.1097  0.0432
   43MOL   C20012884   5.555   4.706   0.482  0.3101  0.0066 -0.8151
   43MOL   O20112885   5.571   4.764   0.587 -0.1918  0.3682  0.4106
   43MOL   O20212886   5.652   4.636   0.412  0.4716  0.0545  0.2185
   43MOL   C20312887   5.775   4.598   0.474 -0.1993  1.2635 -0.3246
   43MOL   H20412888   5.266   4.586   0.325  1.0198  0.3679 -0.9200
   43MOL   H20512889   5.431   4.572   0.264 -1.3163 -1.7000 -0.5654
   43MOL   H20612890   5.204   4.766   0.463  0.5121  0.2816 -0.4042
   43MOL   H20712891   5.294   4.714   0.591  0.6854 -0.9050 -0.4659
   43MOL   H20812892   5.322   4.878   0.537  1.4944  0.0381 -0.8685
   43MOL   H20912893   5.825   4.683   0.520  0.0165  1.5675 -1.1169
   43MOL   H21012894   5.843   4.551   0.404 -1.6393 -1.2146 -0.1344
   43MOL   H21112895   5.760   4.528   0.557 -0.3167  1.3321 -0.2874
   43MOL   C21212896   5.428   4.837   0.297 -0.4363  0.3087 -0.4763
   43MOL   C21312897   5.471   4.830   0.142 -0.0402 -0.2937 -0.9455
   43MOL   C21412898   5.613   4.762   0.133  0.0694  0.0822 -0.0662
   43MOL   C21512899   5.367   4.753   0.057 -0.6699  0.0247 -0.2323
   43MOL   O21612900   5.246   4.770   0.074 -0.0683 -0.2400  0.1485
   43MOL   O21712901   5.429   4.661   7.851  0.0478  0.3265 -0.4782
   43MOL   C21812902   5.351   4.593   7.756 -0.0250 -0.6387  0.2998
   43MOL   H21912903   5.481   4.919   0.345 -0.2525  0.9130 -1.6802
   43MOL   H22012904   5.325   4.875   0.295  0.1765  1.9995 -1.7857
   43MOL   H22112905   5.650   4.784   0.033  0.8177  2.7023  0.7242
   43MOL   H22212906   5.681   4.805   0.207  0.7093  0.0806 -0.6393
   43MOL   H22312907   5.607   4.655   0.153 -1.4358  0.2937  0.6548
   43MOL   H22412908   5.262   4.548   7.799 -1.2407  1.7188  0.3039
   43MOL   H22512909   5.407   4.522   7.695  1.8124  1.1978 -0.2220
   43MOL   H22612910   5.326   4.673   7.687  1.0343  2.7533  3.6682
   43MOL   C22712911   5.491   4.971   0.075 -0.1412 -0.2136  0.5382
   43MOL   C22812912   5.390   5.097   0.072  0.3233  0.0249 -0.4234
   43MOL   C22912913   5.256   5.061   0.007 -0.0454  0.2255 -0.1123
   43MOL   C23012914   5.359   5.141   0.217  0.2790  0.1443  0.1065
   43MOL   O23112915   5.244   5.160   0.263 -0.0168 -0.6321 -0.1627
   43MOL   O23212916   5.481   5.155   0.287 -0.4772 -0.2740 -0.6461
   43MOL   C23312917   5.478   5.193   0.423  0.0278 -0.2780  0.4373
   43MOL   H23412918   5.517   4.943   7.851  0.0349 -0.3442  0.6161
   43MOL   H23512919   5.585   5.013   0.112 -0.7949  1.9375 -0.2053
   43MOL   H23612920   5.202   5.155   0.001  0.4284  0.3530 -2.9785
   43MOL   H23712921   5.259   5.029   7.781 -0.7936  3.7792 -1.3142
   43MOL   H23812922   5.200   4.985   0.061  1.1661 -1.3853 -1.0760
   43MOL   H23912923   5.413   5.280   0.429 -2.3015 -1.7509 -2.2639
   43MOL   H24012924   5.579   5.220   0.456  0.1231  0.3481 -0.3386
   43MOL   H24112925   5.430   5.121   0.488  0.5511 -2.0267 -1.0587
   43MOL   C24212926   5.464   5.229   0.011  0.6040  0.8684  0.4537
   43MOL   C24312927   5.533   5.247   7.745 -0.2973 -0.2246 -0.2103
   43MOL   C24412928   5.673   5.177   7.754 -0.5897 -0.6460 -0.7009
   43MOL   C24512929   5.443   5.187   7.635 -0.2298 -0.3695  0.2220
   43MOL   O24612930   5.338   5.243   7.601  0.6168  0.2499  0.6837
   43MOL   O24712931   5.478   5.067   7.594  0.6833  0.0396 -0.2518
   43MOL   C24812932   5.392   4.999   7.507  0.0228  0.5915  0.0169
   43MOL   H24912933   5.539   5.258   0.084  0.2267  2.2147  0.3220
   43MOL   H25012934   5.383   5.302   0.014 -2.0067 -1.7459 -2.5190
   43MOL   H25112935   5.723   5.201   7.847 -0.3781  0.5015 -1.0967
   43MOL   H25212936   5.668   5.068   7.747  1.6893 -0.9145  1.4859
   43MOL   H25312937   5.739   5.203   7.671 -2.2231  0.8470 -1.5882
   43MOL   H25412938   5.443   4.922   7.448 -1.5689 -0.7213  0.3079
   43MOL   H25512939   5.356   5.078   7.442 -0.2252  0.7203  0.3136
   43MOL   H25612940   5.311   4.944   7.555 -0.5365 -0.3247 -1.9250
   43MOL   C25712941   5.549   5.405   7.729  0.2947 -0.1272  0.6980
   43MOL   C25812942   5.635   5.483   7.620 -0.4851 -0.2817  0.2688
   43MOL   C25912943   5.606   5.633   7.653  0.1406 -0.5362  0.3412
   43MOL   C26012944   5.787   5.454   7.642 -0.5160  0.1032  0.3272
   43MOL   O26112945   5.862   5.408   7.557  0.7193  0.4003  0.9428
   43MOL   O26212946   5.824   5.494   7.759 -0.6786  0.1091  0.3705
   43MOL   C26312947   5.958   5.475   7.798  0.7696  0.4044  0.5512
   43MOL   H26412948   5.578   5.435   7.829  0.6221 -1.5290  1.0299
   43MOL   H26512949   5.449   5.447   7.716  0.9641  0.7172 -2.1060
   43MOL   H26612950   5.666   5.703   7.595 -1.3341  0.1185 -0.4427
   43MOL   H26712951   5.507   5.669   7.624  0.2369 -1.2058 -0.8716
   43MOL   H26812952   5.621   5.644   7.760  0.6325  2.0170  0.0494
   43MOL   H26912953   5.974   5.368   7.803 -1.4537 -0.0308 -0.8016
   43MOL   H27012954   5.974   5.525   0.016 -0.5286 -2.7293  2.4820
   43MOL   H27112955   6.038   5.524   7.743  0.4808 -1.7691 -1.8745
   43MOL   C27212956   5.596   5.434   7.479  0.3755  0.4995  0.1844
   43MOL   C27312957   5.598   5.527   7.348  0.1160 -0.8727 -0.2745
   43MOL   C27412958   5.569   5.435   7.228 -0.3085 -0.5109  0.6081
   43MOL   C27512959   5.472   5.623   7.342 -0.1625  1.2395  0.3427
   43MOL   O27612960   5.481   5.746   7.348  1.4326  0.0934  0.3066
   43MOL   O27712961   5.358   5.556   7.348  0.0610 -0.3461 -0.0261
   43MOL   C27812962   5.239   5.632   7.339  0.4219 -0.4408  1.0992
   43MOL   H27912963   5.493   5.402   7.493  0.6192 -0.3000  0.2079
   43MOL   H28012964   5.643   5.336   7.465 -1.3316 -0.6179  2.0261
   43MOL   H28112965   5.473   5.386   7.239 -1.7052  2.1756  0.7175
   43MOL   H28212966   5.574   5.492   7.135 -1.8203 -0.4998  0.5293
   43MOL   H28312967   5.638   5.350   7.220 -0.5367 -0.6403 -0.0814
   43MOL   H28412968   5.158   5.559   7.330  0.5959 -0.3479 -1.7114
   43MOL   H28512969   5.243   5.707   7.260 -1.3691  0.6785  2.0520
   43MOL   H28612970   5.234   5.680   7.437 -3.3885  1.2248  0.1754
   43MOL   C28712971   5.730   5.607   7.328 -0.0372  0.9855 -0.0082
   43MOL   C28812972   5.742   5.692   7.198  0.0423  0.1211  0.2269
   43MOL   C28912973   5.807   5.826   7.234 -0.1089  0.1143 -0.3683
   43MOL   C29012974   5.820   5.624   7.082  0.1771 -0.5544  0.2911
   43MOL   O29112975   5.779   5.626   6.968  0.2156 -0.0810  0.0623
   43MOL   O29212976   5.947   5.578   7.115 -0.4668 -0.0567 -0.6544
   43MOL   C29312977   6.033   5.529   7.008  0.2132  0.0356  0.5622
   43MOL   H29412978   5.804   5.527   7.336 -0.1318  1.0752  1.9544
   43MOL   H29512979   5.745   5.673   7.414  2.1124  1.9972 -1.1179
   43MOL   H29612980   5.756   5.861   7.323  2.3036 -2.2313  2.0068
   43MOL   H29712981   5.913   5.832   7.256 -0.6646 -0.5032  2.7045
   43MOL   H29812982   5.784   5.899   7.156  1.0895  2.2226  1.2092
   43MOL   H29912983   6.124   5.479   7.042  1.1048 -0.0010 -1.7890
   43MOL   H30012984   6.061   5.601   6.932  0.5067  0.3561  0.9696
   43MOL   H30112985   5.980   5.443   6.967 -1.2407  1.1155  0.1670
   43MOL   H30212986   5.644   5.712   7.154 -0.1924 -1.1978  0.1227
   44MOL     C112987   2.656   1.144   0.198  0.3013  0.0844 -0.2538
   44MOL     C212988   2.726   1.216   0.081  0.5555 -0.6710  0.5612
   44MOL     C312989   2.807   1.337   0.132 -0.2204 -0.4224 -0.1221
   44MOL     C412990   2.836   1.120   0.026 -0.2417 -0.4885  0.0334
   44MOL     O512991   2.851   1.010   0.078 -0.3095  0.4917  0.1171
   44MOL     O612992   2.918   1.172   7.812  0.1007  0.1350  0.4032
   44MOL     C712993   3.021   1.106   7.750  0.8563  0.3667 -0.0160
   44MOL     H812994   2.619   1.043   0.180 -0.9964  0.6129 -0.6179
   44MOL     H912995   2.728   1.138   0.279  0.1672  0.8675 -0.0740
   44MOL    H1012996   2.839   1.405   0.054  1.2017  1.5682  2.1533
   44MOL    H1112997   2.737   1.400   0.188 -0.0897 -0.4002  0.0144
   44MOL    H1212998   2.892   1.320   0.198 -1.7249  0.4611  2.1386
   44MOL    H1312999   3.102   1.088   7.819  0.9735  1.4451  0.1323
   44MOL    H1413000   3.070   1.168   7.675 -2.3783  1.7451 -1.1087
   44MOL    H1513001   2.988   1.016   7.698 -3.1464  0.6645  1.7797
   44MOL    H1613002   2.570   1.204   0.228 -2.2108 -2.7712 -1.4055
   44MOL    C1713003   2.630   1.267   7.840 -0.5169 -0.0285  0.0739
   44MOL    C1813004   2.518   1.177   7.775 -0.5077  0.0367 -0.0831
   44MOL    C1913005   2.587   1.041   7.735  0.2149 -0.4046  0.4811
   44MOL    C2013006   2.401   1.141   7.874 -0.2322  0.4055  0.6331
   44MOL    O2113007   2.336   1.037   7.862 -0.3095 -0.2750  0.1592
   44MOL    O2213008   2.385   1.239   0.083  0.0660  0.1982 -0.0392
   44MOL    C2313009   2.294   1.211   0.186  0.3943 -0.1841 -0.4051
   44MOL    H2413010   2.696   1.298   7.759  2.0310  1.1891  2.5681
   44MOL    H2513011   2.588   1.363   7.872  2.3252  1.0581  0.6489
   44MOL    H2613012   2.520   0.978   7.677  0.2382 -0.8170  0.8910
   44MOL    H2713013   2.676   1.059   7.675  0.0632  1.7221  0.8536
   44MOL    H2813014   2.617   0.975   7.817  0.8006 -0.0209  0.5808
   44MOL    H2913015   2.346   1.166   0.271  0.1518  0.4759  0.0983
   44MOL    H3013016   2.202   1.159   0.157 -0.7230  2.0248 -0.9280
   44MOL    H3113017   2.250   1.299   0.232  2.1367 -0.2157  1.3779
   44MOL    C3213018   2.460   1.229   7.633  0.4000  0.2039  0.0264
   44MOL    C3313019   2.391   1.371   7.615  0.6113 -0.0408 -0.6667
   44MOL    C3413020   2.267   1.386   7.707 -0.4502  0.9414  0.6712
   44MOL    C3513021   2.492   1.481   7.639  0.9411 -0.3250  0.2254
   44MOL    O3613022   2.474   1.584   7.708 -0.1459 -0.3341  0.5204
   44MOL    O3713023   2.597   1.460   7.568  0.3008 -0.0367  0.2524
   44MOL    C3813024   2.701   1.549   7.600  0.3693 -0.2493 -0.0856
   44MOL    H3913025   2.390   1.149   7.612  1.5444 -0.6161 -0.7294
   44MOL    H4013026   2.543   1.223   7.563  1.4850  0.8226  1.2273
   44MOL    H4113027   2.298   1.414   7.807 -1.4721  0.1335  1.2195
   44MOL    H4213028   2.193   1.463   7.685 -0.2056  1.4010  1.4371
   44MOL    H4313029   2.221   1.287   7.706  2.5203 -0.5021 -1.5315
   44MOL    H4413030   2.791   1.534   7.541  0.3664 -0.9239  0.0780
   44MOL    H4513031   2.724   1.561   7.706 -1.7208  1.8743  0.1720
   44MOL    H4613032   2.670   1.645   7.560 -1.0056 -1.6412 -2.4746
   44MOL    C4713033   2.338   1.375   7.464  0.2473  0.1230  0.4076
   44MOL    C4813034   2.327   1.501   7.364 -0.7263 -0.0962  0.6578
   44MOL    C4913035   2.229   1.594   7.437 -0.3745 -0.1650  0.4811
   44MOL    C5013036   2.458   1.565   7.326 -0.3934  0.0174 -0.6351
   44MOL    O5113037   2.494   1.682   7.345 -0.0372 -0.1348  0.0790
   44MOL    O5213038   2.538   1.478   7.276  0.2649  0.1783  0.5160
   44MOL    C5313039   2.653   1.529   7.215  0.1825  0.5495  0.0308
   44MOL    H5413040   2.234   1.346   7.474  0.1657  0.3731  0.3041
   44MOL    H5513041   2.401   1.302   7.413  1.1664  0.5209  0.9463
   44MOL    H5613042   2.129   1.551   7.428 -0.2616 -1.0053  2.8666
   44MOL    H5713043   2.242   1.597   7.545  0.7819 -3.4113  0.4934
   44MOL    H5813044   2.221   1.694   7.394  0.3143 -0.8272 -1.2284
   44MOL    H5913045   2.724   1.457   7.173 -1.3619 -1.5332  0.9323
   44MOL    H6013046   2.728   1.578   7.278  0.3138  1.0420 -0.5038
   44MOL    H6113047   2.624   1.606   7.143 -2.6141  1.7032  2.2669
   44MOL    C6213048   2.261   1.440   7.237  0.1246 -0.4107  0.1730
   44MOL    C6313049   2.229   1.519   7.106 -0.5467  0.2947 -0.4992
   44MOL    C6413050   2.211   1.673   7.136  1.1103  0.3125 -0.0477
   44MOL    C6513051   2.359   1.515   7.018 -0.5629  0.1618 -0.1322
   44MOL    O6613052   2.432   1.610   6.990 -0.2840  0.0802  0.1692
   44MOL    O6713053   2.378   1.391   6.967  0.2206 -0.5531 -0.1696
   44MOL    C6813054   2.485   1.369   6.887 -0.3046 -0.1917 -0.5570
   44MOL    H6913055   2.165   1.402   7.271 -0.3181  2.8060  2.7818
   44MOL    H7013056   2.318   1.351   7.211 -1.8729 -1.5798 -0.3402
   44MOL    H7113057   2.195   1.726   7.042 -0.9782  2.3598  1.4058
   44MOL    H7213058   2.115   1.673   7.188  1.4077 -1.6186  0.5636
   44MOL    H7313059   2.285   1.732   7.191 -0.4462  1.5560  0.7492
   44MOL    H7413060   2.474   1.265   6.855 -0.2649  0.0035 -1.2068
   44MOL    H7513061   2.575   1.381   6.948  0.9832 -0.6623 -2.3120
   44MOL    H7613062   2.494   1.425   6.794  0.2994  1.2452  0.3568
   44MOL    C7713063   2.117   1.451   7.017 -0.4985 -0.0577 -0.5259
   44MOL    C7813064   1.962   1.469   7.033  0.3473 -0.4952  0.2982
   44MOL    C7913065   1.921   1.406   7.169  0.3656 -1.3482  0.1949
   44MOL    C8013066   1.921   1.623   7.018  0.1697  0.2498  0.1073
   44MOL    O8113067   1.853   1.680   7.104 -0.3672 -0.1760  0.0506
   44MOL    O8213068   1.963   1.679   6.908 -0.0969 -0.2962  0.0346
   44MOL    C8313069   1.924   1.808   6.872  0.6551 -0.0964  0.6188
   44MOL    H8413070   2.131   1.344   7.031 -0.6852 -0.0901 -0.5809
   44MOL    H8513071   2.143   1.478   6.915 -2.0844  1.7270 -0.4764
   44MOL    H8613072   1.966   1.465   7.249  0.0701 -1.7127  0.6298
   44MOL    H8713073   1.815   1.413   7.195  0.8062  0.3059  1.6233
   44MOL    H8813074   1.949   1.301   7.166  0.6382 -1.2854  0.5213
   44MOL    H8913075   1.985   1.888   6.915  2.2492 -1.2137  0.4708
   44MOL    H9013076   1.828   1.852   6.900 -0.0221 -1.8124  1.0571
   44MOL    H9113077   1.919   1.804   6.763  0.1074  0.2558  0.6286
   44MOL    C9213078   1.900   1.394   6.910 -0.0657 -1.0021 -0.0169
   44MOL    C9313079   1.750   1.348   6.888  0.1235  0.0466 -0.8666
   44MOL    C9413080   1.737   1.334   6.732  0.3350  0.6471 -0.3388
   44MOL    C9513081   1.727   1.212   6.969  0.7526 -0.0754  0.2115
   44MOL    O9613082   1.641   1.211   7.053 -0.4720  0.5924 -0.0247
   44MOL    O9713083   1.804   1.112   6.935 -0.0475 -0.3556  0.4898
   44MOL    C9813084   1.772   0.977   6.980  0.7475 -0.3717  0.1437
   44MOL    H9913085   1.952   1.302   6.885 -0.7145 -1.0863 -1.0881
   44MOL   H10013086   1.930   1.445   6.818  0.6500 -1.0245  0.2042
   44MOL   H10113087   1.769   1.419   6.672  0.9598  1.5521  1.2411
   44MOL   H10213088   1.806   1.255   6.701  0.5700  0.0830  1.4994
   44MOL   H10313089   1.637   1.299   6.709  0.2799  0.5458  0.0487
   44MOL   H10413090   1.775   0.971   7.089  0.6139 -0.6542  0.1333
   44MOL   H10513091   1.845   0.909   6.936 -3.1204 -3.0817 -2.3870
   44MOL   H10613092   1.676   0.940   6.944  0.6220  0.6285 -0.5620
   44MOL   C10713093   1.645   1.467   6.925  0.4562  0.3133 -1.1484
   44MOL   C10813094   1.502   1.502   6.868 -0.9714  0.4390  0.5457
   44MOL   C10913095   1.518   1.555   6.722 -0.6469  0.6726  0.1058
   44MOL   C11013096   1.414   1.370   6.857 -0.4942 -0.5093  0.2740
   44MOL   O11113097   1.379   1.321   6.748 -0.0679 -0.1038 -0.9859
   44MOL   O11213098   1.381   1.316   6.969  0.7682 -0.0214 -0.0979
   44MOL   C11313099   1.305   1.205   6.979 -0.4688 -0.6818 -0.2856
   44MOL   H11413100   1.692   1.562   6.898 -2.2935  1.5474 -1.7426
   44MOL   H11513101   1.632   1.469   7.033 -2.9909 -2.3327 -1.4473
   44MOL   H11613102   1.594   1.633   6.718 -0.6473  0.6465 -0.4128
   44MOL   H11713103   1.553   1.471   6.663  0.8542  1.5096 -0.2279
   44MOL   H11813104   1.429   1.604   6.683  0.0819 -0.1041 -2.6531
   44MOL   H11913105   1.227   1.220   7.053  0.0257  1.0386 -0.0883
   44MOL   H12013106   1.371   1.129   7.021 -0.0320 -0.0196  0.2405
   44MOL   H12113107   1.264   1.166   6.886 -0.4940 -0.6581 -0.2840
   44MOL   C12213108   1.449   1.606   6.968 -0.2853 -0.6023 -0.6403
   44MOL   C12313109   1.324   1.700   6.949  0.8484  0.5871  0.2294
   44MOL   C12413110   1.370   1.828   6.875  0.0388 -0.2533  0.1555
   44MOL   C12513111   1.209   1.627   6.867 -0.0125 -0.4277 -0.1552
   44MOL   O12613112   1.175   1.657   6.757 -0.2985  0.5298  0.2814
   44MOL   O12713113   1.148   1.522   6.937 -0.3339  0.7671 -0.0093
   44MOL   C12813114   1.050   1.448   6.864  0.1357 -0.0827  0.8756
   44MOL   H12913115   1.529   1.673   6.998 -1.1320  0.4275 -0.6490
   44MOL   H13013116   1.428   1.541   7.053 -0.3450  1.0230  0.6216
   44MOL   H13113117   1.441   1.805   6.795  0.1453  0.7194 -0.0337
   44MOL   H13213118   1.293   1.882   6.820 -0.5825 -0.6152  0.6771
   44MOL   H13313119   1.411   1.906   6.939 -0.5866 -0.2340  0.5317
   44MOL   H13413120   0.965   1.513   6.844  0.3697  0.2430  0.9508
   44MOL   H13513121   1.009   1.372   6.931  2.5757 -1.6064  0.7061
   44MOL   H13613122   1.088   1.405   6.771  2.6581  3.5330  0.1299
   44MOL   C13713123   1.273   1.742   7.096  0.2423  0.4271  0.3170
   44MOL   C13813124   1.134   1.816   7.128  0.4703  0.0390  0.2702
   44MOL   C13913125   1.081   1.908   7.015 -0.0479  0.0489  0.1613
   44MOL   C14013126   1.036   1.698   7.155  0.3891 -0.7018  0.3602
   44MOL   O14113127   0.932   1.682   7.096 -0.2642 -0.1325 -0.2353
   44MOL   O14213128   1.079   1.615   7.255 -0.5416  0.1461  0.1753
   44MOL   C14313129   1.006   1.495   7.275 -0.1692  0.7838  0.6160
   44MOL   H14413130   1.356   1.800   7.136 -0.0454  1.2265 -0.2271
   44MOL   H14513131   1.280   1.652   7.157 -0.4125 -0.9466 -1.5862
   44MOL   H14613132   1.152   1.989   6.997 -1.7017  1.4660 -0.1731
   44MOL   H14713133   1.098   1.845   6.927  2.2637 -2.8748  2.6106
   44MOL   H14813134   0.978   1.943   7.018  0.0993  0.4467  0.4722
   44MOL   H14913135   0.924   1.507   7.347 -0.0368  0.7797  0.7655
   44MOL   H15013136   1.070   1.417   7.316 -0.9260 -0.8891 -1.2932
   44MOL   H15113137   0.959   1.452   7.186 -0.1095 -1.4980  1.6578
   44MOL   C15213138   1.156   1.903   7.257  0.3813  0.1129  0.1252
   44MOL   C15313139   1.051   2.011   7.323 -0.2966  0.1075 -0.0168
   44MOL   C15413140   0.904   1.948   7.337  0.7028  0.1498 -0.1162
   44MOL   C15513141   1.117   2.040   7.464 -0.3344 -0.2337 -0.2971
   44MOL   O15613142   1.241   2.024   7.485  0.5759 -0.4560  0.5583
   44MOL   O15713143   1.027   2.066   7.562 -0.0893 -0.6708 -0.1763
   44MOL   C15813144   1.078   2.105   7.692 -0.4061 -0.0426 -0.6917
   44MOL   H15913145   1.250   1.953   7.237 -1.0550  3.0240  0.4387
   44MOL   H16013146   1.202   1.829   7.322 -1.7463 -0.6534  0.8234
   44MOL   H16113147   0.842   2.014   7.398 -1.5713  0.6711 -2.8689
   44MOL   H16213148   0.863   1.926   7.239  0.4112 -1.1404  0.2821
   44MOL   H16313149   0.904   1.848   7.381 -0.0954  0.2748  0.1730
   44MOL   H16413150   1.131   2.022   7.739  0.6156  0.2780 -1.2616
   44MOL   H16513151   0.987   2.121   7.750 -1.3805  2.0232 -2.7051
   44MOL   H16613152   1.134   2.198   7.698 -2.6187  1.3901 -1.4789
   44MOL   C16713153   1.044   2.140   7.235 -0.1477 -0.7396 -0.2698
   44MOL   C16813154   0.987   2.279   7.273 -1.2585  0.0439 -0.6441
   44MOL   C16913155   0.837   2.268   7.320  0.1160  0.4239 -0.0626
   44MOL   C17013156   1.077   2.347   7.385  0.3155  0.1249  0.4924
   44MOL   O17113157   1.028   2.382   7.490  0.0667  0.7013 -0.1778
   44MOL   O17213158   1.204   2.354   7.360  0.2095  0.6230 -0.4952
   44MOL   C17313159   1.293   2.421   7.453  0.4645  0.0897  0.2079
   44MOL   H17413160   0.995   2.116   7.141 -1.6945 -1.7185  0.7537
   44MOL   H17513161   1.144   2.172   7.205 -0.4037  2.3669  1.9149
   44MOL   H17613162   0.782   2.195   7.261 -2.0906  2.1521 -0.1916
   44MOL   H17713163   0.837   2.239   7.425 -3.6716  0.9211  0.1288
   44MOL   H17813164   0.790   2.366   7.312 -1.5762 -0.4681 -1.6405
   44MOL   H17913165   1.383   2.462   7.407  1.2835  0.3521  2.0016
   44MOL   H18013166   1.334   2.339   7.512 -2.0079  0.3480  2.3679
   44MOL   H18113167   1.243   2.501   7.508  0.5734  0.9299 -0.9027
   44MOL   C18213168   0.983   2.353   7.135  0.0708 -0.0699 -0.0126
   44MOL   C18313169   0.973   2.508   7.113 -0.2464  0.4806  0.5582
   44MOL   C18413170   0.854   2.575   7.190  1.0351 -0.4845 -0.3956
   44MOL   C18513171   1.109   2.574   7.156 -0.1412 -0.5453  0.7577
   44MOL   O18613172   1.111   2.651   7.252 -0.1967  0.0872 -0.4728
   44MOL   O18713173   1.216   2.547   7.086 -0.4029 -0.6441  0.3616
   44MOL   C18813174   1.343   2.576   7.143 -0.7655  0.3649  0.3159
   44MOL   H18913175   0.903   2.314   7.073  0.9963 -1.5625 -0.3053
   44MOL   H19013176   1.073   2.327   7.078 -0.6008  0.0049 -1.1359
   44MOL   H19113177   0.866   2.572   7.298  0.6815  1.0296 -0.3030
   44MOL   H19213178   0.858   2.682   7.172  0.7573 -0.6054 -1.2120
   44MOL   H19313179   0.750   2.546   7.172  1.2746 -0.4306 -1.8871
   44MOL   H19413180   1.381   2.668   7.099  0.3645  0.0095  0.5185
   44MOL   H19513181   1.405   2.490   7.118 -1.5746 -0.9284  2.5974
   44MOL   H19613182   1.348   2.580   7.252  2.9020  0.0981  0.2332
   44MOL   C19713183   0.955   2.538   6.956 -0.0010 -0.2079 -0.1885
   44MOL   C19813184   0.915   2.679   6.893 -0.1158  0.0581 -0.1230
   44MOL   C19913185   0.765   2.706   6.916 -0.0119  0.1558  0.4918
   44MOL   C20013186   1.010   2.798   6.945 -0.3732  0.3359 -0.8077
   44MOL   O20113187   0.978   2.872   7.033 -0.2044  0.2690 -0.2009
   44MOL   O20213188   1.137   2.794   6.900  0.3953 -0.4230 -0.2274
   44MOL   C20313189   1.231   2.888   6.940  0.8638 -0.6015  0.0825
   44MOL   H20413190   0.869   2.473   6.940  1.6224 -1.9936 -2.0273
   44MOL   H20513191   1.031   2.479   6.904 -1.7526 -3.1838  0.4992
   44MOL   H20613192   0.745   2.813   6.908 -1.0456  0.0132  1.0561
   44MOL   H20713193   0.715   2.635   6.851 -1.8177 -0.5752  2.6296
   44MOL   H20813194   0.724   2.680   7.014  2.0459  0.4271  1.4509
   44MOL   H20913195   1.201   2.988   6.906 -0.6966 -1.1194 -0.0897
   44MOL   H21013196   1.332   2.867   6.904  1.5362  0.9692  0.9803
   44MOL   H21113197   1.230   2.907   7.047  0.6402  1.5966 -0.2684
   44MOL   C21213198   0.928   2.658   6.731  1.0709 -0.5590 -0.1748
   44MOL   C21313199   0.911   2.752   6.610  0.0309  0.4286  0.1256
   44MOL   C21413200   0.762   2.803   6.607 -0.5259  0.4419  0.3628
   44MOL   C21513201   1.011   2.871   6.620 -0.4934 -0.0730  0.9219
   44MOL   O21613202   0.966   2.985   6.643  0.2398  0.2720 -0.2348
   44MOL   O21713203   1.147   2.842   6.600 -0.0301  0.1118  0.1518
   44MOL   C21813204   1.231   2.962   6.608  0.8508 -0.2766 -0.0301
   44MOL   H21913205   0.866   2.573   6.703 -1.5875  0.7216  1.5168
   44MOL   H22013206   1.030   2.622   6.726  0.7915 -1.4234  0.3339
   44MOL   H22113207   0.687   2.724   6.614  0.2980 -0.3513  0.3019
   44MOL   H22213208   0.749   2.879   6.684 -2.3631  1.9742 -1.4356
   44MOL   H22313209   0.736   2.861   6.519 -2.9484 -1.0180  0.0624
   44MOL   H22413210   1.195   3.026   6.688 -1.4392  1.1168 -2.1181
   44MOL   H22513211   1.235   3.012   6.512  1.0782  1.6171  0.9380
   44MOL   H22613212   1.330   2.928   6.638 -0.7118 -4.0535  1.1659
   44MOL   C22713213   0.928   2.671   6.476 -0.1001  0.2176  0.2455
   44MOL   C22813214   0.947   2.728   6.327 -0.2576  0.5503 -0.0393
   44MOL   C22913215   0.842   2.839   6.300 -0.5854 -0.1493 -0.2345
   44MOL   C23013216   1.095   2.773   6.303 -0.4682 -0.2352 -0.0359
   44MOL   O23113217   1.123   2.888   6.287 -0.1663 -0.3299 -0.1531
   44MOL   O23213218   1.187   2.674   6.309  0.2441  0.1825 -0.0247
   44MOL   C23313219   1.310   2.699   6.254 -0.3879  0.3032 -0.5132
   44MOL   H23413220   0.842   2.605   6.474 -0.8823  1.2333 -0.5247
   44MOL   H23513221   1.009   2.598   6.486  1.1005  1.5081  0.1093
   44MOL   H23613222   0.869   2.922   6.365  2.5966 -0.1985 -1.3974
   44MOL   H23713223   0.851   2.879   6.199  1.8792  0.4441  0.1964
   44MOL   H23813224   0.736   2.816   6.312 -0.9490  2.5270  2.1483
   44MOL   H23913225   1.363   2.771   6.317 -1.8336 -0.4559  1.6648
   44MOL   H24013226   1.293   2.753   6.161 -0.6189  2.1885  0.5785
   44MOL   H24113227   1.367   2.608   6.237 -0.5429 -0.1805  1.3943
   44MOL   C24213228   0.923   2.609   6.235 -0.0708 -0.3692 -0.0100
   44MOL   C24313229   0.938   2.601   6.072 -0.8562  0.6072 -0.0938
   44MOL   C24413230   0.938   2.741   6.009  0.5178 -0.1514 -0.6165
   44MOL   C24513231   1.071   2.539   6.035  0.0881 -0.1303 -0.6204
   44MOL   O24613232   1.136   2.580   5.941 -0.0523  0.3848 -0.2140
   44MOL   O24713233   1.099   2.432   6.117  0.1057  0.5092 -0.0146
   44MOL   C24813234   1.220   2.366   6.107  0.1194  0.7162  0.3649
   44MOL   H24913235   0.817   2.592   6.252  0.5878 -1.9856  2.7742
   44MOL   H25013236   0.974   2.520   6.273 -1.8493 -1.4563 -0.0956
   44MOL   H25113237   1.022   2.808   6.028 -0.1255  1.4521 -3.1804
   44MOL   H25213238   0.958   2.724   5.903 -0.4356 -1.2734 -0.6198
   44MOL   H25313239   0.846   2.799   6.005  0.0548 -0.8026  0.4450
   44MOL   H25413240   1.246   2.329   6.008  2.2132 -1.5751  1.6963
   44MOL   H25513241   1.216   2.278   6.171  1.2679 -1.2792 -2.2292
   44MOL   H25613242   1.301   2.433   6.138 -1.8678  2.8683  1.0376
   44MOL   C25713243   0.816   2.535   6.003  0.0022 -0.4573  0.7382
   44MOL   C25813244   0.753   2.393   6.013  0.3782 -0.1561  0.5360
   44MOL   C25913245   0.848   2.285   5.963 -0.1635  0.2742 -0.0743
   44MOL   C26013246   0.721   2.369   6.166 -0.5107 -0.3543  0.5089
   44MOL   O26113247   0.621   2.412   6.218  0.4497  0.1373  0.4072
   44MOL   O26213248   0.816   2.303   6.236  0.1960  0.4524 -0.4726
   44MOL   C26313249   0.780   2.272   6.369  0.2074 -0.2562  0.3379
   44MOL   H26413250   0.824   2.549   5.895  2.7119 -0.1485  0.9642
   44MOL   H26513251   0.737   2.606   6.028  0.7720  0.7545 -0.2424
   44MOL   H26613252   0.942   2.287   6.017 -0.6306 -0.3962  0.7741
   44MOL   H26713253   0.811   2.182   5.970  3.1600 -0.9476  0.6116
   44MOL   H26813254   0.872   2.316   5.861 -0.1343 -0.9627 -0.4542
   44MOL   H26913255   0.690   2.209   6.377  0.1188  0.0102  1.5336
   44MOL   H27013256   0.762   2.369   6.414 -0.2880 -0.1117 -0.1683
   44MOL   H27113257   0.866   2.231   6.421 -0.9055 -2.9044  0.1856
   44MOL   C27213258   0.621   2.401   5.926 -0.0309 -0.2294  0.2374
   44MOL   C27313259   0.532   2.281   5.880  0.4045 -0.3603  0.3159
   44MOL   C27413260   0.605   2.203   5.771 -0.0015  0.4709 -0.0843
   44MOL   C27513261   0.493   2.183   5.997 -0.2321  0.1186 -0.4241
   44MOL   O27613262   0.534   2.067   6.005  0.9839  0.2390 -0.4850
   44MOL   O27713263   0.413   2.238   6.096 -0.3399  0.0714 -0.5755
   44MOL   C27813264   0.372   2.161   6.207  0.8338  0.7158 -0.4534
   44MOL   H27913265   0.648   2.464   5.841  1.1462  0.1905  0.9076
   44MOL   H28013266   0.557   2.465   5.987  1.7230  0.7309  1.1156
   44MOL   H28113267   0.698   2.156   5.803 -2.3247 -2.8941  1.9460
   44MOL   H28213268   0.540   2.119   5.747 -0.4792  0.4882  1.1259
   44MOL   H28313269   0.619   2.255   5.676 -1.8103  0.8411 -0.1548
   44MOL   H28413270   0.332   2.223   6.287 -0.4662 -0.4560 -0.1654
   44MOL   H28513271   0.463   2.108   6.235  0.1246  0.5306  1.5903
   44MOL   H28613272   0.294   2.090   6.180 -1.3066  2.4312  0.9910
   44MOL   C28713273   0.399   2.339   5.832  0.4820 -0.2269  0.4367
   44MOL   C28813274   0.281   2.248   5.800 -0.1401  0.4867 -0.3358
   44MOL   C28913275   0.144   2.296   5.847  0.1312  0.0226  0.6426
   44MOL   C29013276   0.278   2.206   5.650 -0.0170  0.2034 -0.0006
   44MOL   O29113277   0.223   2.277   5.564 -0.7559 -0.4118 -0.1724
   44MOL   O29213278   0.344   2.098   5.619  0.0912  0.6555 -0.3297
   44MOL   C29313279   0.386   2.077   5.489 -0.1267 -0.3413 -0.3054
   44MOL   H29413280   0.419   2.406   5.749  0.4538 -0.0226  0.5966
   44MOL   H29513281   0.359   2.398   5.914  1.1918 -1.0683  1.4113
   44MOL   H29613282   0.099   2.368   5.779  1.7570  0.8382  0.4003
   44MOL   H29713283   0.082   2.207   5.862 -0.4371  0.6839  2.3054
   44MOL   H29813284   0.164   2.338   5.946  0.0318 -0.4919  0.8818
   44MOL   H29913285   0.410   1.971   5.479 -0.0215 -0.4645  1.1022
   44MOL   H30013286   0.472   2.142   5.470 -0.2522 -0.3830 -1.0141
   44MOL   H30113287   0.315   2.114   5.416 -1.0942  0.4534  1.0097
   44MOL   H30213288   0.297   2.156   5.857  1.9546  0.9947 -0.0264
   45MOL     C113289   2.651   1.778   0.007 -0.1321  0.7063  0.4883
   45MOL     C213290   2.788   1.841   0.048 -0.3636 -0.1512  0.6550
   45MOL     C313291   2.807   1.804   0.198 -0.1701  0.7698 -0.5418
   45MOL     C413292   2.900   1.758   7.842 -0.1901  0.2713 -0.3039
   45MOL     O513293   2.964   1.669   0.017  0.0918  0.4010 -0.1744
   45MOL     O613294   2.900   1.793   7.714 -0.0846  0.4737 -0.4766
   45MOL     C713295   2.996   1.742   7.627 -0.1501  0.4716 -0.5767
   45MOL     H813296   2.646   1.786   7.776 -0.8983  1.4163  0.5621
   45MOL     H913297   2.656   1.670   0.019 -1.4317  0.4359 -1.1695
   45MOL    H1013298   2.904   1.836   0.236 -0.4965  0.8246  0.2660
   45MOL    H1113299   2.719   1.839   0.252  0.1277 -1.8167  1.6978
   45MOL    H1213300   2.803   1.703   0.238 -0.4210  0.5738 -1.0655
   45MOL    H1313301   2.934   1.719   7.541 -1.3036  1.9949 -0.1696
   45MOL    H1413302   3.035   1.649   7.668 -3.8018  0.2246  2.6412
   45MOL    H1513303   3.078   1.810   7.608 -0.2183  0.6044 -0.3979
   45MOL    H1613304   2.566   1.817   0.063  0.8207  0.5324  2.0944
   45MOL    C1713305   2.814   2.001   0.039  0.5779 -0.1664  0.1506
   45MOL    C1813306   2.724   2.096   7.838  0.4518  0.7506  0.5800
   45MOL    C1913307   2.722   2.064   7.686 -0.7646 -0.6283  0.2594
   45MOL    C2013308   2.578   2.073   0.014 -0.7727 -0.0359  0.2938
   45MOL    O2113309   2.482   2.062   7.814 -0.3441  0.0240  0.2824
   45MOL    O2213310   2.569   2.082   0.143  0.1179 -0.1639 -0.2840
   45MOL    C2313311   2.442   2.103   0.207 -0.3851  0.4107  0.4709
   45MOL    H2413312   2.916   2.012   0.002  0.8151  0.4175  0.9673
   45MOL    H2513313   2.819   2.041   0.140 -2.7176  0.6143  0.0512
   45MOL    H2613314   2.658   2.130   7.628 -0.0239 -0.6337 -0.5838
   45MOL    H2713315   2.815   2.094   7.639 -0.5768 -1.2446  0.2372
   45MOL    H2813316   2.691   1.965   7.650  0.3032 -0.3409 -1.5134
   45MOL    H2913317   2.436   2.108   0.316 -1.3474 -1.2416  0.5023
   45MOL    H3013318   2.367   2.029   0.179 -1.5270  2.0263 -0.8769
   45MOL    H3113319   2.410   2.202   0.174 -1.1339 -0.5287 -1.7070
   45MOL    C3213320   2.782   2.242   7.862 -0.7579 -0.4973 -0.3820
   45MOL    C3313321   2.706   2.383   7.851  0.6638 -0.5622 -0.1672
   45MOL    C3413322   2.624   2.367   7.720 -0.4881 -0.1977  0.6287
   45MOL    C3513323   2.606   2.410   0.084 -0.1403 -0.3955  0.2121
   45MOL    O3613324   2.619   2.351   0.192  0.1799 -0.0600  0.7758
   45MOL    O3713325   2.508   2.507   0.056  0.0731 -0.4258 -0.2178
   45MOL    C3813326   2.443   2.564   0.170  0.4145  0.2811  0.0629
   45MOL    H3913327   2.869   2.256   7.798 -0.5532 -1.2851 -0.2832
   45MOL    H4013328   2.828   2.244   0.083  0.2570 -1.1088 -0.8396
   45MOL    H4113329   2.600   2.461   7.670 -1.1558 -0.6525  0.0915
   45MOL    H4213330   2.688   2.331   7.640  0.8875 -0.3133  1.7491
   45MOL    H4313331   2.536   2.306   7.737 -0.9585  1.0419  2.8978
   45MOL    H4413332   2.489   2.658   0.200 -1.6506  0.9343  1.3641
   45MOL    H4513333   2.430   2.493   0.253  1.9172 -1.0306 -0.7915
   45MOL    H4613334   2.340   2.589   0.143  0.2513 -0.5064 -0.0600
   45MOL    C4713335   2.810   2.506   7.836  0.3525 -0.4950  0.1819
   45MOL    C4813336   2.932   2.542   0.045 -0.5595 -0.3357  0.0902
   45MOL    C4913337   2.903   2.502   0.198 -0.3369 -0.1852 -0.1919
   45MOL    C5013338   3.061   2.464   0.004  0.7587 -0.0415  0.1141
   45MOL    O5113339   3.126   2.405   0.086 -0.5802  0.2025 -0.1095
   45MOL    O5213340   3.093   2.479   7.757 -0.0379  0.1437  0.2811
   45MOL    C5313341   3.199   2.407   7.703  0.4212 -0.0241  0.9099
   45MOL    H5413342   2.738   2.587   7.837 -0.1834 -0.9574 -0.3262
   45MOL    H5513343   2.837   2.501   7.730 -1.6570 -0.5716 -0.3350
   45MOL    H5613344   2.984   2.520   0.270 -0.5167 -0.5769  0.1139
   45MOL    H5713345   2.805   2.533   0.235  0.6798  0.0827  2.3911
   45MOL    H5813346   2.877   2.396   0.205  0.0545 -0.1493  2.5273
   45MOL    H5913347   3.173   2.311   7.658 -0.3548  1.5966 -2.1821
   45MOL    H6013348   3.270   2.367   7.776 -0.8965  0.4176  2.4768
   45MOL    H6113349   3.248   2.474   7.633  0.3023 -0.2782  0.5855
   45MOL    C6213350   2.958   2.695   0.061  0.5750 -0.3588 -0.4049
   45MOL    C6313351   3.006   2.793   7.822  0.4108  0.0115  0.1606
   45MOL    C6413352   3.163   2.776   7.806 -0.1002  0.5758 -0.4773
   45MOL    C6513353   2.941   2.756   7.683 -0.2131 -0.3500  0.0471
   45MOL    O6613354   3.004   2.709   7.587  0.0830  0.2256  0.6387
   45MOL    O6713355   2.808   2.786   7.673  0.2547 -0.0646 -0.7486
   45MOL    C6813356   2.729   2.754   7.559 -0.8575  1.2659  0.1057
   45MOL    H6913357   3.039   2.697   0.133 -0.4719  0.8115  0.7723
   45MOL    H7013358   2.874   2.749   0.105 -0.6224 -2.7187  0.2816
   45MOL    H7113359   3.191   2.680   7.762 -0.7736  0.8290 -1.4821
   45MOL    H7213360   3.213   2.848   7.743 -0.1205  0.3538 -0.7487
   45MOL    H7313361   3.216   2.783   0.023 -2.8140 -0.8144  1.2150
   45MOL    H7413362   2.721   2.834   7.485 -0.0205 -0.5930 -2.0256
   45MOL    H7513363   2.628   2.742   7.598 -1.1510  0.0806 -1.0000
   45MOL    H7613364   2.746   2.651   7.531  1.4008  1.1224  1.8536
   45MOL    C7713365   2.965   2.942   7.853 -0.2921  0.0600 -0.3628
   45MOL    C7813366   3.033   3.033   0.085  0.0652 -0.9943 -0.0949
   45MOL    C7913367   3.008   2.959   0.218 -0.1246  0.2096 -0.1663
   45MOL    C8013368   3.184   3.054   0.066  0.7262 -0.1621  0.6073
   45MOL    O8113369   3.266   3.030   0.151 -0.0195  0.0878 -0.3112
   45MOL    O8213370   3.209   3.096   7.824 -0.2609 -0.8104  0.4307
   45MOL    C8313371   3.341   3.109   7.783 -0.3764  0.1011 -1.0290
   45MOL    H8413372   2.860   2.933   0.001 -1.0369  0.8403 -2.9845
   45MOL    H8513373   2.969   2.994   7.757  0.1036  0.8815  0.1005
   45MOL    H8613374   3.021   3.034   0.297  2.3290 -1.2531  0.8678
   45MOL    H8713375   2.904   2.926   0.217  0.1966 -0.8209 -2.2455
   45MOL    H8813376   3.065   2.870   0.244  0.7988  0.8152 -0.1164
   45MOL    H8913377   3.385   3.190   7.842  0.5063  0.6417 -2.3968
   45MOL    H9013378   3.360   3.131   7.678 -1.2685  2.4442 -0.7382
   45MOL    H9113379   3.394   3.017   7.807  0.7901  0.8835 -0.5765
   45MOL    C9213380   2.969   3.184   0.090  0.3022  0.1463  0.1523
   45MOL    C9313381   2.900   3.262   7.850 -0.0803 -0.5975  0.1514
   45MOL    C9413382   2.990   3.280   7.721  0.0801 -0.2894  0.1408
   45MOL    C9513383   2.763   3.197   7.808 -0.3386  0.7854 -0.2129
   45MOL    O9613384   2.708   3.110   0.004  0.8073  0.4490  0.2136
   45MOL    O9713385   2.707   3.261   7.695  0.1113  0.1454 -0.4958
   45MOL    C9813386   2.585   3.215   7.642  0.7385 -0.5538  0.0855
   45MOL    H9913387   3.043   3.257   0.123  1.8991 -1.1315 -0.5312
   45MOL   H10013388   2.897   3.181   0.173 -1.5700  2.0651 -1.3312
   45MOL   H10113389   3.077   3.336   7.757 -0.8068  0.4328  1.1789
   45MOL   H10213390   3.039   3.191   7.681  0.5662 -0.2923  0.7251
   45MOL   H10313391   2.938   3.329   7.639 -2.0730 -2.5490  0.1008
   45MOL   H10413392   2.593   3.106   7.637 -2.8852 -1.0197  2.5232
   45MOL   H10513393   2.559   3.252   7.543  1.5802  0.4420  0.2268
   45MOL   H10613394   2.506   3.237   7.713 -0.3973 -1.0284 -1.0098
   45MOL   C10713395   2.877   3.415   0.008  0.5944 -0.7890 -0.1301
   45MOL   C10813396   2.775   3.466   0.118  0.1957 -0.3022 -0.0581
   45MOL   C10913397   2.629   3.450   0.062 -0.9370 -0.0714 -0.6291
   45MOL   C11013398   2.786   3.397   0.253 -0.2481  0.2202  0.1338
   45MOL   O11113399   2.696   3.357   0.324  0.3307  0.5588  0.1667
   45MOL   O11213400   2.916   3.390   0.292  0.1849 -0.5976 -0.6900
   45MOL   C11313401   2.951   3.314   0.414  0.2444  0.2357  0.2813
   45MOL   H11413402   2.856   3.467   7.793 -1.4619  1.7949  1.6938
   45MOL   H11513403   2.971   3.456   0.044  0.0122 -0.1091  0.6516
   45MOL   H11613404   2.553   3.499   0.123 -0.5331  0.3559 -0.4712
   45MOL   H11713405   2.633   3.494   7.840  1.8666 -0.0674 -0.5548
   45MOL   H11813406   2.586   3.350   0.070  2.8431 -1.6155  2.0576
   45MOL   H11913407   2.900   3.356   0.501 -1.3505 -0.1911 -0.4312
   45MOL   H12013408   3.059   3.315   0.430  0.4674 -1.7944 -0.9499
   45MOL   H12113409   2.927   3.209   0.405 -0.0404  0.3014  0.2824
   45MOL   C12213410   2.811   3.624   0.121  0.0233  0.2166  0.1787
   45MOL   C12313411   2.721   3.736   0.197  0.2101  0.5009  0.2018
   45MOL   C12413412   2.811   3.860   0.226 -0.2308 -0.4582 -0.6452
   45MOL   C12513413   2.617   3.788   0.089  0.0654 -0.4048 -0.0501
   45MOL   O12613414   2.495   3.763   0.098 -0.2463 -0.4190  0.3147
   45MOL   O12713415   2.668   3.846   7.863  0.5594 -0.0524  0.2789
   45MOL   C12813416   2.593   3.857   7.737 -0.1207 -0.2458  0.4400
   45MOL   H12913417   2.812   3.662   0.019 -0.5625 -1.4637 -0.4820
   45MOL   H13013418   2.911   3.629   0.162  0.4270 -1.0326 -0.6230
   45MOL   H13113419   2.852   3.907   0.137  0.3186 -2.0673 -1.2735
   45MOL   H13213420   2.764   3.939   0.284 -0.9620 -1.5770  0.3277
   45MOL   H13313421   2.904   3.830   0.275 -1.6356 -0.3842  2.2033
   45MOL   H13413422   2.513   3.925   7.766 -0.1289 -0.8324  1.8265
   45MOL   H13513423   2.562   3.762   7.695 -0.0859  0.0824 -0.3386
   45MOL   H13613424   2.651   3.912   7.663  1.4442 -1.1186  0.9822
   45MOL   C13713425   2.635   3.694   0.325  0.4190 -0.4886  0.2895
   45MOL   C13813426   2.675   3.713   0.482  0.5279  0.0735  0.0571
   45MOL   C13913427   2.815   3.653   0.505  0.4296  0.0535  0.1053
   45MOL   C14013428   2.670   3.864   0.517  0.0508 -1.0663 -0.4319
   45MOL   O14113429   2.753   3.911   0.591 -0.4505  0.3946 -0.0888
   45MOL   O14213430   2.562   3.930   0.481 -0.9112  0.2389  0.1306
   45MOL   C14313431   2.535   4.066   0.504 -0.0207  0.3121 -0.1203
   45MOL   H14413432   2.601   3.592   0.309  0.8578 -0.8167  1.4204
   45MOL   H14513433   2.543   3.753   0.325 -0.1592 -1.3288  2.2701
   45MOL   H14613434   2.793   3.548   0.491 -0.4541  0.2912 -0.3180
   45MOL   H14713435   2.887   3.684   0.429  0.6202 -3.4629 -1.2051
   45MOL   H14813436   2.854   3.674   0.605 -0.5787  0.6739  0.3841
   45MOL   H14913437   2.433   4.101   0.485 -0.0890 -0.6453 -1.5608
   45MOL   H15013438   2.603   4.135   0.454  0.6737  0.8356  1.5309
   45MOL   H15113439   2.544   4.074   0.612 -1.2776  3.0710 -0.1706
   45MOL   C15213440   2.566   3.629   0.555  0.1327 -0.9206 -0.9996
   45MOL   C15313441   2.533   3.641   0.713 -0.3855  0.1141  0.6016
   45MOL   C15413442   2.667   3.639   0.786 -0.1430  0.4339  0.1680
   45MOL   C15513443   2.443   3.768   0.744  0.7503  0.4394 -0.4233
   45MOL   O15613444   2.471   3.867   0.812  0.1747  0.4444  0.0446
   45MOL   O15713445   2.317   3.754   0.686  0.4892  0.1414  0.6866
   45MOL   C15813446   2.201   3.839   0.725  0.3159 -0.0179 -0.7039
   45MOL   H15913447   2.591   3.528   0.521  2.0554 -1.2142  1.1374
   45MOL   H16013448   2.477   3.650   0.497  2.3819  2.7329 -3.3093
   45MOL   H16113449   2.723   3.728   0.759 -0.0647 -0.5253 -2.9694
   45MOL   H16213450   2.651   3.637   0.894 -0.1508  0.4636  0.1673
   45MOL   H16313451   2.715   3.548   0.748 -0.6306  1.0039 -1.8609
   45MOL   H16413452   2.214   3.943   0.694 -1.8943  0.5400  0.1220
   45MOL   H16513453   2.188   3.832   0.833  1.0671 -0.6943 -0.6590
   45MOL   H16613454   2.105   3.810   0.683 -0.0878 -2.8428  2.0010
   45MOL   C16713455   2.450   3.509   0.730  0.3507 -0.4810 -0.1691
   45MOL   C16813456   2.387   3.456   0.870 -0.0682 -0.2171 -0.1773
   45MOL   C16913457   2.513   3.395   0.951 -0.0215  0.0014  0.1656
   45MOL   C17013458   2.315   3.569   0.954  0.0552  0.8295 -0.3388
   45MOL   O17113459   2.190   3.588   0.944  0.5373 -0.5753 -0.2218
   45MOL   O17213460   2.385   3.633   1.044 -0.5135 -0.2010 -0.5619
   45MOL   C17313461   2.337   3.736   1.126  0.8315  0.0297  0.2304
   45MOL   H17413462   2.512   3.425   0.696 -0.6599 -2.2824  2.2705
   45MOL   H17513463   2.371   3.508   0.654 -0.5685 -0.1738  0.7719
   45MOL   H17613464   2.553   3.475   1.014  0.5253 -1.3362  1.5327
   45MOL   H17713465   2.486   3.316   1.021 -0.0557  0.2723  0.4626
   45MOL   H17813466   2.588   3.356   0.882 -3.4350 -2.5369 -2.2520
   45MOL   H17913467   2.413   3.774   1.193 -1.8135  2.5337  1.9241
   45MOL   H18013468   2.258   3.694   1.187  1.4849 -0.7415  0.5509
   45MOL   H18113469   2.298   3.821   1.070  1.9454 -1.1426 -2.4293
   45MOL   C18213470   2.284   3.339   0.851  0.5839 -0.5028 -0.3735
   45MOL   C18313471   2.314   3.203   0.775 -0.4924  0.1254  0.0228
   45MOL   C18413472   2.203   3.115   0.826  0.3905  0.2101 -0.2113
   45MOL   C18513473   2.295   3.226   0.615  0.8050 -0.4767 -0.1417
   45MOL   O18613474   2.186   3.205   0.566 -0.4495 -0.1518  0.3564
   45MOL   O18713475   2.390   3.283   0.546  0.1492 -0.7912  0.1843
   45MOL   C18813476   2.351   3.322   0.411 -0.4658  0.8463 -0.6763
   45MOL   H18913477   2.198   3.380   0.799 -0.0857  1.9094  2.4895
   45MOL   H19013478   2.242   3.313   0.948 -0.6193 -0.0291 -0.7507
   45MOL   H19113479   2.114   3.169   0.794  0.2186  0.2699  0.3713
   45MOL   H19213480   2.198   3.014   0.785 -0.1247 -0.0775  0.5657
   45MOL   H19313481   2.199   3.102   0.934 -2.7193 -0.6138 -0.3693
   45MOL   H19413482   2.256   3.375   0.413 -1.1934 -0.4294 -1.5651
   45MOL   H19513483   2.353   3.230   0.353  0.2331  0.6064 -0.2812
   45MOL   H19613484   2.430   3.389   0.375  1.9460 -1.9580 -0.8124
   45MOL   C19713485   2.458   3.142   0.801  0.0099 -0.2927 -0.2777
   45MOL   C19813486   2.489   2.985   0.787 -0.2354 -0.8215  0.4116
   45MOL   C19913487   2.442   2.911   0.911 -0.0297 -0.2263  0.4108
   45MOL   C20013488   2.421   2.920   0.661  0.1714  0.4196  0.5495
   45MOL   O20113489   2.346   2.828   0.666  0.0968  0.2558 -0.2738
   45MOL   O20213490   2.466   2.969   0.547  0.8799  0.7960  0.3208
   45MOL   C20313491   2.433   2.911   0.418 -0.2918  0.2539 -0.7334
   45MOL   H20413492   2.474   3.159   0.907 -1.1198  1.6003 -0.3860
   45MOL   H20513493   2.530   3.200   0.743 -1.8621  1.6525 -0.7384
   45MOL   H20613494   2.513   2.920   0.993  2.5915 -0.1113 -1.7928
   45MOL   H20713495   2.356   2.963   0.954  1.5680  2.4314  0.4677
   45MOL   H20813496   2.434   2.805   0.885 -2.3561  0.4558 -1.9015
   45MOL   H20913497   2.522   2.861   0.381  1.2663  2.7135 -0.4090
   45MOL   H21013498   2.403   2.988   0.348 -1.2257 -0.1903 -0.8293
   45MOL   H21113499   2.351   2.839   0.416 -0.3375  0.2869 -0.2490
   45MOL   C21213500   2.646   2.979   0.770  0.1173 -0.2027 -0.0900
   45MOL   C21313501   2.741   2.851   0.790  0.4134  0.0043 -0.4189
   45MOL   C21413502   2.745   2.820   0.940 -0.1647  0.3157 -0.2433
   45MOL   C21513503   2.692   2.727   0.715  0.1607 -0.0680 -0.2626
   45MOL   O21613504   2.652   2.624   0.772 -0.4827 -0.4228 -0.2126
   45MOL   O21713505   2.691   2.744   0.585  0.0962 -0.3664 -0.4228
   45MOL   C21813506   2.628   2.641   0.513 -0.0741 -0.2284  0.1572
   45MOL   H21913507   2.684   3.044   0.850  0.4483 -1.7747  1.0471
   45MOL   H22013508   2.665   3.038   0.680 -0.1465  3.6850  2.2816
   45MOL   H22113509   2.667   2.758   0.985 -1.0075  0.0775 -2.0130
   45MOL   H22213510   2.827   2.751   0.957  0.0076  0.1330 -1.7719
   45MOL   H22313511   2.748   2.917   0.992 -2.0299  0.2734 -0.0057
   45MOL   H22413512   2.688   2.550   0.509  0.0553 -0.1421  0.1450
   45MOL   H22513513   2.616   2.667   0.408  0.6095 -0.9340 -0.1050
   45MOL   H22613514   2.527   2.626   0.551  0.2203 -1.1888  0.5813
   45MOL   C22713515   2.881   2.903   0.736 -0.0993 -0.3793 -0.0629
   45MOL   C22813516   3.026   2.853   0.765  0.6778 -0.3818 -0.3959
   45MOL   C22913517   3.065   2.887   0.911 -0.0074 -0.6806  0.3294
   45MOL   C23013518   3.014   2.702   0.734  0.0042  0.3242 -0.6881
   45MOL   O23113519   3.023   2.615   0.822  0.2112 -0.6115  0.2219
   45MOL   O23213520   2.990   2.678   0.602  0.4090 -0.3113  0.8721
   45MOL   C23313521   2.960   2.542   0.560  1.2564 -0.1200  0.0376
   45MOL   H23413522   2.890   3.010   0.758 -1.6624 -0.5309  1.4647
   45MOL   H23513523   2.876   2.907   0.627  0.7263 -0.6027 -0.1118
   45MOL   H23613524   3.145   2.825   0.951  0.5753 -0.7223 -0.8692
   45MOL   H23713525   3.107   2.988   0.908 -0.4449 -0.4114  2.3284
   45MOL   H23813526   2.986   2.897   0.985 -1.0052 -0.9588 -0.6791
   45MOL   H23913527   2.925   2.534   0.457  1.1222 -0.5752  0.1177
   45MOL   H24013528   2.883   2.505   0.627 -0.7345 -1.7488 -3.0267
   45MOL   H24113529   3.043   2.472   0.571  1.5353 -0.1185 -1.8297
   45MOL   C24213530   3.133   2.920   0.669  0.0005  0.3857 -0.5095
   45MOL   C24313531   3.294   2.888   0.669 -0.2994 -0.4457 -0.4600
   45MOL   C24413532   3.358   2.896   0.812  0.4157  0.3491 -0.0011
   45MOL   C24513533   3.327   2.745   0.618  0.1693  0.4471 -0.6769
   45MOL   O24613534   3.402   2.662   0.678 -0.4888  0.4329  0.3989
   45MOL   O24713535   3.275   2.715   0.494  0.0428  0.5004 -0.3569
   45MOL   C24813536   3.334   2.601   0.434 -0.5712 -0.2462 -0.1097
   45MOL   H24913537   3.118   3.027   0.680 -2.5574  0.0177 -0.0361
   45MOL   H25013538   3.095   2.909   0.567 -1.6084  0.0921  0.0937
   45MOL   H25113539   3.467   2.892   0.813  0.4243  0.5837 -0.1047
   45MOL   H25213540   3.330   2.982   0.873  0.0995  0.6506 -0.5762
   45MOL   H25313541   3.326   2.802   0.858  1.2437  0.8865  1.7120
   45MOL   H25413542   3.278   2.583   0.343  0.9446 -2.0558 -0.7258
   45MOL   H25513543   3.325   2.516   0.502 -0.9326 -0.2769 -0.1953
   45MOL   H25613544   3.434   2.623   0.398 -0.4995 -0.9760 -0.3780
   45MOL   C25713545   3.358   2.992   0.569  0.3812 -0.3300  0.1394
   45MOL   C25813546   3.512   3.031   0.562 -0.0653  0.1550  0.5265
   45MOL   C25913547   3.536   3.136   0.671  0.1743 -0.1451  0.4904
   45MOL   C26013548   3.612   2.907   0.578 -0.4339 -0.6598 -0.6770
   45MOL   O26113549   3.687   2.894   0.678  0.0289 -0.5895 -0.2052
   45MOL   O26213550   3.607   2.815   0.473 -0.0576 -0.0920 -0.4009
   45MOL   C26313551   3.699   2.710   0.466 -0.1267 -0.7170 -0.3440
   45MOL   H26413552   3.309   3.088   0.580 -0.7310 -0.8383 -0.3236
   45MOL   H26513553   3.330   2.956   0.470  0.5668 -1.9553  0.6688
   45MOL   H26613554   3.530   3.099   0.774  1.9644  1.0425  1.0580
   45MOL   H26713555   3.632   3.187   0.677  0.4727 -0.7469  0.9591
   45MOL   H26813556   3.471   3.222   0.660 -0.6515 -0.7175  0.8685
   45MOL   H26913557   3.663   2.646   0.386  0.5761  0.0061 -1.2462
   45MOL   H27013558   3.700   2.646   0.555 -1.1109 -1.1127 -0.6091
   45MOL   H27113559   3.800   2.737   0.436 -0.5611 -1.0822 -2.1542
   45MOL   C27213560   3.536   3.095   0.422  0.3050 -0.1953 -0.0199
   45MOL   C27313561   3.663   3.173   0.383  0.1582 -0.1657  0.2208
   45MOL   C27413562   3.636   3.324   0.416 -0.3308  0.1715  0.5507
   45MOL   C27513563   3.802   3.141   0.445 -0.2467 -0.1150  0.2174
   45MOL   O27613564   3.857   3.219   0.528  0.3638  0.3159 -0.6040
   45MOL   O27713565   3.850   3.021   0.392  0.0672  0.6353 -0.0632
   45MOL   C27813566   3.975   2.978   0.435  0.4580  0.5564 -0.4863
   45MOL   H27913567   3.449   3.157   0.398  0.5903  0.1354 -0.2099
   45MOL   H28013568   3.523   3.024   0.341  0.5238  2.4289 -2.4394
   45MOL   H28113569   3.723   3.390   0.412  0.0170 -0.3448 -0.5418
   45MOL   H28213570   3.562   3.368   0.350  0.3159 -0.7569 -0.8234
   45MOL   H28313571   3.598   3.331   0.518 -0.8468  0.0104  0.3683
   45MOL   H28413572   4.048   3.058   0.426  1.2575 -0.1684 -0.4791
   45MOL   H28513573   4.018   2.906   0.366 -1.7044 -0.5242 -0.7648
   45MOL   H28613574   3.973   2.931   0.533 -1.2511  0.1086 -0.7139
   45MOL   C28713575   3.672   3.168   0.223  0.4039  0.4436 -0.0309
   45MOL   C28813576   3.777   3.259   0.157 -0.0199 -0.2364  0.0501
   45MOL   C28913577   3.847   3.189   0.043 -0.3040 -0.9379 -0.5158
   45MOL   C29013578   3.714   3.389   0.108  0.0266  0.1231  0.2364
   45MOL   O29113579   3.592   3.404   0.080  0.2111  0.0588 -0.6363
   45MOL   O29213580   3.806   3.489   0.094 -0.4723  0.2078 -0.1636
   45MOL   C29313581   3.769   3.601   0.027 -0.4570 -0.3777 -0.4376
   45MOL   H29413582   3.574   3.185   0.179 -0.3790 -0.1770  1.4307
   45MOL   H29513583   3.695   3.064   0.198 -2.6628 -0.7085  1.6678
   45MOL   H29613584   3.799   3.191   7.822 -1.4038 -0.0738  0.0193
   45MOL   H29713585   3.945   3.234   0.031  0.9229 -3.0119  1.3031
   45MOL   H29813586   3.868   3.084   0.065  1.2669 -0.9267 -1.8414
   45MOL   H29913587   3.758   3.583   7.798  0.2097 -0.5344 -0.4800
   45MOL   H30013588   3.845   3.678   0.035  0.0190 -0.8607 -0.2748
   45MOL   H30113589   3.674   3.640   0.062  0.3733  0.1912  1.2550
   45MOL   H30213590   3.848   3.294   0.232 -0.0776  0.6166 -0.2847
   46MOL     C113591   5.594   6.421   6.656  0.5962  0.0662 -0.2447
   46MOL     C213592   5.512   6.499   6.552  0.1957  0.7856 -0.2359
   46MOL     C313593   5.604   6.615   6.502  0.0518 -0.2561 -0.1231
   46MOL     C413594   5.481   6.420   6.425  0.3294 -0.3312 -0.0049
   46MOL     O513595   5.402   6.464   6.336  0.2799 -0.1193 -0.4062
   46MOL     O613596   5.557   6.310   6.418  0.4747  0.2610 -0.1306
   46MOL     C713597   5.546   6.221   6.316 -0.4489 -0.4458  0.4731
   46MOL     H813598   5.550   6.324   6.681  1.6866 -0.4887 -0.4748
   46MOL     H913599   5.681   6.387   6.601  0.1628 -1.0334 -0.2718
   46MOL    H1013600   5.689   6.583   6.443 -1.1050 -1.4194 -1.1998
   46MOL    H1113601   5.558   6.692   6.441 -0.0698 -0.8659 -0.8127
   46MOL    H1213602   5.655   6.667   6.583  2.0653 -2.1971 -0.1161
   46MOL    H1313603   5.641   6.169   6.304  0.8505  1.5282  1.9382
   46MOL    H1413604   5.521   6.280   6.228  1.1625 -2.2064 -1.2117
   46MOL    H1513605   5.468   6.147   6.336 -0.8907  0.2647  1.4079
   46MOL    H1613606   5.632   6.472   6.745  0.7631 -0.3623 -0.0722
   46MOL    C1713607   5.398   6.559   6.620  0.1180 -0.4965  0.6415
   46MOL    C1813608   5.282   6.474   6.685  0.4574 -0.2507 -0.1510
   46MOL    C1913609   5.232   6.363   6.591 -0.3529 -0.5792  0.1514
   46MOL    C2013610   5.329   6.415   6.821 -0.1845 -0.2418  0.0256
   46MOL    O2113611   5.377   6.489   6.910 -0.6516  0.0630  0.5387
   46MOL    O2213612   5.325   6.278   6.830 -0.3604 -0.8997  0.2587
   46MOL    C2313613   5.331   6.214   6.952 -0.2581 -0.1289  0.4656
   46MOL    H2413614   5.353   6.633   6.553 -1.4541 -1.7970  0.2368
   46MOL    H2513615   5.444   6.620   6.698 -0.2415  0.2512  0.2767
   46MOL    H2613616   5.214   6.418   6.499 -1.6541 -0.0310  0.7327
   46MOL    H2713617   5.309   6.287   6.575 -0.9625 -1.2152  0.2798
   46MOL    H2813618   5.145   6.306   6.621  0.2537 -1.2879  0.5768
   46MOL    H2913619   5.423   6.238   7.005  0.1844 -2.2686  0.6996
   46MOL    H3013620   5.334   6.114   6.910  2.7747  0.3493 -0.6103
   46MOL    H3113621   5.253   6.228   7.027 -0.2735  0.0631  0.4160
   46MOL    C3213622   5.165   6.576   6.715  0.1596 -0.4654  0.5411
   46MOL    C3313623   5.019   6.539   6.767 -0.1748 -0.1778  0.0228
   46MOL    C3413624   5.023   6.433   6.876  0.3348 -0.0712 -0.1622
   46MOL    C3513625   4.965   6.667   6.840  0.3217  0.1750 -0.5079
   46MOL    O3613626   4.890   6.676   6.938  0.1373  0.2133  0.1322
   46MOL    O3713627   5.006   6.779   6.778 -0.2314 -0.0322 -0.5920
   46MOL    C3813628   4.983   6.908   6.832 -0.3357  0.4623 -0.3306
   46MOL    H3913629   5.141   6.633   6.626 -1.6032 -0.7524  0.7967
   46MOL    H4013630   5.208   6.653   6.779 -0.2680 -0.2904  0.6237
   46MOL    H4113631   4.931   6.407   6.928  0.8328 -0.1657  0.6705
   46MOL    H4213632   5.061   6.334   6.850  0.5411 -0.3347  1.1494
   46MOL    H4313633   5.083   6.486   6.949 -1.2082 -0.7973  1.6655
   46MOL    H4413634   4.879   6.937   6.846 -0.0682  1.2772  0.0015
   46MOL    H4513635   5.045   6.983   6.783  0.2358  1.0398  1.2628
   46MOL    H4613636   5.031   6.908   6.930  0.0521 -0.5778 -0.5132
   46MOL    C4713637   4.939   6.481   6.641  0.0821 -0.6179  0.2007
   46MOL    C4813638   4.793   6.524   6.590  0.0884  0.1134 -0.4024
   46MOL    C4913639   4.699   6.494   6.714  0.0268  0.0206  0.3792
   46MOL    C5013640   4.801   6.671   6.545  0.3314 -0.5521 -0.2155
   46MOL    O5113641   4.705   6.749   6.569  0.0974  0.1424  0.2666
   46MOL    O5213642   4.917   6.710   6.479 -0.0355 -0.3159 -0.3959
   46MOL    C5313643   4.936   6.842   6.426 -0.1822 -0.1196  0.2345
   46MOL    H5413644   4.914   6.376   6.658 -2.4141  0.0695  0.9704
   46MOL    H5513645   5.003   6.492   6.553  1.0692  1.3784  1.1301
   46MOL    H5613646   4.595   6.522   6.699  0.5175  1.2655 -0.8185
   46MOL    H5713647   4.707   6.388   6.738  0.5210 -0.3869 -1.5427
   46MOL    H5813648   4.716   6.544   6.810 -0.2744 -1.4703  1.2283
   46MOL    H5913649   4.953   6.911   6.509 -1.2876  0.5695 -0.1055
   46MOL    H6013650   4.855   6.864   6.356 -0.1164 -0.7023 -0.0237
   46MOL    H6113651   5.029   6.823   6.373 -1.0472 -1.7489 -0.7435
   46MOL    C6213652   4.767   6.434   6.463  0.2972  0.4114 -0.2832
   46MOL    C6313653   4.624   6.415   6.399 -0.2103 -0.5939  0.6554
   46MOL    C6413654   4.529   6.328   6.489  0.5046 -0.5976  0.2610
   46MOL    C6513655   4.549   6.542   6.368  0.7500  0.1455 -0.0227
   46MOL    O6613656   4.433   6.555   6.393 -0.0797  0.0196  0.4147
   46MOL    O6713657   4.620   6.641   6.302 -0.5641 -0.1094  0.0311
   46MOL    C6813658   4.552   6.754   6.255 -0.0466 -0.3834  0.6559
   46MOL    H6913659   4.797   6.332   6.486  0.0759  0.3728 -0.1575
   46MOL    H7013660   4.830   6.471   6.383 -0.0664  0.2711 -0.6343
   46MOL    H7113661   4.443   6.277   6.448 -0.1634 -1.0130  2.1123
   46MOL    H7213662   4.585   6.243   6.527 -0.3365 -0.5792  1.5835
   46MOL    H7313663   4.491   6.389   6.572  1.0265  1.4654 -0.9695
   46MOL    H7413664   4.466   6.723   6.195  1.1567  1.9342 -2.3990
   46MOL    H7513665   4.621   6.810   6.191  0.6397 -1.2780  0.6108
   46MOL    H7613666   4.524   6.815   6.341  0.3374  1.5362 -0.5346
   46MOL    C7713667   4.647   6.329   6.266 -0.0854 -0.1668  0.2928
   46MOL    C7813668   4.543   6.307   6.146  0.2576 -0.3995 -0.6151
   46MOL    C7913669   4.398   6.278   6.195  0.1364 -0.5244 -0.4421
   46MOL    C8013670   4.537   6.436   6.059  1.8410 -0.0126 -0.4914
   46MOL    O8113671   4.433   6.502   6.032  0.0366 -0.5174 -0.7320
   46MOL    O8213672   4.647   6.464   5.998  0.8250 -0.8246  0.4576
   46MOL    C8313673   4.646   6.562   5.894 -0.2516  0.5091 -0.1087
   46MOL    H8413674   4.668   6.228   6.300 -0.1488  0.0529  0.9863
   46MOL    H8513675   4.742   6.362   6.224 -0.0496 -1.1114 -0.3931
   46MOL    H8613676   4.391   6.201   6.272  0.1005 -0.4122 -0.3337
   46MOL    H8713677   4.359   6.367   6.244 -1.3015 -0.7424 -1.1630
   46MOL    H8813678   4.315   6.267   6.125 -0.6185 -0.8954  0.5039
   46MOL    H8913679   4.567   6.533   5.825 -0.7980  0.8274  0.3853
   46MOL    H9013680   4.744   6.574   5.849 -0.2445  2.5273  0.3814
   46MOL    H9113681   4.607   6.658   5.929  0.0920  0.9680 -0.9623
   46MOL    C9213682   4.608   6.181   6.062  0.8655  0.4155  0.5788
   46MOL    C9313683   4.527   6.085   5.971  0.4967 -0.3114 -0.0732
   46MOL    C9413684   4.435   5.995   6.058  0.6465 -0.0121  0.1776
   46MOL    C9513685   4.444   6.150   5.862  1.0090 -0.2366 -0.3142
   46MOL    O9613686   4.325   6.138   5.843  0.9010  0.1884  0.3328
   46MOL    O9713687   4.521   6.234   5.793  0.6159  0.4668  0.4511
   46MOL    C9813688   4.491   6.291   5.668  0.6054  0.2415  0.6439
   46MOL    H9913689   4.661   6.113   6.129  1.4187  0.5079  0.2316
   46MOL   H10013690   4.697   6.218   6.011  1.8847 -1.1795  1.1675
   46MOL   H10113691   4.360   6.044   6.120 -2.0805 -3.7065 -0.0198
   46MOL   H10213692   4.389   5.925   5.988  0.7564  0.2519 -0.1558
   46MOL   H10313693   4.495   5.925   6.116 -0.5579 -0.7571  0.5419
   46MOL   H10413694   4.536   6.235   5.586 -2.4805 -3.3799  1.2634
   46MOL   H10513695   4.539   6.389   5.660 -0.1865  0.5294 -0.6389
   46MOL   H10613696   4.385   6.285   5.646  0.7561  1.7269 -0.5747
   46MOL   C10713697   4.635   5.994   5.907  0.4166 -0.4756 -0.0652
   46MOL   C10813698   4.616   5.873   5.804 -0.8123 -0.6591  0.3477
   46MOL   C10913699   4.567   5.744   5.889  0.1450  0.0566 -0.1250
   46MOL   C11013700   4.513   5.912   5.693 -0.3354 -0.3016 -0.1256
   46MOL   O11113701   4.540   5.996   5.606  0.5383 -0.1018  0.2165
   46MOL   O11213702   4.399   5.850   5.700  0.0164 -0.4972  0.3327
   46MOL   C11313703   4.309   5.853   5.590  0.1250  0.1221  0.7927
   46MOL   H11413704   4.683   5.949   5.995  0.9532 -0.2539 -0.2387
   46MOL   H11513705   4.709   6.059   5.861 -1.9014  0.9357 -1.8614
   46MOL   H11613706   4.489   5.761   5.963  1.2901 -0.1455  1.1605
   46MOL   H11713707   4.507   5.680   5.825  0.6114 -2.9775  2.3745
   46MOL   H11813708   4.642   5.683   5.940 -0.6589  0.9921  2.2234
   46MOL   H11913709   4.348   5.851   5.488  0.6682  4.2181  0.8117
   46MOL   H12013710   4.272   5.955   5.603 -0.5966  0.1149 -1.0316
   46MOL   H12113711   4.226   5.786   5.611 -0.3604  0.6469  0.5904
   46MOL   C12213712   4.757   5.837   5.739  0.0837 -0.8759 -0.7640
   46MOL   C12313713   4.788   5.707   5.662 -0.4104  0.5576 -0.8212
   46MOL   C12413714   4.791   5.578   5.750 -0.6208  0.5697 -0.4832
   46MOL   C12513715   4.679   5.678   5.551 -0.0982 -0.4406 -0.2303
   46MOL   O12613716   4.594   5.592   5.549 -0.3552  0.1954  0.3240
   46MOL   O12713717   4.683   5.783   5.462 -0.3891  0.0432  0.4766
   46MOL   C12813718   4.615   5.776   5.342  0.1379  0.2447 -0.0087
   46MOL   H12913719   4.826   5.850   5.822 -2.8141  0.4799  1.5573
   46MOL   H13013720   4.781   5.908   5.660 -0.3858  3.1440  2.5451
   46MOL   H13113721   4.842   5.499   5.695 -1.8400 -0.9925  0.5489
   46MOL   H13213722   4.839   5.603   5.845  2.7935  0.2552 -2.0732
   46MOL   H13313723   4.694   5.540   5.784 -0.2092  0.4894  0.6404
   46MOL   H13413724   4.637   5.677   5.302 -2.3773 -1.1033  1.8109
   46MOL   H13513725   4.655   5.837   5.261 -1.3811  0.2614 -0.7591
   46MOL   H13613726   4.508   5.783   5.361  0.1057 -0.1284 -0.0479
   46MOL   C13713727   4.936   5.715   5.586  0.1025 -0.0307  0.8556
   46MOL   C13813728   5.078   5.762   5.630  0.4857 -0.1728 -0.1959
   46MOL   C13913729   5.091   5.924   5.628 -0.1799  0.3022 -0.3689
   46MOL   C14013730   5.107   5.698   5.768 -0.1089 -0.1774  0.5350
   46MOL   O14113731   5.153   5.768   5.859 -0.5058  0.2255 -0.0356
   46MOL   O14213732   5.095   5.568   5.771 -0.4313 -0.5428 -0.2204
   46MOL   C14313733   5.125   5.498   5.888  0.0926 -0.0655  0.6079
   46MOL   H14413734   4.925   5.776   5.497  1.7470  2.0387  2.0206
   46MOL   H14513735   4.944   5.613   5.547 -1.8227  0.7481 -1.7447
   46MOL   H14613736   5.088   5.958   5.524  2.2765  0.8916 -0.2729
   46MOL   H14713737   5.004   5.977   5.666  1.1741  1.7093  0.8232
   46MOL   H14813738   5.171   5.964   5.690  0.3724 -0.3874 -0.6326
   46MOL   H14913739   5.032   5.473   5.939 -0.4149  0.5107 -0.0197
   46MOL   H15013740   5.190   5.553   5.956 -0.5372  0.6100  0.6631
   46MOL   H15113741   5.182   5.410   5.857 -0.0150 -0.9894  2.9163
   46MOL   C15213742   5.174   5.708   5.510  0.4984  0.1604 -0.0370
   46MOL   C15313743   5.331   5.697   5.521 -0.0589  0.6091 -0.0611
   46MOL   C15413744   5.387   5.828   5.581 -0.7282  0.1396 -0.3521
   46MOL   C15513745   5.379   5.588   5.617 -0.3228  0.2109  0.0287
   46MOL   O15613746   5.453   5.610   5.707 -0.6690  0.1842 -0.4050
   46MOL   O15713747   5.345   5.468   5.572 -0.1308  0.0206  0.0891
   46MOL   C15813748   5.392   5.352   5.648  0.8580 -0.0002  0.0329
   46MOL   H15913749   5.145   5.768   5.423 -1.6023  1.4959  1.5444
   46MOL   H16013750   5.151   5.608   5.473  0.3336 -0.2495  1.1559
   46MOL   H16113751   5.349   5.913   5.524 -2.0634 -0.4933 -0.4310
   46MOL   H16213752   5.335   5.845   5.675  1.7336 -0.5736  1.1790
   46MOL   H16313753   5.494   5.839   5.600 -0.7509  0.8417 -0.5882
   46MOL   H16413754   5.499   5.335   5.636  1.0549  0.2128  1.3631
   46MOL   H16513755   5.341   5.258   5.629 -1.3733  0.3889  3.5064
   46MOL   H16613756   5.379   5.383   5.752 -0.1060 -0.8695  0.1779
   46MOL   C16713757   5.390   5.667   5.375  0.5833 -0.7065 -0.6212
   46MOL   C16813758   5.549   5.679   5.338  0.8346  0.6549 -0.2460
   46MOL   C16913759   5.576   5.609   5.203 -0.0770  0.6964 -0.1371
   46MOL   C17013760   5.581   5.828   5.309  0.0509  0.2492 -0.9914
   46MOL   O17113761   5.643   5.895   5.391  0.1671  0.1647  0.1121
   46MOL   O17213762   5.541   5.869   5.188  0.2172  0.6377 -0.5673
   46MOL   C17313763   5.563   6.004   5.152  0.4824  0.2713  0.1732
   46MOL   H17413764   5.333   5.730   5.307 -2.1132 -2.4306 -0.0252
   46MOL   H17513765   5.343   5.574   5.343  1.3408 -1.0320 -0.8096
   46MOL   H17613766   5.488   5.613   5.139 -0.9206  0.7477  1.0352
   46MOL   H17713767   5.660   5.650   5.146  0.4675  0.1230  0.2420
   46MOL   H17813768   5.584   5.501   5.217 -0.7031  0.7328  0.4996
   46MOL   H17913769   5.552   6.070   5.237 -0.8086 -0.0603  0.2734
   46MOL   H18013770   5.509   6.033   5.062  0.7865  1.4833  0.3793
   46MOL   H18113771   5.670   5.997   5.130  0.6027 -0.8911  1.0764
   46MOL   C18213772   5.638   5.612   5.447  0.5463  0.4554  0.8939
   46MOL   C18313773   5.801   5.584   5.436  0.2686  0.2787  0.4026
   46MOL   C18413774   5.878   5.719   5.442 -0.3165 -0.0303  0.4910
   46MOL   C18513775   5.829   5.502   5.569  0.2074 -0.5706 -0.0106
   46MOL   O18613776   5.886   5.552   5.665  0.5833  0.4023  0.2700
   46MOL   O18713777   5.787   5.382   5.558 -1.1151 -0.2706  0.2612
   46MOL   C18813778   5.801   5.281   5.661 -0.6545  0.6648 -0.2266
   46MOL   H18913779   5.594   5.513   5.450  1.9151 -0.1193  2.5803
   46MOL   H19013780   5.627   5.663   5.543  1.0401 -0.2778  1.3407
   46MOL   H19113781   5.858   5.769   5.347  0.0032  0.5454  0.7260
   46MOL   H19213782   5.833   5.776   5.524 -0.0576 -2.1703  2.1624
   46MOL   H19313783   5.985   5.716   5.459 -0.0591  0.9561 -0.8480
   46MOL   H19413784   5.720   5.208   5.656  0.9281 -1.5800  3.8803
   46MOL   H19513785   5.799   5.327   5.760  0.7383  2.7254 -1.1317
   46MOL   H19613786   5.899   5.238   5.641 -0.3022  1.6447 -0.6373
   46MOL   C19713787   5.854   5.495   5.310 -0.9196  0.5672 -0.6894
   46MOL   C19813788   6.005   5.478   5.271  0.1665  0.2071  0.0433
   46MOL   C19913789   6.050   5.607   5.191 -0.3548  0.4573  0.0449
   46MOL   C20013790   6.102   5.459   5.390 -0.0019  0.2294 -0.0659
   46MOL   O20113791   6.205   5.523   5.396  0.3642 -0.3160 -0.3376
   46MOL   O20213792   6.082   5.343   5.460 -0.0616  0.2613  0.1393
   46MOL   C20313793   6.170   5.306   5.559 -0.9517 -0.0746 -0.8420
   46MOL   H20413794   5.805   5.535   5.221 -0.1416  0.3522 -1.2247
   46MOL   H20513795   5.809   5.396   5.320  1.0489 -0.1572  1.3942
   46MOL   H20613796   6.046   5.702   5.244  2.3540  1.8056 -2.0237
   46MOL   H20713797   6.147   5.601   5.143 -0.8077  0.7975 -0.9204
   46MOL   H20813798   5.978   5.624   5.111 -0.9744  0.6209  0.6303
   46MOL   H20913799   6.158   5.380   5.638  1.4315 -0.5817  0.0450
   46MOL   H21013800   6.273   5.303   5.524 -0.1579 -0.8234  1.4546
   46MOL   H21113801   6.146   5.208   5.602  1.0854  0.3852  1.4777
   46MOL   C21213802   6.035   5.365   5.164 -0.0849 -0.0404  0.3925
   46MOL   C21313803   5.958   5.227   5.140  0.9476 -0.3963 -0.6858
   46MOL   C21413804   5.958   5.148   5.273 -0.4260  0.5263 -0.0058
   46MOL   C21513805   5.817   5.262   5.097  0.3705  0.6882 -0.1433
   46MOL   O21613806   5.720   5.203   5.146 -0.5405 -0.3451 -0.0939
   46MOL   O21713807   5.809   5.360   5.001 -0.2503 -0.4651 -0.3459
   46MOL   C21813808   5.679   5.390   4.949  0.0647  0.2102 -0.5665
   46MOL   H21913809   6.139   5.333   5.174 -0.3535 -1.0987 -0.0669
   46MOL   H22013810   6.024   5.411   5.066 -0.0761  0.6130  0.7024
   46MOL   H22113811   5.914   5.198   5.359  1.2185 -1.8857  2.3127
   46MOL   H22213812   5.895   5.059   5.265 -0.8711  0.6561  1.7306
   46MOL   H22313813   6.056   5.113   5.305 -0.8771  0.6530  1.5780
   46MOL   H22413814   5.612   5.435   5.022  0.9214  1.5552 -0.6051
   46MOL   H22513815   5.623   5.308   4.904 -1.2631  1.3171 -0.9489
   46MOL   H22613816   5.687   5.468   4.874 -1.2378  1.8523  0.9645
   46MOL   C22713817   6.030   5.158   5.027  0.6843 -0.5213 -0.8430
   46MOL   C22813818   6.004   5.006   4.988  0.1946  0.2579 -0.5549
   46MOL   C22913819   6.093   4.922   5.086  0.9257 -0.1605 -0.3044
   46MOL   C23013820   5.852   4.968   5.001  0.6386 -0.5712 -0.3415
   46MOL   O23113821   5.807   4.910   5.099 -0.2780 -0.2453  0.1758
   46MOL   O23213822   5.779   5.011   4.895  0.0675  0.1391  0.1338
   46MOL   C23313823   5.637   5.003   4.887  0.3699 -0.4429  0.1330
   46MOL   H23413824   6.136   5.165   5.051  0.2678  0.1205  0.8939
   46MOL   H23513825   6.016   5.216   4.936 -0.9614 -0.0198 -0.2813
   46MOL   H23613826   6.081   4.816   5.065 -5.6154  0.1333  1.0574
   46MOL   H23713827   6.198   4.945   5.066  0.6320  0.1126 -1.6515
   46MOL   H23813828   6.076   4.927   5.193  1.1998 -1.1594 -0.2048
   46MOL   H23913829   5.589   5.055   4.969 -2.1092 -3.7013  0.8732
   46MOL   H24013830   5.615   4.898   4.905  1.2584 -1.0282 -1.9818
   46MOL   H24113831   5.608   5.039   4.788 -1.9856 -0.9785  0.5801
   46MOL   C24213832   6.061   4.990   4.838  0.4953  0.1436 -0.5345
   46MOL   C24313833   6.095   4.849   4.764  0.1298  0.1553  0.1968
   46MOL   C24413834   6.244   4.816   4.800  0.4215  0.4381 -0.4659
   46MOL   C24513835   5.993   4.735   4.815 -1.1550  0.4432 -0.7788
   46MOL   O24613836   6.028   4.631   4.880  0.1585  0.2714 -0.1533
   46MOL   O24713837   5.870   4.758   4.774 -0.4910  0.0580  0.2710
   46MOL   C24813838   5.767   4.660   4.778  0.0309 -0.1553  0.4028
   46MOL   H24913839   6.152   5.049   4.837  0.1639  0.6863  0.6220
   46MOL   H25013840   5.989   5.049   4.780 -1.4190 -1.6481 -0.0257
   46MOL   H25113841   6.287   4.729   4.749 -0.5495 -0.3206 -0.0130
   46MOL   H25213842   6.313   4.894   4.767  0.4215  0.3814 -0.6031
   46MOL   H25313843   6.278   4.806   4.903 -1.0782 -2.5941 -0.2070
   46MOL   H25413844   5.713   4.675   4.685  1.7773  2.1802 -0.2746
   46MOL   H25513845   5.703   4.669   4.865  0.9657  1.9214  0.9063
   46MOL   H25613846   5.796   4.557   4.757  0.0264 -0.2813  1.0107
   46MOL   C25713847   6.080   4.875   4.611  0.0602  0.3052 -0.3913
   46MOL   C25813848   6.150   4.793   4.498 -0.3878 -0.4525 -0.0868
   46MOL   C25913849   6.293   4.838   4.473  0.2364 -0.0531 -0.2134
   46MOL   C26013850   6.145   4.632   4.515  0.0140 -0.4074  0.0641
   46MOL   O26113851   6.044   4.581   4.564  0.5006  0.3896  0.2386
   46MOL   O26213852   6.257   4.559   4.475  0.3049 -0.1501  0.0526
   46MOL   C26313853   6.276   4.426   4.528 -0.2053  0.2037 -0.5993
   46MOL   H26413854   6.097   4.981   4.594 -3.2147  0.7222 -1.5206
   46MOL   H26513855   5.973   4.874   4.592  0.3559 -2.7240 -2.3670
   46MOL   H26613856   6.358   4.801   4.394 -0.4208 -0.4765 -0.5650
   46MOL   H26713857   6.306   4.946   4.466 -2.6063  0.5119  1.9522
   46MOL   H26813858   6.354   4.802   4.556  1.2009  0.6925 -0.5902
   46MOL   H26913859   6.371   4.378   4.504 -0.2553 -0.8297  1.1720
   46MOL   H27013860   6.191   4.368   4.491 -0.6483  0.3412  0.2042
   46MOL   H27113861   6.247   4.435   4.632  0.1175  2.0591 -0.6580
   46MOL   C27213862   6.086   4.837   4.359 -0.6546 -0.5626 -0.7578
   46MOL   C27313863   5.924   4.843   4.333 -0.0880 -0.8918  0.0547
   46MOL   C27413864   5.845   4.721   4.388 -0.0154 -0.1154  0.3937
   46MOL   C27513865   5.869   4.975   4.395  0.6760 -0.0831  0.3992
   46MOL   O27613866   5.768   4.972   4.464  0.3115 -0.1079  0.0129
   46MOL   O27713867   5.941   5.078   4.366 -0.2746 -0.1887  0.0741
   46MOL   C27813868   5.897   5.204   4.419  0.1872  0.2705 -0.2588
   46MOL   H27913869   6.132   4.768   4.288  0.9318 -0.5127  0.2026
   46MOL   H28013870   6.124   4.935   4.330 -2.6856 -0.3111 -2.7337
   46MOL   H28113871   5.853   4.735   4.496  2.2677 -0.4257  0.2744
   46MOL   H28213872   5.738   4.724   4.368 -0.1260  2.2327  1.1135
   46MOL   H28313873   5.888   4.629   4.351  0.3476  0.4251 -0.5444
   46MOL   H28413874   5.804   5.239   4.374 -0.7041  0.0726  1.3890
   46MOL   H28513875   5.967   5.287   4.413  0.4235 -0.0025 -1.4414
   46MOL   H28613876   5.876   5.193   4.525  0.0954 -0.4847 -0.3522
   46MOL   C28713877   5.907   4.855   4.175  0.5066 -0.1551  0.4276
   46MOL   C28813878   5.787   4.923   4.112 -0.3799 -1.1472  0.0156
   46MOL   C28913879   5.805   4.911   3.964  0.5478  0.9490  0.3737
   46MOL   C29013880   5.652   4.862   4.152  0.5311  0.4387 -0.5415
   46MOL   O29113881   5.555   4.927   4.201 -0.3591 -0.0411 -0.4423
   46MOL   O29213882   5.649   4.731   4.124  0.6130  0.2577 -0.1300
   46MOL   C29313883   5.540   4.655   4.147 -0.0781  0.0693  0.2839
   46MOL   H29413884   5.909   4.751   4.143  1.3976  0.8476 -2.9385
   46MOL   H29513885   5.997   4.900   4.134  1.9108 -2.6110  0.7777
   46MOL   H29613886   5.809   4.806   3.936 -2.2341  1.5083 -2.4735
   46MOL   H29713887   5.715   4.962   3.928  0.2958  0.4953  0.3589
   46MOL   H29813888   5.897   4.965   3.940  0.2122  0.5103 -2.0402
   46MOL   H29913889   5.450   4.714   4.165 -0.0051  0.3294 -0.1854
   46MOL   H30013890   5.565   4.588   4.230 -0.2621  3.0601  2.8302
   46MOL   H30113891   5.517   4.598   4.057 -0.1470  1.3645 -0.5339
   46MOL   H30213892   5.796   5.025   4.151 -2.4214 -0.4846 -1.1508
   47MOL     C113893   0.438   7.431   7.804 -0.2640  1.3670  0.8317
   47MOL     C213894   0.320   7.352   7.744 -0.0428 -0.5503 -0.0201
   47MOL     C313895   0.363   7.352   7.593  0.0048 -0.0163  0.1273
   47MOL     C413896   0.319   7.202   7.792 -0.3440  0.3372 -0.9892
   47MOL     O513897   0.403   7.158   7.872 -0.0527  0.2015  0.1442
   47MOL     O613898   0.224   7.122   7.730  0.0614  0.2122  0.6986
   47MOL     C713899   0.213   6.988   7.758  0.0048 -0.4295  0.5318
   47MOL     H813900   0.429   7.440   0.035  0.0262 -0.3982  1.0066
   47MOL     H913901   0.533   7.380   7.785 -2.2249 -2.9578  2.1208
   47MOL    H1013902   0.462   7.309   7.579  0.2577  0.5892  0.0581
   47MOL    H1113903   0.283   7.311   7.531 -0.8620 -0.0067  1.2161
   47MOL    H1213904   0.364   7.456   7.562  0.9789 -0.6448 -2.0170
   47MOL    H1313905   0.305   6.932   7.747 -0.9470 -1.7377 -0.9214
   47MOL    H1413906   0.152   6.938   7.684 -0.2177  0.5934  0.0082
   47MOL    H1513907   0.161   6.971   7.853  0.6192  0.3472  1.0128
   47MOL    H1613908   0.460   7.530   7.764 -0.3022 -0.0880 -3.0218
   47MOL    C1713909   0.183   7.430   7.770 -0.2775  0.5155 -0.0293
   47MOL    C1813910   0.112   7.440   0.041  0.2573  0.3706  0.4001
   47MOL    C1913911   0.088   7.303   0.107 -0.2815 -0.4167  0.6732
   47MOL    C2013912   0.209   7.515   0.137  0.4326 -0.0276  0.0603
   47MOL    O2113913   0.254   7.468   0.246 -0.2276 -0.0130 -0.0262
   47MOL    O2213914   0.247   7.633   0.090 -0.4922 -0.2164 -0.6197
   47MOL    C2313915   0.352   7.702   0.144  0.0232 -0.0059  0.2145
   47MOL    H2413916   0.101   7.386   7.713 -0.4540 -0.0321  0.6323
   47MOL    H2513917   0.195   7.523   7.715  1.2634  0.3191 -0.0567
   47MOL    H2613918   0.183   7.252   0.122 -0.5191 -1.1791 -0.3770
   47MOL    H2713919   0.043   7.323   0.204 -1.1910  3.4565 -0.4455
   47MOL    H2813920   0.018   7.237   0.057  1.0913 -1.9141  0.6693
   47MOL    H2913921   0.334   7.723   0.250 -0.2060 -1.2951  0.4318
   47MOL    H3013922   0.362   7.801   0.100  0.4352 -0.0419  0.2323
   47MOL    H3113923   0.446   7.647   0.142  0.6026  0.9768  0.1729
   47MOL    C3213924   7.860   7.536   0.031 -1.0318 -0.4107  0.7756
   47MOL    C3313925   7.714   7.491   7.874  0.4482  0.0093  0.4869
   47MOL    C3413926   7.711   7.403   7.742 -0.7599  0.4815 -0.0075
   47MOL    C3513927   7.653   7.402   0.114 -0.2346 -0.4372  0.2017
   47MOL    O3613928   7.593   7.300   0.085  0.1287 -0.6170  0.4040
   47MOL    O3713929   7.668   7.453   0.242 -0.0138  0.1233 -0.4544
   47MOL    C3813930   7.649   7.365   0.352  0.1947 -0.2533 -0.1193
   47MOL    H3913931   7.873   7.622   7.842 -0.4053 -0.8741  0.2942
   47MOL    H4013932   7.849   7.589   0.125  1.7704  1.4688  0.1145
   47MOL    H4113933   7.612   7.365   7.719  0.4769 -1.5040 -2.4069
   47MOL    H4213934   7.764   7.458   7.663  0.2402  1.5204  1.3673
   47MOL    H4313935   7.760   7.305   7.742  0.7346  1.2008  1.8479
   47MOL    H4413936   7.544   7.343   0.371  0.1767 -2.8655 -2.8724
   47MOL    H4513937   7.671   7.414   0.447  1.3632  0.3039 -0.6623
   47MOL    H4613938   7.704   7.271   0.350 -0.0903 -0.4009 -2.9035
   47MOL    C4713939   7.608   7.601   7.840  0.7897 -0.2396 -0.3947
   47MOL    C4813940   7.552   7.714   0.058  0.6603 -0.0137  0.2309
   47MOL    C4913941   7.447   7.664   0.153 -0.1276  0.2795 -0.0749
   47MOL    C5013942   7.672   7.779   0.141 -0.0241  0.5932  0.1083
   47MOL    O5113943   7.668   7.783   0.263  0.4673  0.0919  0.8557
   47MOL    O5213944   7.770   7.832   0.071 -0.1525 -0.2513  0.0381
   47MOL    C5313945   0.008   0.014   0.128  0.1779 -0.1491  0.3397
   47MOL    H5413946   7.519   7.555   7.799 -0.1132 -0.8247  2.0979
   47MOL    H5513947   7.659   7.655   7.760  1.0495 -0.0976 -0.1371
   47MOL    H5613948   7.479   7.657   0.257  0.9486 -1.2372 -0.4937
   47MOL    H5713949   7.346   7.706   0.153 -0.8328 -1.3699 -1.3553
   47MOL    H5813950   7.430   7.560   0.128 -0.7023  0.5082 -0.6313
   47MOL    H5913951   0.003   0.013   0.237  0.2907  0.5495  0.3567
   47MOL    H6013952   0.027   0.113   0.087 -0.8409 -1.0562 -2.4944
   47MOL    H6113953   0.099   7.843   0.095 -0.0790 -0.9304  0.7757
   47MOL    C6213954   7.493   7.824   7.835 -0.4366  0.0982  0.4822
   47MOL    C6313955   7.427   0.085   0.001 -0.0020 -0.6883  0.0609
   47MOL    C6413956   7.366   0.095   0.141  0.2453 -0.4417 -0.3534
   47MOL    C6513957   7.542   0.185   7.866 -0.9078 -0.8124 -0.5889
   47MOL    O6613958   7.590   0.222   7.759 -0.0016  0.6249 -1.0100
   47MOL    O6713959   7.594   0.224   0.103 -0.2284 -0.4643  0.2333
   47MOL    C6813960   7.688   0.335   0.100  0.0323 -1.1378  0.1120
   47MOL    H6913961   7.412   7.766   7.789  0.0866 -0.5167  0.3251
   47MOL    H7013962   7.553   7.844   7.746 -1.6231  0.5184 -0.2462
   47MOL    H7113963   7.352   0.196   0.180  2.7276 -0.7410  1.4187
   47MOL    H7213964   7.278   0.033   0.158 -0.1952 -0.3282 -2.0750
   47MOL    H7313965   7.443   0.071   0.214 -0.4249  1.9403  1.1880
   47MOL    H7413966   7.648   0.418   0.042  2.1208 -0.5820 -0.5532
   47MOL    H7513967   7.789   0.305   0.072  0.0184 -0.2756 -0.8916
   47MOL    H7613968   7.686   0.379   0.200 -2.1748 -1.4970  0.2678
   47MOL    C7713969   7.327   0.138   7.765 -1.2296  0.5258  0.3127
   47MOL    C7813970   7.176   0.092   7.752 -0.0357  0.2264  0.5589
   47MOL    C7913971   7.161   7.811   7.775 -0.1422 -0.2534  0.3184
   47MOL    C8013972   7.082   0.163   7.850 -0.2031 -0.6608  0.0648
   47MOL    O8113973   7.118   0.258   0.040  0.5084 -0.9689 -0.3334
   47MOL    O8213974   6.959   0.112   7.861  0.0659  0.1616  0.1156
   47MOL    C8313975   6.885   0.158   0.105 -0.4829 -0.8945 -0.1283
   47MOL    H8413976   7.382   0.120   7.673 -0.0780 -3.6493  1.6928
   47MOL    H8513977   7.328   0.247   7.757 -0.5537  0.4588 -0.5145
   47MOL    H8613978   7.058   7.779   7.795  0.2249 -2.4238 -1.0900
   47MOL    H8713979   7.200   7.756   7.690  2.4081  2.2859 -0.2383
   47MOL    H8813980   7.215   7.778   7.863  1.5719  2.0487  0.1906
   47MOL    H8913981   6.807   0.082   0.107 -0.2219 -1.1835 -0.6587
   47MOL    H9013982   6.840   0.252   0.076  0.2914  0.0104  1.5337
   47MOL    H9113983   6.940   0.165   0.200  1.0877 -0.4504 -1.0491
   47MOL    C9213984   7.123   0.102   7.598 -0.0290 -0.1306 -0.7607
   47MOL    C9313985   7.091   0.233   7.516  0.0494 -0.5308 -0.1168
   47MOL    C9413986   7.130   0.201   7.366 -0.4333 -0.3300  0.7806
   47MOL    C9513987   6.941   0.255   7.519 -0.8072  0.6876 -0.0502
   47MOL    O9613988   6.880   0.263   7.413  0.2251 -0.3336  0.0936
   47MOL    O9713989   6.886   0.265   7.640  0.4787  0.2474 -0.0605
   47MOL    C9813990   6.747   0.297   7.650 -0.0673 -0.6334 -0.4339
   47MOL    H9913991   7.029   0.047   7.595 -0.9433  1.3480  0.0444
   47MOL   H10013992   7.202   0.051   7.542 -0.3334 -1.6536  0.1350
   47MOL   H10113993   7.102   0.274   7.290 -1.7667 -1.2025  0.4108
   47MOL   H10213994   7.232   0.168   7.349 -0.9748 -2.2464  1.1866
   47MOL   H10313995   7.075   0.115   7.328 -1.0693  0.0858  0.7523
   47MOL   H10413996   6.689   0.234   7.718 -0.6631 -0.9995 -1.2788
   47MOL   H10513997   6.690   0.293   7.557 -0.9602 -0.2640  0.0886
   47MOL   H10613998   6.723   0.394   7.692  0.6304 -0.1767 -1.0884
   47MOL   C10713999   7.168   0.355   7.566  0.0590 -0.5981  0.6408
   47MOL   C10814000   7.153   0.505   7.529  0.3574 -0.0191 -0.0716
   47MOL   C10914001   7.093   0.527   7.382 -0.2501 -0.2786 -0.2478
   47MOL   C11014002   7.030   0.563   7.623 -0.0780 -0.2768  0.2337
   47MOL   O11114003   6.937   0.623   7.564 -0.2151 -0.1626 -0.1025
   47MOL   O11214004   7.040   0.544   7.754  1.1690  0.4285 -0.0515
   47MOL   C11314005   6.942   0.609   7.842  1.3331  0.4535 -0.3415
   47MOL   H11414006   7.273   0.334   7.547  0.2880  2.0386 -1.4127
   47MOL   H11514007   7.152   0.347   7.673 -1.8227 -2.7472  0.2344
   47MOL   H11614008   7.163   0.498   7.303 -0.8908  1.4903 -1.4885
   47MOL   H11714009   6.995   0.482   7.368  0.5487 -2.2939  0.4211
   47MOL   H11814010   7.085   0.634   7.363  0.9524 -0.0858  0.2906
   47MOL   H11914011   6.839   0.585   7.816  1.5167 -1.2469  0.4111
   47MOL   H12014012   6.957   0.717   7.847 -0.1197  0.6433 -0.0569
   47MOL   H12114013   6.959   0.563   0.062 -0.6465 -1.5020 -0.9027
   47MOL   C12214014   7.274   0.597   7.551  0.0504  0.2907 -0.2203
   47MOL   C12314015   7.396   0.607   7.451  0.0897  0.5207 -0.0880
   47MOL   C12414016   7.434   0.463   7.409  0.8429  0.1116 -0.1016
   47MOL   C12514017   7.350   0.697   7.328 -0.2150 -0.6603 -0.5088
   47MOL   O12614018   7.360   0.652   7.214  0.2174 -0.2576  0.3670
   47MOL   O12714019   7.306   0.824   7.351 -0.1510  0.3140  0.1041
   47MOL   C12814020   7.241   0.900   7.245  0.4945  0.1195  0.2462
   47MOL   H12914021   7.319   0.569   7.647 -0.6518  0.9671  0.3113
   47MOL   H13014022   7.245   0.697   7.581 -0.8415  0.0317 -0.1915
   47MOL   H13114023   7.514   0.466   7.336  1.6264 -1.5541  0.6754
   47MOL   H13214024   7.469   0.401   7.492 -1.6321 -0.2463  0.7415
   47MOL   H13314025   7.354   0.414   7.354 -0.7452 -0.0912  2.2913
   47MOL   H13414026   7.314   0.937   7.173 -1.2954  0.7771 -1.2674
   47MOL   H13514027   7.182   0.981   7.287  1.7002  2.1824 -1.8626
   47MOL   H13614028   7.172   0.831   7.196  4.0442 -2.9209 -0.7164
   47MOL   C13714029   7.510   0.674   7.536 -0.6523  0.2826 -0.8050
   47MOL   C13814030   7.641   0.749   7.483  0.1800  0.2746  0.0023
   47MOL   C13914031   7.724   0.784   7.608 -0.0169  0.5621 -0.3932
   47MOL   C14014032   7.714   0.649   7.385 -0.4116  0.8387 -0.3661
   47MOL   O14114033   7.696   0.664   7.265 -0.8041  0.1820 -0.2045
   47MOL   O14214034   7.788   0.550   7.440  0.0086  0.1106 -0.0721
   47MOL   C14314035   0.000   0.472   7.352 -0.4535 -0.1393  0.2245
   47MOL   H14414036   7.552   0.597   7.600  0.9447  0.6597 -1.3617
   47MOL   H14514037   7.476   0.738   7.617  0.0221 -0.2625 -0.0797
   47MOL   H14614038   7.667   0.856   7.668  0.5502 -0.0048  0.8584
   47MOL   H14714039   7.752   0.702   7.674 -1.5606  1.1321  1.0430
   47MOL   H14814040   7.813   0.834   7.571  0.1971  0.8593  0.4992
   47MOL   H14914041   0.070   0.420   7.419  0.0996  0.8397  0.4166
   47MOL   H15014042   0.053   0.523   7.272  0.9507 -0.9335  0.6140
   47MOL   H15114043   7.816   0.391   7.313 -0.1531 -0.3179  0.1143
   47MOL   C15214044   7.599   0.890   7.411 -0.1320  0.9783 -0.0267
   47MOL   C15314045   7.690   1.012   7.377 -0.5064 -0.5672  0.6608
   47MOL   C15414046   7.830   0.963   7.334 -0.8139  0.6336  0.1405
   47MOL   C15514047   7.625   1.088   7.254 -0.3891  0.0129  0.2994
   47MOL   O15614048   7.686   1.119   7.150  0.0913 -0.3488  0.4837
   47MOL   O15714049   7.496   1.114   7.276  0.1782 -0.6027  0.0669
   47MOL   C15814050   7.421   1.188   7.180  0.3871  0.5238  0.5255
   47MOL   H15914051   7.506   0.935   7.446 -1.5125 -1.3406 -0.5735
   47MOL   H16014052   7.570   0.872   7.307 -0.4630 -0.1506  0.2477
   47MOL   H16114053   0.021   0.912   7.401  1.3481  0.3569 -2.2064
   47MOL   H16214054   7.823   0.893   7.251  1.8982  0.7432 -0.2340
   47MOL   H16314055   0.007   1.046   7.288  1.3627 -1.2358 -0.7864
   47MOL   H16414056   7.480   1.271   7.141  0.7635  0.3002  0.6216
   47MOL   H16514057   7.330   1.223   7.229 -0.7620 -0.6216 -0.7518
   47MOL   H16614058   7.386   1.132   7.093 -1.2597  1.1408  0.7676
   47MOL   C16714059   7.698   1.113   7.497 -0.6757 -0.5197 -0.3426
   47MOL   C16814060   7.792   1.240   7.513  0.4445  0.1201 -0.9311
   47MOL   C16914061   0.061   1.188   7.516  0.9996  0.0190 -0.1672
   47MOL   C17014062   7.774   1.345   7.401 -0.5798  0.4601  0.0084
   47MOL   O17114063   7.663   1.389   7.367  0.1757  0.7939 -0.7732
   47MOL   O17214064   0.010   1.394   7.350 -0.4481 -0.0168 -0.3656
   47MOL   C17314065   0.009   1.486   7.238 -0.3628  0.2847  0.7670
   47MOL   H17414066   7.719   1.053   7.586  1.8833  2.3555  1.0750
   47MOL   H17514067   7.597   1.152   7.511 -0.1071  0.0722  2.3288
   47MOL   H17614068   0.075   1.101   7.581 -0.4402  0.4438  0.7348
   47MOL   H17714069   0.106   1.150   7.425 -1.6202 -1.1695 -1.0150
   47MOL   H17814070   0.130   1.265   7.550 -1.3834  1.5962  1.2889
   47MOL   H17914071   7.843   1.449   7.145 -0.9232 -0.0942  1.1761
   47MOL   H18014072   0.107   1.528   7.214  0.5778 -1.2008  1.8790
   47MOL   H18114073   7.842   1.581   7.267  1.1772  0.9065  1.1655
   47MOL   C18214074   7.775   1.316   7.650  0.1232  0.0216 -0.2678
   47MOL   C18314075   7.644   1.377   7.716  0.7712  0.4976  0.5763
   47MOL   C18414076   7.538   1.432   7.616 -0.4449  0.3897  0.6580
   47MOL   C18514077   7.560   1.275   7.796  0.1005 -0.6150 -0.4917
   47MOL   O18614078   7.490   1.309   0.015 -0.2137  0.3755 -0.2761
   47MOL   O18714079   7.565   1.147   7.748  0.9361 -0.3452  0.0099
   47MOL   C18814080   7.484   1.055   7.816 -0.4794 -0.0586  0.6418
   47MOL   H18914081   7.846   1.399   7.647  0.7070 -0.4581  0.1197
   47MOL   H19014082   7.810   1.244   7.723 -0.6736 -1.4968 -1.3639
   47MOL   H19114083   7.508   1.359   7.541  0.2497 -1.3546  2.0438
   47MOL   H19214084   7.450   1.460   7.673 -1.3848  0.0429 -0.5908
   47MOL   H19314085   7.579   1.520   7.566 -2.6610 -0.2817 -2.4816
   47MOL   H19414086   7.389   1.063   7.763  0.8896 -0.8955 -2.0251
   47MOL   H19514087   7.481   1.051   0.047  0.2589  0.7196  0.6956
   47MOL   H19614088   7.505   0.952   7.788 -0.3412  0.0027  0.5237
   47MOL   C19714089   7.669   1.503   7.799 -0.5422 -0.4620 -0.1362
   47MOL   C19814090   7.784   1.494   0.038  0.2155 -0.3009  0.3080
   47MOL   C19914091   7.796   1.358   0.118  0.7308 -0.6411  0.8524
   47MOL   C20014092   0.047   1.536   7.854 -0.0896 -0.5994 -0.0976
   47MOL   O20114093   0.138   1.456   7.860 -0.1228  0.0916 -0.0133
   47MOL   O20214094   0.046   1.654   7.792 -0.1530 -0.6825  0.7562
   47MOL   C20314095   0.173   1.690   7.733 -0.8957  0.1703  0.1079
   47MOL   H20414096   7.575   1.540   7.840 -0.2734  0.7399 -0.6100
   47MOL   H20514097   7.698   1.577   7.725  2.0590 -1.6617 -0.3976
   47MOL   H20614098   7.697   1.332   0.156  0.2149  0.8911  0.5928
   47MOL   H20714099   7.838   1.279   0.057  1.0700 -1.0829  1.6483
   47MOL   H20814100   7.869   1.372   0.198  0.2150 -0.2638  1.2650
   47MOL   H20914101   0.189   1.642   7.636  1.1855 -0.5950  0.8021
   47MOL   H21014102   0.264   1.654   7.782  0.9528  2.4140 -1.5412
   47MOL   H21114103   0.183   1.794   7.700  1.7871 -0.3495 -0.8589
   47MOL   C21214104   7.762   1.618   0.139 -0.2566 -0.2026  0.0485
   47MOL   C21314105   7.663   1.622   0.268 -0.5009 -0.6346 -0.1070
   47MOL   C21414106   7.529   1.577   0.217  0.5345 -0.1545  0.0310
   47MOL   C21514107   7.712   1.526   0.380  0.8074  0.5623 -0.5649
   47MOL   O21614108   7.823   1.485   0.400 -0.4679 -0.0508 -0.1553
   47MOL   O21714109   7.602   1.497   0.453 -0.5884  0.3590 -0.3978
   47MOL   C21814110   7.606   1.414   0.565 -0.4572  0.5767 -0.0111
   47MOL   H21914111   7.741   1.711   0.085  0.4498 -0.4940 -0.7423
   47MOL   H22014112   7.861   1.627   0.184  0.4889 -1.8736 -1.1818
   47MOL   H22114113   7.446   1.603   0.283  1.1267  1.4554  0.1833
   47MOL   H22214114   7.508   1.637   0.129  0.6092 -1.2148 -0.7051
   47MOL   H22314115   7.540   1.471   0.198  0.6987 -0.1044 -0.1471
   47MOL   H22414116   7.516   1.426   0.624 -1.4623  2.2239 -1.8202
   47MOL   H22514117   7.690   1.441   0.629 -0.3527  1.7788 -0.6345
   47MOL   H22614118   7.603   1.312   0.528 -1.2893 -0.0290  1.6806
   47MOL   C22714119   7.631   1.764   0.331 -0.4133  0.0004 -0.0831
   47MOL   C22814120   7.737   1.853   0.415 -0.2564  0.0966 -0.1566
   47MOL   C22914121   7.770   1.789   0.550 -0.9015 -0.6570  0.4198
   47MOL   C23014122   7.872   1.876   0.338  0.3801  0.2343  0.3244
   47MOL   O23114123   7.872   1.883   0.218  0.2030 -0.2004  0.2188
   47MOL   O23214124   0.108   1.869   0.415  0.2431  0.0547 -0.1590
   47MOL   C23314125   0.233   1.894   0.363 -0.2636 -0.0901  0.0535
   47MOL   H23414126   7.540   1.750   0.389 -0.6795 -1.6009 -0.8654
   47MOL   H23514127   7.619   1.833   0.247  2.4488  0.9555  0.2278
   47MOL   H23614128   7.836   1.848   0.613 -0.3183 -1.6689  0.7640
   47MOL   H23714129   7.683   1.744   0.598 -0.6209 -0.8336  0.7706
   47MOL   H23814130   7.831   1.699   0.538  1.9862  1.5893 -2.6070
   47MOL   H23914131   0.269   1.991   0.397 -0.4524 -0.0560  0.1559
   47MOL   H24014132   0.227   1.892   0.254 -0.0846  0.0009  0.0412
   47MOL   H24114133   0.306   1.823   0.402 -2.2589 -1.0228  2.1218
   47MOL   C24214134   7.658   1.988   0.440 -0.1223  0.4621 -0.0384
   47MOL   C24314135   7.730   2.130   0.462  0.5592  0.0566 -0.5356
   47MOL   C24414136   7.610   2.214   0.512  0.3738  0.4404 -0.0967
   47MOL   C24514137   7.831   2.114   0.577 -0.1405  0.0848 -0.2549
   47MOL   O24614138   0.077   2.130   0.571 -0.5962 -0.3418  0.5062
   47MOL   O24714139   7.773   2.086   0.690 -0.4044  0.4925 -0.0618
   47MOL   C24814140   7.846   2.082   0.807 -0.4995  0.1417 -0.7293
   47MOL   H24914141   7.584   1.965   0.517 -1.5840  0.2191 -1.5001
   47MOL   H25014142   7.603   2.010   0.349 -0.7403  0.7434  0.4017
   47MOL   H25114143   7.548   2.178   0.594  1.1439  1.0640  0.7766
   47MOL   H25214144   7.635   2.316   0.541 -0.6883  0.6692  0.0174
   47MOL   H25314145   7.550   2.218   0.421 -0.3250 -0.3240  0.3337
   47MOL   H25414146   0.023   1.988   0.814 -2.5465 -1.1476 -1.5247
   47MOL   H25514147   7.768   2.091   0.883 -0.1290  0.4461 -0.3837
   47MOL   H25614148   0.022   2.176   0.817  1.0693 -0.8071 -0.1354
   47MOL   C25714149   7.790   2.178   0.324 -0.1547 -0.2597 -0.1659
   47MOL   C25814150   7.778   2.322   0.264 -0.2770 -0.5964 -0.3910
   47MOL   C25914151   7.625   2.353   0.213 -0.2991  0.2207 -0.4771
   47MOL   C26014152   7.812   2.428   0.375  0.6543 -0.1419  0.2975
   47MOL   O26114153   7.732   2.508   0.422 -0.4897  0.0989 -0.1552
   47MOL   O26214154   0.064   2.416   0.406 -0.1592  0.5012 -0.2310
   47MOL   C26314155   0.119   2.516   0.487  0.1065 -0.0505 -0.0962
   47MOL   H26414156   7.754   2.102   0.254  2.3109  0.5336 -2.3628
   47MOL   H26514157   0.020   2.162   0.331 -0.2701 -1.7900 -1.6480
   47MOL   H26614158   7.613   2.405   0.118 -0.8235 -1.7012 -1.4905
   47MOL   H26714159   7.567   2.262   0.199 -1.5898  0.3217  3.4420
   47MOL   H26814160   7.572   2.423   0.279  0.0713 -0.1377  0.1983
   47MOL   H26914161   0.069   2.537   0.581  0.2683 -2.3216  0.5123
   47MOL   H27014162   0.134   2.611   0.435 -1.5672  1.0263  1.3203
   47MOL   H27114163   0.211   2.489   0.539  0.6207  0.9598 -0.4503
   47MOL   C27214164   7.870   2.326   0.141  1.0904 -0.5939 -0.0338
   47MOL   C27314165   0.045   2.460   0.074 -0.3243  0.4254 -0.1369
   47MOL   C27414166   7.807   2.567   0.061  0.0884  0.3776 -0.4285
   47MOL   C27514167   0.167   2.524   0.139  0.4657  0.3159  0.2546
   47MOL   O27614168   0.168   2.646   0.169 -0.0993 -0.0888 -0.3964
   47MOL   O27714169   0.273   2.433   0.159  0.0078 -0.2054 -0.3779
   47MOL   C27814170   0.388   2.481   0.221 -1.1769  0.5672 -1.0064
   47MOL   H27914171   7.822   2.262   0.067 -0.2786  2.5748 -1.9810
   47MOL   H28014172   0.087   2.275   0.162 -0.0876 -2.8609 -0.1188
   47MOL   H28114173   7.840   2.663   0.019  1.4088  0.7548  1.4040
   47MOL   H28214174   7.729   2.534   7.870 -0.9861 -1.3702  1.5746
   47MOL   H28314175   7.758   2.595   0.154 -0.4300 -4.1908  0.7751
   47MOL   H28414176   0.442   2.545   0.152  1.8814  0.6124  1.3417
   47MOL   H28514177   0.461   2.409   0.256 -0.6421  1.4680 -0.2590
   47MOL   H28614178   0.354   2.531   0.311  1.0593  2.1370 -0.9967
   47MOL   C28714179   0.086   2.423   7.809 -0.3151  0.4673  0.0908
   47MOL   C28814180   0.149   2.523   7.711 -0.7324  0.0641  0.3348
   47MOL   C28914181   0.238   2.454   7.608 -0.3181 -0.2466 -0.4735
   47MOL   C29014182   0.043   2.605   7.636  0.0851  0.2554  0.0933
   47MOL   O29114183   7.799   2.578   7.625 -0.7374  0.7590 -0.7630
   47MOL   O29214184   0.101   2.722   7.605 -0.1787  0.1249  0.3238
   47MOL   C29314185   0.035   2.835   7.545 -0.4954 -0.0290  1.1252
   47MOL   H29414186   0.002   2.376   7.757  0.4641 -0.4827 -0.3354
   47MOL   H29514187   0.164   2.348   7.820 -0.3521  0.3514 -0.4062
   47MOL   H29614188   0.179   2.371   7.571  0.3092 -1.6745  1.6525
   47MOL   H29714189   0.252   2.522   7.524 -0.1870 -1.2731 -1.2936
   47MOL   H29814190   0.331   2.405   7.637 -0.0709  0.9037  0.7931
   47MOL   H29914191   0.093   2.854   7.455  0.8261 -0.9657  1.7493
   47MOL   H30014192   0.028   2.925   7.605 -1.2827 -0.1989  1.2884
   47MOL   H30114193   7.818   2.790   7.515 -0.3348 -0.4374  1.2198
   47MOL   H30214194   0.220   2.589   7.762  1.1891 -1.0545 -0.8419
   48MOL     C114195   7.505   1.715   4.669 -0.2791 -0.0637  0.3100
   48MOL     C214196   7.442   1.596   4.603 -0.5970  0.8833  0.3823
   48MOL     C314197   7.290   1.630   4.594  0.1756 -0.2400  0.4564
   48MOL     C414198   7.498   1.590   4.454  0.2681 -0.2687  0.7959
   48MOL     O514199   7.425   1.612   4.354 -0.2223 -0.5810  0.2689
   48MOL     O614200   7.627   1.574   4.444  0.2089 -0.8201 -0.5016
   48MOL     C714201   7.703   1.605   4.328 -1.1418  0.6819  0.6966
   48MOL     H814202   7.493   1.807   4.612  0.6757  0.4802  0.9741
   48MOL     H914203   7.470   1.733   4.771 -2.6733  0.7620 -0.6286
   48MOL    H1014204   7.252   1.630   4.696 -1.1198  0.1964 -0.0147
   48MOL    H1114205   7.265   1.729   4.555 -0.1585  0.1112  1.5421
   48MOL    H1214206   7.249   1.567   4.515  1.0802  0.2734 -0.4313
   48MOL    H1314207   7.702   1.512   4.272  2.7758  1.2551 -0.4561
   48MOL    H1414208   7.808   1.628   4.346 -1.2378  2.4734 -0.9855
   48MOL    H1514209   7.679   1.692   4.267  0.1449  0.0633 -0.7076
   48MOL    H1614210   7.613   1.708   4.658 -0.1547  0.8977  0.8893
   48MOL    C1714211   7.464   1.468   4.688 -0.0218  0.2530  0.3418
   48MOL    C1814212   7.449   1.321   4.629 -0.2502 -0.4153  0.1361
   48MOL    C1914213   7.316   1.317   4.542 -0.0450 -1.1037  0.3206
   48MOL    C2014214   7.571   1.285   4.545  0.5895 -0.2677 -0.3311
   48MOL    O2114215   7.555   1.260   4.427  0.0031 -0.9004 -0.6365
   48MOL    O2214216   7.691   1.278   4.613 -0.3426 -0.1834 -0.0046
   48MOL    C2314217   7.802   1.258   4.532  0.2002 -0.0734 -1.0080
   48MOL    H2414218   7.387   1.473   4.765 -0.7271  0.5642 -0.3829
   48MOL    H2514219   7.566   1.463   4.728  0.2643 -0.2120 -0.4295
   48MOL    H2614220   7.320   1.379   4.453 -2.2989 -0.2152  0.8120
   48MOL    H2714221   7.310   1.220   4.494  0.1594 -0.1960 -1.5799
   48MOL    H2814222   7.230   1.340   4.605 -0.5656  0.4653 -0.9326
   48MOL    H2914223   0.002   1.240   4.606 -1.7851  0.2814  1.2445
   48MOL    H3014224   7.815   1.341   4.462 -1.5611  0.2921 -0.9236
   48MOL    H3114225   7.793   1.165   4.476  2.2353 -0.2340 -1.1041
   48MOL    C3214226   7.439   1.225   4.750 -0.2206  0.4617  0.8684
   48MOL    C3314227   7.434   1.067   4.749 -0.1740  0.7901  0.7443
   48MOL    C3414228   7.348   1.004   4.629 -0.2810  0.2471  0.5543
   48MOL    C3514229   7.575   1.011   4.738 -0.5734  0.4187 -0.1751
   48MOL    O3614230   7.612   0.935   4.646 -0.1494  0.2863 -0.3091
   48MOL    O3714231   7.661   1.066   4.829  0.7117 -0.2083 -0.1567
   48MOL    C3814232   7.799   1.050   4.814 -0.5879 -0.5363 -0.3776
   48MOL    H3914233   7.345   1.252   4.799 -0.9048 -1.2833  0.5270
   48MOL    H4014234   7.510   1.255   4.827  0.2037  0.1372  0.6056
   48MOL    H4114235   7.352   0.896   4.645 -2.3166  0.0639 -0.1074
   48MOL    H4214236   7.243   1.033   4.638  0.7374  3.7620  2.4044
   48MOL    H4314237   7.387   1.039   4.533 -2.2723  0.2424 -0.2735
   48MOL    H4414238   7.848   1.003   4.899 -1.4689 -1.0927 -0.1763
   48MOL    H4514239   7.851   1.146   4.822 -1.9596  0.0461  2.0115
   48MOL    H4614240   7.823   1.004   4.718  0.8039  1.7581 -1.1743
   48MOL    C4714241   7.373   1.014   4.887 -0.3816  0.5271 -0.4047
   48MOL    C4814242   7.222   1.013   4.941 -0.0968 -0.0865  0.2164
   48MOL    C4914243   7.234   0.983   5.098 -0.4129 -0.2836 -0.4464
   48MOL    C5014244   7.149   1.151   4.923  0.1811 -0.1747 -0.2054
   48MOL    O5114245   7.119   1.219   5.021  0.0130  0.6263 -0.5589
   48MOL    O5214246   7.120   1.177   4.796 -0.0567  0.1515 -0.0482
   48MOL    C5314247   7.032   1.279   4.776  0.6779  0.5614 -0.9973
   48MOL    H5414248   7.436   1.066   4.959  0.8972 -0.8802 -0.4657
   48MOL    H5514249   7.395   0.907   4.893 -0.8803  0.3107 -2.1012
   48MOL    H5614250   7.271   0.884   5.123 -2.1460 -0.7962  0.1873
   48MOL    H5714251   7.313   1.046   5.139 -0.5778  1.1919 -2.3148
   48MOL    H5814252   7.141   0.998   5.153 -1.3488  0.2044 -2.1402
   48MOL    H5914253   7.074   1.372   4.814  3.3758 -1.0456  0.1054
   48MOL    H6014254   6.942   1.252   4.831  2.0329  0.5486  1.3329
   48MOL    H6114255   7.008   1.281   4.670 -0.1357 -2.6209 -0.9275
   48MOL    C6214256   7.152   0.891   4.876  0.1371  0.6829 -0.9764
   48MOL    C6314257   7.000   0.854   4.880 -0.0155  0.6237 -0.2549
   48MOL    C6414258   6.940   0.877   5.021 -0.1344 -0.1743  0.2377
   48MOL    C6514259   6.927   0.947   4.777 -0.2328  0.2346  0.2031
   48MOL    O6614260   6.828   1.006   4.802  0.3993  0.8619 -0.0900
   48MOL    O6714261   6.991   0.959   4.658 -0.2651 -0.5610 -0.3346
   48MOL    C6814262   6.932   1.032   4.545 -0.1764  0.0305 -0.0546
   48MOL    H6914263   7.200   0.812   4.934 -0.9897  2.3453  2.3403
   48MOL    H7014264   7.199   0.874   4.780 -0.5981  1.9030 -1.5593
   48MOL    H7114265   6.834   0.852   5.028 -0.2386 -0.2643 -1.4195
   48MOL    H7214266   6.996   0.827   5.100  1.1450 -0.0938 -0.6112
   48MOL    H7314267   6.948   0.984   5.037  1.7966 -0.2940  0.1522
   48MOL    H7414268   6.930   0.958   4.465  0.5836 -1.7869  1.5530
   48MOL    H7514269   6.990   1.110   4.496 -0.9604  0.7726  0.1808
   48MOL    H7614270   6.834   1.076   4.559  1.0531  2.4301  1.2448
   48MOL    C7714271   6.978   0.703   4.841  0.4830  0.8189  0.1643
   48MOL    C7814272   6.846   0.642   4.773  0.1655 -0.0294 -1.1021
   48MOL    C7914273   6.886   0.494   4.779  0.2686  0.1734 -0.1378
   48MOL    C8014274   6.724   0.672   4.867 -0.2983  0.6945 -0.2361
   48MOL    O8114275   6.618   0.721   4.830 -0.3202  0.0224  0.4901
   48MOL    O8214276   6.747   0.628   4.995 -0.0938 -0.1836  0.4780
   48MOL    C8314277   6.646   0.641   5.088 -0.4707 -1.1561 -0.8897
   48MOL    H8414278   7.001   0.638   4.925 -0.2976  0.0375 -0.2159
   48MOL    H8514279   7.067   0.674   4.785 -0.0109 -1.2745  0.4441
   48MOL    H8614280   6.987   0.473   4.745  0.2238 -3.0333  1.4966
   48MOL    H8714281   6.882   0.452   4.879 -0.7289  1.9370  0.5880
   48MOL    H8814282   6.810   0.422   4.749 -0.8769  0.5507  1.8110
   48MOL    H8914283   6.695   0.646   5.186  1.9024 -2.7988 -1.9294
   48MOL    H9014284   6.563   0.570   5.089 -0.9616 -0.5844 -1.0602
   48MOL    H9114285   6.598   0.738   5.079  0.9641 -0.6148 -3.1731
   48MOL    C9214286   6.817   0.689   4.628 -0.3725  0.1447 -0.2832
   48MOL    C9314287   6.739   0.611   4.516  0.1479  0.4184 -0.2848
   48MOL    C9414288   6.608   0.545   4.571 -0.2619 -0.2008 -0.4160
   48MOL    C9514289   6.693   0.719   4.401 -0.4596  0.1055  0.2209
   48MOL    O9614290   6.738   0.834   4.386 -0.3098  0.3562 -0.0507
   48MOL    O9714291   6.596   0.666   4.318  0.0674 -0.0458  0.0990
   48MOL    C9814292   6.551   0.741   4.204 -0.7560 -0.0201  0.6404
   48MOL    H9914293   6.909   0.706   4.573 -0.2343  1.6684  0.3844
   48MOL   H10014294   6.775   0.790   4.639 -1.0205 -0.2833  1.3467
   48MOL   H10114295   6.552   0.497   4.491 -1.5301  2.6900 -1.3135
   48MOL   H10214296   6.627   0.459   4.635  0.0368 -1.0572 -1.6347
   48MOL   H10314297   6.537   0.614   4.617  1.1100  0.1978  1.1510
   48MOL   H10414298   6.577   0.847   4.213 -1.5401  0.1404  1.1073
   48MOL   H10514299   6.445   0.726   4.185 -1.3190  1.0053  2.8061
   48MOL   H10614300   6.595   0.697   4.115 -1.1698 -1.7774  1.2931
   48MOL   C10714301   6.821   0.502   4.444  0.0626 -0.0111  0.3251
   48MOL   C10814302   6.956   0.517   4.359 -0.4553 -0.6086  0.0619
   48MOL   C10914303   6.966   0.657   4.284 -0.3114  0.0745  0.0213
   48MOL   C11014304   7.085   0.486   4.442 -0.2021 -0.7304  0.1643
   48MOL   O11114305   7.191   0.541   4.410  0.4927 -0.7274  0.6075
   48MOL   O11214306   7.064   0.394   4.533  0.0807  0.1789  0.3262
   48MOL   C11314307   7.176   0.349   4.607  0.3257  0.1009 -0.0504
   48MOL   H11414308   6.750   0.460   4.372  2.0518  1.5854 -2.6517
   48MOL   H11514309   6.833   0.426   4.521 -2.8270  0.4859  1.3292
   48MOL   H11614310   6.878   0.659   4.219 -0.4884 -2.5553  0.1270
   48MOL   H11714311   6.957   0.740   4.354  1.1985  0.2541  0.0305
   48MOL   H11814312   7.050   0.680   4.218  1.0062  0.8369  1.9122
   48MOL   H11914313   7.228   0.264   4.563  0.5303  0.9092 -1.4068
   48MOL   H12014314   7.148   0.319   4.709  0.1369  0.9883  0.1597
   48MOL   H12114315   7.252   0.424   4.630  1.9472 -1.3593 -0.5744
   48MOL   C12214316   6.942   0.420   4.239  0.2715  0.6480 -0.0456
   48MOL   C12314317   7.048   0.376   4.122  0.1792 -0.1039 -0.2932
   48MOL   C12414318   7.145   0.486   4.073  0.0471 -0.0292  0.1271
   48MOL   C12514319   7.139   0.261   4.183  0.4002 -0.1002  0.0865
   48MOL   O12614320   7.134   0.212   4.300 -0.3404 -0.1092  0.5246
   48MOL   O12714321   7.240   0.229   4.097 -0.0118  0.0567 -0.0722
   48MOL   C12814322   7.352   0.157   4.150 -0.0065 -0.3099 -0.1787
   48MOL   H12914323   6.856   0.471   4.194 -0.8929 -1.3215 -0.0964
   48MOL   H13014324   6.905   0.325   4.276 -0.6504  1.9526  2.4783
   48MOL   H13114325   7.087   0.574   4.045  2.1562  1.5865  0.7218
   48MOL   H13214326   7.208   0.514   4.157  0.7563 -0.4379 -0.2649
   48MOL   H13314327   7.208   0.468   3.986 -0.2572  0.0052 -0.1006
   48MOL   H13414328   7.418   0.144   4.064 -0.7923 -0.5850 -0.7571
   48MOL   H13514329   7.324   0.059   4.190  3.7114 -1.7722 -0.9739
   48MOL   H13614330   7.407   0.221   4.218  0.4978  0.4324 -1.2764
   48MOL   C13714331   6.972   0.324   3.999 -0.1836  0.0815 -1.2663
   48MOL   C13814332   6.855   0.209   4.001 -0.1268  0.0880 -0.1156
   48MOL   C13914333   6.900   0.078   4.064 -0.0850  0.2812  0.5770
   48MOL   C14014334   6.730   0.266   4.071  0.2654  0.5313  0.2456
   48MOL   O14114335   6.690   0.383   4.041 -0.4389 -0.5807 -0.5345
   48MOL   O14214336   6.686   0.195   4.172  0.3492  0.0414  0.6415
   48MOL   C14314337   6.583   0.247   4.252 -0.0582  0.5175  0.6417
   48MOL   H14414338   7.054   0.296   3.934  0.6207  0.8081 -0.5794
   48MOL   H14514339   6.932   0.411   3.947  0.9340  2.8029  2.1863
   48MOL   H14614340   7.001   0.053   4.030 -0.1073  0.9018  0.0508
   48MOL   H14714341   6.921   0.081   4.171  0.9656 -0.1992  0.3961
   48MOL   H14814342   6.835   7.868   4.058  0.3690 -0.0398  0.2726
   48MOL   H14914343   6.603   0.215   4.354 -1.4956 -0.8191  0.5202
   48MOL   H15014344   6.481   0.214   4.232 -1.8781  3.3636  4.4836
   48MOL   H15114345   6.594   0.355   4.265  0.3739  0.2951  2.1813
   48MOL   C15214346   6.832   0.182   3.851  0.7146  0.0916  0.0152
   48MOL   C15314347   6.713   0.094   3.792  0.8701 -0.0783  0.1529
   48MOL   C15414348   6.710   7.819   3.839 -0.2994 -0.4990 -0.0245
   48MOL   C15514349   6.584   0.169   3.824  0.0304  0.2565 -0.0125
   48MOL   O15614350   6.485   0.116   3.871  0.3641 -0.4411  0.2547
   48MOL   O15714351   6.588   0.299   3.786 -0.0077  0.3545 -0.7070
   48MOL   C15814352   6.471   0.375   3.814  0.2687 -0.5921  0.1628
   48MOL   H15914353   6.929   0.142   3.824  0.8888  0.4074  0.1675
   48MOL   H16014354   6.834   0.278   3.798 -2.2725 -0.9619 -2.1473
   48MOL   H16114355   6.806   7.781   3.876 -0.3983 -1.9297 -1.1961
   48MOL   H16214356   6.649   7.816   3.929 -1.8463 -0.5477 -1.0583
   48MOL   H16314357   6.681   7.736   3.774  0.9949 -1.8387  1.0589
   48MOL   H16414358   6.382   0.337   3.763  0.3228  1.3260 -1.4432
   48MOL   H16514359   6.499   0.476   3.783 -1.2509 -0.7461 -1.8811
   48MOL   H16614360   6.452   0.379   3.921  1.5777  1.1839  0.3510
   48MOL   C16714361   6.746   0.095   3.640  0.3260  0.2929 -0.2209
   48MOL   C16814362   6.652   0.049   3.521  0.3032 -0.2981 -0.7546
   48MOL   C16914363   6.561   7.799   3.541  0.8958  0.4141  0.0183
   48MOL   C17014364   6.562   0.178   3.496 -0.1034  0.0291  0.1440
   48MOL   O17114365   6.608   0.288   3.459 -0.7747  0.0368  0.5220
   48MOL   O17214366   6.427   0.154   3.513  0.2147  0.1315 -0.3555
   48MOL   C17314367   6.330   0.250   3.480  0.9295  0.1271 -0.1420
   48MOL   H17414368   6.834   0.032   3.630  0.4672  0.5755 -0.8200
   48MOL   H17514369   6.801   0.186   3.614  1.2404 -0.4642 -1.0002
   48MOL   H17614370   6.476   7.798   3.473  0.1070 -1.5805  0.9924
   48MOL   H17714371   6.610   7.704   3.519  1.7634  0.5700  1.2036
   48MOL   H17814372   6.520   7.800   3.642  1.8229  0.4569  0.3922
   48MOL   H17914373   6.315   0.264   3.373  0.0302  1.9420  0.2065
   48MOL   H18014374   6.356   0.350   3.515 -0.2391  0.2044  0.5284
   48MOL   H18114375   6.240   0.215   3.529  0.7140  1.4350  0.4162
   48MOL   C18214376   6.757   0.033   3.408 -0.3984  0.2519 -0.0071
   48MOL   C18314377   6.729   7.874   3.257  0.0304  0.2599 -0.3218
   48MOL   C18414378   6.713   7.726   3.236  0.2955 -0.2814  0.1970
   48MOL   C18514379   6.588   0.062   3.207 -0.7001 -0.0483  0.1562
   48MOL   O18614380   6.478   7.874   3.205  0.1641 -0.0482  0.2820
   48MOL   O18714381   6.596   0.193   3.168  0.1043  0.3421 -0.1302
   48MOL   C18814382   6.485   0.274   3.127  0.1245  0.2657 -0.2134
   48MOL   H18914383   6.835   7.841   3.438 -2.1447 -2.2564 -1.0982
   48MOL   H19014384   6.798   0.134   3.400  1.2370 -0.3579  0.6988
   48MOL   H19114385   6.794   7.671   3.285  0.2099 -2.2507 -1.7851
   48MOL   H19214386   6.626   7.686   3.288 -0.1167 -2.2894 -1.9710
   48MOL   H19314387   6.710   7.698   3.131 -0.6726 -0.8704  0.3751
   48MOL   H19414388   6.440   0.320   3.215 -1.1598  0.2316 -0.8382
   48MOL   H19514389   6.419   0.202   3.080  0.0611 -0.0026  0.2792
   48MOL   H19614390   6.518   0.343   3.050  0.0714  0.7747  0.2162
   48MOL   C19714391   6.832   0.058   3.167  0.1201  0.1617 -0.8182
   48MOL   C19814392   6.977   0.008   3.139 -0.4995  0.8703 -0.1039
   48MOL   C19914393   7.048   7.851   3.275  1.0906 -0.2491  0.4553
   48MOL   C20014394   6.964   7.764   3.047  0.1624 -0.0765 -0.1716
   48MOL   O20114395   7.007   7.656   3.086 -0.7102  0.9798 -0.0835
   48MOL   O20214396   6.901   7.787   2.933  0.3525  0.0823 -0.0648
   48MOL   C20314397   6.885   7.683   2.836 -0.2970  0.7026 -0.9577
   48MOL   H20414398   6.851   0.157   3.208  2.0525 -0.4682 -0.1483
   48MOL   H20514399   6.781   0.073   3.072  0.8594  0.1523 -1.2203
   48MOL   H20614400   7.139   7.792   3.266  0.0094 -1.9482  0.3892
   48MOL   H20714401   7.064   0.053   3.346 -2.3686  0.3030  0.7145
   48MOL   H20814402   6.983   7.775   3.318 -0.5983  1.3007  0.6963
   48MOL   H20914403   6.976   7.670   2.776 -0.0760  0.7999 -0.6439
   48MOL   H21014404   6.809   7.712   2.763 -1.2029  1.0586  0.1255
   48MOL   H21114405   6.866   7.594   2.895  2.7362  0.7117  0.1416
   48MOL   C21214406   7.062   0.126   3.078 -0.0513 -0.1431 -0.1112
   48MOL   C21314407   7.202   0.103   3.005 -0.2125  0.9435 -0.2970
   48MOL   C21414408   7.294   0.012   3.081 -0.5790  0.5446 -0.5388
   48MOL   C21514409   7.181   0.041   2.861 -0.1538 -0.2218 -0.2092
   48MOL   O21614410   7.231   7.813   2.836 -0.6839 -0.3873 -0.7893
   48MOL   O21714411   7.096   0.111   2.780  0.7445  0.3821 -0.1664
   48MOL   C21814412   7.044   0.051   2.665  0.3425  0.4203 -0.0145
   48MOL   H21914413   7.076   0.196   3.160  0.9946 -0.1238 -0.2951
   48MOL   H22014414   6.990   0.177   3.014 -0.7913 -0.5952  0.3646
   48MOL   H22114415   7.248   7.791   3.096  2.2787 -0.8538 -0.7007
   48MOL   H22214416   7.391   7.866   3.038 -0.9405  0.5000 -1.3356
   48MOL   H22314417   7.319   0.055   3.178 -1.1749  1.8520 -0.9533
   48MOL   H22414418   6.955   0.102   2.627  0.0087  0.7555  1.1758
   48MOL   H22514419   7.004   7.830   2.688  0.3495  0.3768 -0.1889
   48MOL   H22614420   7.118   0.052   2.586  1.8948  1.7868  1.4299
   48MOL   C22714421   7.276   0.242   2.989  0.5332  0.2777  0.1034
   48MOL   C22814422   7.429   0.271   2.937 -0.2796  0.4155 -0.2159
   48MOL   C22914423   7.509   0.271   3.067 -0.3033  0.3825 -0.0255
   48MOL   C23014424   7.485   0.158   2.847  0.4239 -0.1171  0.5767
   48MOL   O23114425   7.580   0.082   2.878  0.1563  0.2338  0.6323
   48MOL   O23214426   7.424   0.152   2.728 -0.1988  0.2144 -0.5722
   48MOL   C23314427   7.466   0.068   2.627  0.3751 -0.3274  0.0190
   48MOL   H23414428   7.257   0.295   3.082 -1.4244  0.5502 -0.4146
   48MOL   H23514429   7.208   0.300   2.926  0.5570 -0.5889 -0.7410
   48MOL   H23614430   7.617   0.290   3.061 -0.3748  0.3194 -1.6090
   48MOL   H23714431   7.469   0.352   3.128 -0.4795 -0.8771  1.5610
   48MOL   H23814432   7.504   0.178   3.124 -0.5514  0.5012  0.1464
   48MOL   H23914433   7.433   7.847   2.662 -0.0496 -0.4073 -0.6029
   48MOL   H24014434   7.573   0.052   2.620  0.8244  1.0482  2.8351
   48MOL   H24114435   7.418   0.094   2.533 -0.3545  0.9179  0.7303
   48MOL   C24214436   7.425   0.404   2.863 -0.3185 -0.2162  0.4729
   48MOL   C24314437   7.549   0.501   2.840  0.0739  0.0726 -0.5905
   48MOL   C24414438   7.567   0.565   2.980 -0.5243  0.2573  0.3410
   48MOL   C24514439   7.679   0.414   2.796  1.0239  0.3849  0.2999
   48MOL   O24614440   7.781   0.415   2.866 -0.1862  0.2988  0.0559
   48MOL   O24714441   7.670   0.355   2.674  0.3203  0.6453 -0.3893
   48MOL   C24814442   7.795   0.313   2.617 -0.0125 -0.7470 -0.2208
   48MOL   H24914443   7.344   0.458   2.912  1.0280  1.2231  1.1546
   48MOL   H25014444   7.376   0.383   2.768  1.8021 -1.7236 -0.3473
   48MOL   H25114445   7.625   0.657   2.973 -0.6045  0.1291 -2.3976
   48MOL   H25214446   7.473   0.607   3.018 -0.1700 -1.1242  2.8915
   48MOL   H25314447   7.609   0.500   3.057  2.0189 -0.5149 -1.6391
   48MOL   H25414448   7.799   0.327   2.509  0.2078  0.2644 -0.0876
   48MOL   H25514449   7.801   0.206   2.638  0.0542 -0.6808  0.1020
   48MOL   H25614450   7.872   0.374   2.664 -0.8725 -0.2585  0.5839
   48MOL   C25714451   7.495   0.617   2.745 -0.3371 -0.3050  0.7694
   48MOL   C25814452   7.593   0.708   2.661 -0.6125  0.0685 -0.5975
   48MOL   C25914453   7.698   0.765   2.756  0.9702  0.1715  0.0039
   48MOL   C26014454   7.651   0.632   2.537  0.2520  0.4097  0.0493
   48MOL   O26114455   7.771   0.634   2.512 -0.4213 -0.4272  0.4585
   48MOL   O26214456   7.566   0.562   2.458  0.1647 -0.7645  0.0906
   48MOL   C26314457   7.617   0.501   2.342 -0.5114 -0.7987  0.0817
   48MOL   H26414458   7.436   0.685   2.806 -0.7922  0.6535 -0.6984
   48MOL   H26514459   7.422   0.576   2.676 -0.6842  0.7956  0.4724
   48MOL   H26614460   7.659   0.816   2.845  1.4848  2.4790 -1.0380
   48MOL   H26714461   7.771   0.697   2.799  2.1927  1.7594  0.5043
   48MOL   H26814462   7.761   0.837   2.703 -0.6096  0.2698 -1.7858
   48MOL   H26914463   7.642   0.567   2.259  0.2213 -0.3348  0.6658
   48MOL   H27014464   7.531   0.449   2.301 -0.4055  1.0188 -2.5835
   48MOL   H27114465   7.689   0.429   2.380  0.1806 -1.0204 -1.6042
   48MOL   C27214466   7.498   0.825   2.605 -0.0085  0.2490  0.7446
   48MOL   C27314467   7.546   0.914   2.482 -0.6650  0.1356  0.1535
   48MOL   C27414468   7.690   0.965   2.506 -0.9176 -0.0024 -0.0824
   48MOL   C27514469   7.518   0.851   2.345 -0.4442 -0.3081 -0.6112
   48MOL   O27614470   7.603   0.848   2.253  0.3065  0.2014 -0.4197
   48MOL   O27714471   7.392   0.798   2.336 -0.4001  0.1235 -1.0004
   48MOL   C27814472   7.346   0.744   2.213  0.3659 -0.1372 -0.0627
   48MOL   H27914473   7.476   0.896   2.685  0.0720  1.8955 -0.6584
   48MOL   H28014474   7.405   0.778   2.571  0.9448 -1.0050 -0.1732
   48MOL   H28114475   7.766   0.888   2.489 -0.0218  1.0953 -1.1376
   48MOL   H28214476   7.730   1.033   2.431 -0.5078  0.7603  0.8015
   48MOL   H28314477   7.711   1.014   2.602  0.9738  0.1557 -0.5480
   48MOL   H28414478   7.316   0.818   2.140 -0.1952  0.0636  0.3688
   48MOL   H28514479   7.257   0.683   2.228 -0.4347  0.5224 -1.9803
   48MOL   H28614480   7.415   0.677   2.160 -0.3874 -0.0343 -1.1890
   48MOL   C28714481   7.461   1.046   2.480  0.0820  0.1899 -0.0477
   48MOL   C28814482   7.493   1.165   2.389  0.2028  0.5900  0.6440
   48MOL   C28914483   7.483   1.130   2.233  0.1160  0.1257  0.5008
   48MOL   C29014484   7.405   1.284   2.419  0.7278 -0.1272 -0.4726
   48MOL   O29114485   7.294   1.293   2.368 -0.2210 -0.1780 -0.6966
   48MOL   O29214486   7.463   1.388   2.483 -0.4446 -0.3559 -0.1598
   48MOL   C29314487   7.377   1.505   2.515  0.2024 -0.0821  0.1528
   48MOL   H29414488   7.451   1.089   2.580 -1.8697 -2.4129  0.9249
   48MOL   H29514489   7.356   1.026   2.461  0.5311 -1.4780 -0.8899
   48MOL   H29614490   7.404   1.057   2.220  1.4325 -1.6888  2.3895
   48MOL   H29714491   7.461   1.222   2.177 -0.1116  0.7982  1.6884
   48MOL   H29814492   7.569   1.075   2.196 -0.4956 -1.1581  0.9841
   48MOL   H29914493   7.407   1.550   2.610 -2.0858  1.8963 -0.0067
   48MOL   H30014494   7.275   1.482   2.545  0.1894 -0.4692 -0.1821
   48MOL   H30114495   7.374   1.583   2.439  2.4415  1.8701  1.9777
   48MOL   H30214496   7.597   1.196   2.401  0.7016 -0.8596  0.1086
   49MOL     C114497   5.294   7.157   2.466  0.5986  0.6043 -0.4737
   49MOL     C214498   5.160   7.077   2.451 -0.0283  0.5665  0.1530
   49MOL     C314499   5.067   7.122   2.568  0.4512  0.0667 -0.3515
   49MOL     C414500   5.086   7.129   2.323  0.5594  0.0925 -0.7597
   49MOL     O514501   5.117   7.228   2.253 -0.0190 -0.1372  0.3666
   49MOL     O614502   4.992   7.043   2.293  0.1760  0.0911 -0.5118
   49MOL     C714503   4.892   7.077   2.199  0.1770 -0.2849  0.0554
   49MOL     H814504   5.358   7.145   2.378 -0.6913 -2.9080 -1.0173
   49MOL     H914505   5.278   7.264   2.475 -1.2405  0.2148  1.0278
   49MOL    H1014506   5.113   7.110   2.666 -0.7326  0.2094  0.2246
   49MOL    H1114507   5.029   7.224   2.560 -0.9029 -0.5062 -1.2842
   49MOL    H1214508   4.971   7.072   2.568 -0.2657  1.4092 -0.8622
   49MOL    H1314509   4.916   7.048   2.097 -1.6431  0.2852 -0.5610
   49MOL    H1414510   4.888   7.186   2.204 -1.4961 -0.4498  3.2949
   49MOL    H1514511   4.798   7.024   2.210  0.2480 -0.3685  0.2456
   49MOL    H1614512   5.351   7.130   2.555  0.2277  1.7566  0.1232
   49MOL    C1714513   5.192   6.925   2.469  0.3298 -0.7751 -0.7379
   49MOL    C1814514   5.268   6.826   2.371 -0.1387  0.0853  0.1329
   49MOL    C1914515   5.208   6.849   2.225  1.0746  0.3300 -0.0934
   49MOL    C2014516   5.419   6.863   2.370  0.5047 -0.6800  0.3015
   49MOL    O2114517   5.478   6.870   2.477 -0.5665  0.4093  0.0016
   49MOL    O2214518   5.475   6.883   2.248 -0.1708  0.0682  0.8494
   49MOL    C2314519   5.614   6.910   2.235 -0.4289 -0.1169 -0.3002
   49MOL    H2414520   5.089   6.890   2.476 -0.2607  0.7610 -1.3688
   49MOL    H2514521   5.237   6.918   2.568 -0.7447 -1.9801 -0.3237
   49MOL    H2614522   5.215   6.951   2.185 -1.6596  1.9712  3.2967
   49MOL    H2714523   5.256   6.789   2.148  1.2561  0.1621  0.1484
   49MOL    H2814524   5.102   6.828   2.224  1.4814 -2.0621  2.5183
   49MOL    H2914525   5.672   6.905   2.327 -4.4085  0.4731  2.3724
   49MOL    H3014526   5.614   7.013   2.201 -0.3674 -0.0762 -0.1794
   49MOL    H3114527   5.650   6.850   2.152  0.4360  1.0937 -0.8111
   49MOL    C3214528   5.244   6.685   2.433 -0.1801 -0.4469 -0.4260
   49MOL    C3314529   5.302   6.548   2.376  0.0064 -0.1710  0.0470
   49MOL    C3414530   5.288   6.539   2.220  0.3253 -0.9838  0.2133
   49MOL    C3514531   5.448   6.524   2.409  0.5720 -0.1593 -0.1907
   49MOL    O3614532   5.532   6.479   2.331  0.3313  0.3939  0.0168
   49MOL    O3714533   5.476   6.555   2.533 -0.3743 -0.4020  0.1246
   49MOL    C3814534   5.603   6.540   2.585 -0.4230 -0.8019 -0.4434
   49MOL    H3914535   5.136   6.683   2.442  0.0359 -0.3971  2.3995
   49MOL    H4014536   5.279   6.699   2.535 -1.4029  2.6790 -0.3740
   49MOL    H4114537   5.315   6.440   2.184  2.0561 -0.0043 -1.2659
   49MOL    H4214538   5.184   6.554   2.190  1.2158  0.9975 -2.0814
   49MOL    H4314539   5.343   6.616   2.167 -2.2666  1.6229  1.1749
   49MOL    H4414540   5.671   6.618   2.551 -0.6369 -0.1597  0.5587
   49MOL    H4514541   5.647   6.442   2.572 -1.2304 -0.9619 -2.0013
   49MOL    H4614542   5.611   6.581   2.686 -0.2356  1.7672 -1.4524
   49MOL    C4714543   5.211   6.445   2.450 -0.3031  0.4899  1.1208
   49MOL    C4814544   5.226   6.289   2.448  0.0871 -0.2795 -0.5010
   49MOL    C4914545   5.238   6.231   2.299  0.2677  0.5241  0.2077
   49MOL    C5014546   5.347   6.236   2.526  0.6080  0.8388  0.3921
   49MOL    O5114547   5.387   6.291   2.628 -0.1783 -0.5323 -0.4832
   49MOL    O5214548   5.396   6.127   2.482 -0.4369 -0.2827 -0.2363
   49MOL    C5314549   5.507   6.056   2.535 -0.0818 -0.0697 -0.1658
   49MOL    H5414550   5.109   6.465   2.417  0.0116  1.6074  0.7847
   49MOL    H5514551   5.204   6.483   2.552  1.8189 -0.3911  1.6280
   49MOL    H5614552   5.154   6.277   2.247 -0.6329  2.2508  3.0606
   49MOL    H5714553   5.331   6.252   2.247  0.1847  0.1821 -0.0789
   49MOL    H5814554   5.214   6.126   2.281 -0.1727  0.8791 -1.3779
   49MOL    H5914555   5.590   6.123   2.559  0.9853 -0.7638 -1.8380
   49MOL    H6014556   5.563   5.997   2.462  1.8430  1.8675 -0.3150
   49MOL    H6114557   5.478   5.989   2.616 -0.0534 -2.0116 -1.7300
   49MOL    C6214558   5.083   6.235   2.507  0.9570  0.0120  0.1900
   49MOL    C6314559   5.057   6.094   2.587  0.8972  0.0153  0.2749
   49MOL    C6414560   5.099   5.974   2.502  0.2982 -0.0237 -0.2435
   49MOL    C6514561   5.128   6.085   2.721 -0.2399  0.3825  0.1717
   49MOL    O6614562   5.176   5.975   2.760 -0.5775  0.3002 -0.3493
   49MOL    O6714563   5.144   6.204   2.782 -0.4233  0.0697 -0.1661
   49MOL    C6814564   5.207   6.211   2.907 -0.8148 -0.2815  0.7151
   49MOL    H6914565   5.011   6.232   2.425  3.4092 -1.6289 -2.0036
   49MOL    H7014566   5.046   6.313   2.574 -0.3083  0.6710 -1.2356
   49MOL    H7114567   5.074   5.982   2.396 -1.3631 -3.6145 -0.1919
   49MOL    H7214568   5.207   5.956   2.502  0.4367  0.8125 -0.6017
   49MOL    H7314569   5.053   5.877   2.519  0.3802 -0.1441 -0.7126
   49MOL    H7414570   5.187   6.301   2.965  1.6001  0.0437  1.0687
   49MOL    H7514571   5.310   6.177   2.903 -0.6917  0.1526  0.0711
   49MOL    H7614572   5.168   6.127   2.964  0.8757  0.1566  2.5577
   49MOL    C7714573   4.902   6.072   2.611 -0.4970  0.3248  0.0870
   49MOL    C7814574   4.810   6.151   2.718  0.4952 -0.8435  0.5625
   49MOL    C7914575   4.831   6.097   2.862 -0.5775  0.0199 -0.0689
   49MOL    C8014576   4.829   6.299   2.722 -0.0649 -0.2217 -0.6530
   49MOL    O8114577   4.867   6.357   2.829 -0.0921 -1.0827 -0.5859
   49MOL    O8214578   4.808   6.362   2.606 -0.2245  0.3573 -0.0972
   49MOL    C8314579   4.858   6.496   2.595  0.1466  0.6394  0.0364
   49MOL    H8414580   4.902   5.969   2.648  1.6965 -0.7992 -2.8166
   49MOL    H8514581   4.847   6.049   2.519 -0.5925  0.9999 -0.0229
   49MOL    H8614582   4.933   6.106   2.898 -1.3244 -0.3148  2.2308
   49MOL    H8714583   4.760   6.143   2.932  0.6154  1.9463 -0.0961
   49MOL    H8814584   4.807   5.991   2.874  0.4191 -0.3929 -1.6643
   49MOL    H8914585   4.878   6.529   2.493  2.4964  0.2655  0.3482
   49MOL    H9014586   4.939   6.525   2.662  0.3480  1.6124 -0.6212
   49MOL    H9114587   4.790   6.570   2.638  0.5292 -0.2635  2.2880
   49MOL    C9214588   4.654   6.131   2.678 -0.1507 -0.0851  0.8045
   49MOL    C9314589   4.523   6.182   2.764 -0.3795  0.7062 -0.0467
   49MOL    C9414590   4.547   6.323   2.827  0.0599 -0.2998  0.2173
   49MOL    C9514591   4.405   6.184   2.660 -0.1946  0.3073 -0.5066
   49MOL    O9614592   4.352   6.286   2.624 -0.1819  0.0547  0.6547
   49MOL    O9714593   4.382   6.059   2.594 -0.2632  0.2278 -0.2662
   49MOL    C9814594   4.303   6.052   2.480 -0.4610 -0.4419  0.4352
   49MOL    H9914595   4.644   6.023   2.671  0.1093 -0.0023 -1.2802
   49MOL   H10014596   4.641   6.176   2.580 -1.0799 -2.7840 -0.3692
   49MOL   H10114597   4.462   6.367   2.879 -0.3738 -2.4093  1.3593
   49MOL   H10214598   4.624   6.305   2.902  0.8614  1.7363 -0.0713
   49MOL   H10314599   4.585   6.404   2.765 -1.6391 -0.5920 -1.2344
   49MOL   H10414600   4.201   6.062   2.516  0.4201  1.0123  2.6417
   49MOL   H10514601   4.312   5.966   2.414 -1.4275 -0.3805  0.2129
   49MOL   H10614602   4.327   6.140   2.419  2.0911 -0.5683  1.1813
   49MOL   C10714603   4.495   6.078   2.879  0.4995 -0.4522  0.7730
   49MOL   C10814604   4.362   6.055   2.964 -0.1345 -0.2135 -0.1781
   49MOL   C10914605   4.255   5.976   2.878  0.2526  0.5649  0.3896
   49MOL   C11014606   4.401   5.963   3.083  0.4741 -0.1305 -0.1782
   49MOL   O11114607   4.451   6.013   3.184 -0.8951 -0.0608  0.3786
   49MOL   O11214608   4.405   5.830   3.057 -0.1775 -0.1847  0.6959
   49MOL   C11314609   4.470   5.736   3.150 -0.1493 -0.1750  0.4546
   49MOL   H11414610   4.557   6.123   2.957 -0.0065 -0.3573  1.1226
   49MOL   H11514611   4.534   5.980   2.851  1.4853 -0.4508  2.1407
   49MOL   H11614612   4.304   5.892   2.830 -0.6586  0.4915 -0.4178
   49MOL   H11714613   4.179   5.929   2.940  0.9870  0.8389  1.5304
   49MOL   H11814614   4.196   6.028   2.803  0.7855  0.5870 -0.0202
   49MOL   H11914615   4.483   5.637   3.106 -1.6614  0.8972 -2.5095
   49MOL   H12014616   4.419   5.712   3.244  1.3278 -1.4545  0.9479
   49MOL   H12114617   4.571   5.771   3.171 -0.4303 -0.9994  3.4694
   49MOL   C12214618   4.312   6.196   3.008  0.4795 -0.3357  0.1902
   49MOL   C12314619   4.181   6.235   3.099 -0.5002 -0.7454  0.4675
   49MOL   C12414620   4.168   6.141   3.224  0.3557 -0.3920  0.1075
   49MOL   C12514621   4.187   6.384   3.139  0.3757 -0.1979 -0.2864
   49MOL   O12614622   4.142   6.423   3.243 -0.0883 -0.0826 -0.3159
   49MOL   O12714623   4.246   6.468   3.055 -0.2767 -0.1462 -0.1530
   49MOL   C12814624   4.251   6.604   3.087 -0.1404 -0.5413  0.0741
   49MOL   H12914625   4.304   6.247   2.912  4.0054 -1.8968 -0.9897
   49MOL   H13014626   4.400   6.244   3.052  1.5779 -1.4711 -0.7749
   49MOL   H13114627   4.258   6.144   3.285  1.5154 -1.8972 -1.4675
   49MOL   H13214628   4.092   6.172   3.296  0.9663 -0.5152  0.8099
   49MOL   H13314629   4.145   6.042   3.183 -2.7724  0.7398 -1.0082
   49MOL   H13414630   4.316   6.628   3.171  0.4471 -0.9501 -0.2604
   49MOL   H13514631   4.147   6.622   3.111 -0.7001 -2.0083 -1.1856
   49MOL   H13614632   4.285   6.653   2.995  2.5058  0.9549  1.7662
   49MOL   C13714633   4.062   6.216   3.000  0.1038 -0.4232 -0.3638
   49MOL   C13814634   3.915   6.261   3.033  0.7396 -0.5297 -0.3992
   49MOL   C13914635   3.877   6.217   3.177 -0.4603 -0.3021 -0.7774
   49MOL   C14014636   3.886   6.415   3.022  0.5106 -0.6727 -0.4048
   49MOL   O14114637   3.966   6.493   2.971  0.4531  0.3181 -0.1460
   49MOL   O14214638   3.770   6.454   3.074  0.0951  0.1159  0.0085
   49MOL   C14314639   3.745   6.592   3.083  0.3160  0.6370 -0.7010
   49MOL   H14414640   4.057   6.109   2.980  1.3176 -0.1167 -2.4659
   49MOL   H14514641   4.082   6.250   2.899  2.1894  0.4587  0.3221
   49MOL   H14614642   3.769   6.213   3.192 -0.2111 -2.9014  0.8028
   49MOL   H14714643   3.899   6.112   3.195  1.0009  0.3825  1.7447
   49MOL   H14814644   3.917   6.277   3.259 -0.8447 -1.6117  0.4049
   49MOL   H14914645   3.665   6.620   3.152  0.3353  3.1217 -1.6409
   49MOL   H15014646   3.727   6.634   2.984  1.5153  1.3380 -0.6330
   49MOL   H15114647   3.835   6.650   3.104  1.7675 -2.0745  0.9057
   49MOL   C15214648   3.815   6.191   2.937 -0.1154 -0.4926  0.0450
   49MOL   C15314649   3.813   6.182   2.777  0.4480 -0.1640  0.2987
   49MOL   C15414650   3.854   6.326   2.716  0.2284 -0.8937  0.3029
   49MOL   C15514651   3.913   6.075   2.722  0.3614 -0.1789  0.1712
   49MOL   O15614652   3.982   6.102   2.621  0.4091  0.0109  0.3894
   49MOL   O15714653   3.910   5.958   2.782  0.8313  0.0083  0.5074
   49MOL   C15814654   3.978   5.847   2.729  0.8674 -0.0655  0.4816
   49MOL   H15914655   3.720   6.225   2.978 -1.0804 -1.9847 -0.8741
   49MOL   H16014656   3.814   6.093   2.985 -1.5722  0.4188  1.9761
   49MOL   H16114657   3.835   6.335   2.609  1.0580  0.0709  0.2329
   49MOL   H16214658   3.783   6.398   2.756  1.2708  0.7993 -0.8147
   49MOL   H16314659   3.957   6.356   2.736 -0.6981  2.1055  0.7860
   49MOL   H16414660   4.048   5.805   2.800 -0.9434 -0.5846  2.0103
   49MOL   H16514661   4.024   5.862   2.631 -0.8281 -0.2108 -0.3565
   49MOL   H16614662   3.902   5.769   2.726  0.6540  0.0210  2.7231
   49MOL   C16714663   3.665   6.162   2.720  0.1928 -0.1377 -0.0956
   49MOL   C16814664   3.583   6.030   2.711 -0.5218 -0.1505  0.6832
   49MOL   C16914665   3.632   5.944   2.591  0.4408 -0.3189 -0.0606
   49MOL   C17014666   3.602   5.946   2.844  0.1687  0.1410  0.3542
   49MOL   O17114667   3.645   5.826   2.846  0.4075  0.4039  0.2462
   49MOL   O17214668   3.559   6.010   2.947  0.3517  0.4623 -0.3343
   49MOL   C17314669   3.580   5.954   3.074  0.8090 -0.1071  0.2704
   49MOL   H17414670   3.671   6.195   2.617 -3.0028  0.3972 -0.1705
   49MOL   H17514671   3.598   6.236   2.763 -0.8237 -1.4790  0.6556
   49MOL   H17614672   3.733   5.907   2.606  0.5547  0.7901  2.0465
   49MOL   H17714673   3.568   5.855   2.581  1.1738 -0.6978 -1.5684
   49MOL   H17814674   3.636   5.997   2.496  1.8194  0.7982  0.6027
   49MOL   H17914675   3.566   5.846   3.070 -2.1330  0.2078  0.5622
   49MOL   H18014676   3.510   5.994   3.148  0.2584  1.3164 -0.9997
   49MOL   H18114677   3.684   5.967   3.101  0.2244  1.8279  1.7457
   49MOL   C18214678   3.424   6.072   2.707  0.4220  0.0826 -0.1639
   49MOL   C18314679   3.354   6.112   2.579 -0.2934 -0.7723  0.3378
   49MOL   C18414680   3.416   6.239   2.521  0.6265 -0.8461  0.0633
   49MOL   C18514681   3.354   5.995   2.481 -0.3448  0.2475 -0.2194
   49MOL   O18614682   3.400   6.004   2.369  0.4694  0.7687 -0.2988
   49MOL   O18714683   3.297   5.881   2.527  0.7926  0.3600 -0.1402
   49MOL   C18814684   3.300   5.764   2.445 -0.9139 -0.2644  0.0002
   49MOL   H18914685   3.416   6.156   2.775  2.2308 -0.4593  0.7666
   49MOL   H19014686   3.367   5.995   2.759  3.4299 -2.0880  0.1310
   49MOL   H19114687   3.439   6.311   2.601  3.2521 -1.9637  0.3723
   49MOL   H19214688   3.513   6.235   2.471  0.0891  3.1134 -1.5061
   49MOL   H19314689   3.356   6.286   2.443 -0.6181 -3.1144 -0.3875
   49MOL   H19414690   3.229   5.689   2.480 -0.2437 -0.5252  0.8120
   49MOL   H19514691   3.401   5.725   2.436 -0.5323  0.8790 -0.8750
   49MOL   H19614692   3.264   5.808   2.352  2.5076  2.4985 -0.1047
   49MOL   C19714693   3.198   6.143   2.612  0.0655  0.0240  0.0049
   49MOL   C19814694   3.094   6.210   2.516 -0.0042  0.7497 -0.6031
   49MOL   C19914695   2.969   6.135   2.579  0.0953  0.4079  0.1598
   49MOL   C20014696   3.081   6.359   2.560 -0.0629  0.1781  0.1357
   49MOL   O20114697   2.987   6.393   2.627 -0.5804  0.1741  0.1003
   49MOL   O20214698   3.187   6.441   2.531  0.4796 -0.4140  0.1162
   49MOL   C20314699   3.173   6.585   2.550  0.0477  0.0419 -0.0208
   49MOL   H20414700   3.193   6.195   2.708 -0.4337  0.8937 -0.4883
   49MOL   H20514701   3.169   6.040   2.630  1.4817 -0.6842 -1.5335
   49MOL   H20614702   2.875   6.181   2.549 -1.2667 -1.8174  0.8673
   49MOL   H20714703   2.957   6.031   2.546  1.2900  0.6052 -0.9352
   49MOL   H20814704   2.976   6.137   2.688  1.5252  1.1726  0.0682
   49MOL   H20914705   3.112   6.644   2.482 -0.7101  1.0943  1.5481
   49MOL   H21014706   3.276   6.620   2.551  0.2757 -0.5709 -1.1338
   49MOL   H21114707   3.128   6.604   2.648  3.0919  0.9060  1.2843
   49MOL   C21214708   3.092   6.188   2.360  0.6859 -0.0806  0.1792
   49MOL   C21314709   3.013   6.281   2.252  0.5026  0.1925 -0.2339
   49MOL   C21414710   2.874   6.290   2.307 -0.4015 -0.4635 -1.0104
   49MOL   C21514711   3.075   6.422   2.245 -0.4557  0.7766 -0.4581
   49MOL   O21614712   3.010   6.522   2.256  0.3023  0.0773  0.9920
   49MOL   O21714713   3.214   6.410   2.232  0.0375 -0.1677 -0.4450
   49MOL   C21814714   3.296   6.528   2.228  0.4288  0.2989  0.0878
   49MOL   H21914715   3.065   6.084   2.338  2.8500 -0.1092 -2.6307
   49MOL   H22014716   3.193   6.192   2.318 -0.5842  2.1804 -2.8616
   49MOL   H22114717   2.818   6.354   2.240 -0.2783  0.2172 -0.4617
   49MOL   H22214718   2.827   6.191   2.311  0.1885 -0.7455 -1.0233
   49MOL   H22314719   2.871   6.350   2.398 -0.7660 -0.4941 -1.0012
   49MOL   H22414720   3.393   6.507   2.184 -0.8535 -2.4533 -1.5505
   49MOL   H22514721   3.317   6.554   2.332 -0.9043 -3.5405  1.3830
   49MOL   H22614722   3.246   6.614   2.184  0.5723  0.3046 -0.0600
   49MOL   C22714723   3.025   6.203   2.119  0.5350 -0.2047  0.3380
   49MOL   C22814724   2.974   6.253   1.972 -0.4402 -0.2956 -0.1239
   49MOL   C22914725   2.836   6.335   1.982 -0.1305 -0.0115  0.0614
   49MOL   C23014726   3.079   6.345   1.897  0.0392  0.1199  0.2097
   49MOL   O23114727   3.044   6.452   1.843  0.4996 -0.5024 -0.3480
   49MOL   O23214728   3.200   6.299   1.889 -0.3213 -1.0380 -0.5661
   49MOL   C23314729   3.306   6.394   1.858 -0.1144  0.1277  0.8816
   49MOL   H23414730   2.965   6.114   2.135 -2.3818  1.7284  0.4029
   49MOL   H23514731   3.127   6.169   2.099  0.1209 -0.4315 -1.5414
   49MOL   H23614732   2.835   6.431   2.034  0.9215 -0.0675  0.1934
   49MOL   H23714733   2.791   6.356   1.885 -0.5452  0.2305  0.3042
   49MOL   H23814734   2.762   6.277   2.039 -0.6630 -0.2703 -0.8809
   49MOL   H23914735   3.405   6.358   1.829  0.2474  1.2562  0.7126
   49MOL   H24014736   3.323   6.470   1.934  2.9046  0.0847  0.3038
   49MOL   H24114737   3.276   6.445   1.767 -0.6655 -0.7036  0.5865
   49MOL   C24214738   2.941   6.130   1.882 -0.9771 -0.3456  0.0511
   49MOL   C24314739   3.036   6.017   1.816 -0.1984 -0.4325  0.5545
   49MOL   C24414740   3.115   6.069   1.697 -0.0463  0.7812 -0.2252
   49MOL   C24514741   3.137   5.949   1.921  0.0282  0.3103  0.1931
   49MOL   O24614742   3.259   5.956   1.910  0.6707 -0.2429  0.2072
   49MOL   O24714743   3.072   5.875   2.010  0.5372  0.1427  0.7951
   49MOL   C24814744   3.135   5.846   2.131 -0.0350  0.0684 -0.3470
   49MOL   H24914745   2.886   6.166   1.796 -0.9139  0.0100  0.1601
   49MOL   H25014746   2.875   6.068   1.943 -2.2168  1.6925  0.8251
   49MOL   H25114747   3.187   6.148   1.720  0.8478  0.0981 -0.6512
   49MOL   H25214748   3.179   5.989   1.659  0.0200  0.4563  0.5623
   49MOL   H25314749   3.051   6.112   1.620  0.7945  3.6826  0.6106
   49MOL   H25414750   3.224   5.785   2.121 -0.2092 -0.2840  0.2570
   49MOL   H25514751   3.062   5.804   2.200  1.0639  1.8979  2.0207
   49MOL   H25614752   3.169   5.941   2.172 -1.6648  0.1821  0.8367
   49MOL   C25714753   2.931   5.902   1.767  0.1516 -0.3504 -0.5452
   49MOL   C25814754   2.950   5.788   1.656 -0.7523  0.0352  0.5179
   49MOL   C25914755   2.971   5.851   1.515 -0.2917 -0.1018 -0.2245
   49MOL   C26014756   3.075   5.709   1.698 -0.8585 -0.0813 -0.1258
   49MOL   O26114757   3.177   5.700   1.629 -0.3673 -0.1169  0.2520
   49MOL   O26214758   3.061   5.652   1.827 -0.6058 -0.1391  0.2004
   49MOL   C26314759   3.163   5.581   1.895  0.0365 -0.2629 -0.0750
   49MOL   H26414760   2.852   5.963   1.723 -1.3647 -1.6408  0.3131
   49MOL   H26514761   2.884   5.854   1.853 -2.8026  1.9034 -0.8274
   49MOL   H26614762   2.908   5.939   1.506 -1.1875 -0.6779  0.3481
   49MOL   H26714763   3.071   5.895   1.517  0.0748 -0.9007 -0.9459
   49MOL   H26814764   2.966   5.783   1.431  0.7664  1.3061 -1.4423
   49MOL   H26914765   3.134   5.561   1.998  0.5481  0.5267  0.2283
   49MOL   H27014766   3.256   5.638   1.897  1.7749 -2.9818 -0.5710
   49MOL   H27114767   3.194   5.492   1.839  0.4614  0.1140 -0.4486
   49MOL   C27214768   2.823   5.685   1.642 -0.0430  0.3147  0.6475
   49MOL   C27314769   2.672   5.719   1.595  0.3738 -0.6899 -0.2936
   49MOL   C27414770   2.611   5.821   1.686 -0.4303  0.0949 -0.0006
   49MOL   C27514771   2.675   5.767   1.449  0.2695 -0.6592  0.3626
   49MOL   O27614772   2.633   5.876   1.412  0.0017  0.5038 -0.1673
   49MOL   O27714773   2.718   5.671   1.362 -0.1072 -0.3804  0.0585
   49MOL   C27814774   2.720   5.702   1.229 -0.5743 -0.5265  0.1458
   49MOL   H27914775   2.807   5.642   1.741 -1.6672  2.6351  1.4228
   49MOL   H28014776   2.855   5.608   1.572 -1.1402 -0.5396  1.0704
   49MOL   H28114777   2.632   5.813   1.792 -0.0671 -2.8987 -0.2625
   49MOL   H28214778   2.658   5.917   1.666 -0.4145 -0.0965 -0.9204
   49MOL   H28314779   2.505   5.844   1.673 -0.7572 -0.4304  1.6089
   49MOL   H28414780   2.709   5.617   1.162 -0.2247 -0.1898 -0.3414
   49MOL   H28514781   2.799   5.773   1.204 -1.2707 -0.5223 -2.2336
   49MOL   H28614782   2.627   5.753   1.205 -0.3237 -0.6993 -1.2478
   49MOL   C28714783   2.587   5.590   1.598 -0.3030 -1.0792 -0.5235
   49MOL   C28814784   2.435   5.593   1.576 -0.3865 -0.5853 -0.0204
   49MOL   C28914785   2.399   5.484   1.469  0.0553 -0.6788  0.4572
   49MOL   C29014786   2.361   5.569   1.708 -0.4155  0.4771  0.0544
   49MOL   O29114787   2.328   5.661   1.781  0.1612  0.0682  0.2253
   49MOL   O29214788   2.344   5.440   1.741  0.4169 -0.5922 -0.5865
   49MOL   C29314789   2.266   5.410   1.854 -0.2124  0.3850 -0.0638
   49MOL   H29414790   2.606   5.528   1.685  2.4558 -0.7252 -0.8451
   49MOL   H29514791   2.632   5.516   1.532 -1.2849  0.8735 -3.5188
   49MOL   H29614792   2.293   5.460   1.467 -0.1804  0.3893 -1.7712
   49MOL   H29714793   2.424   5.524   1.371 -2.1003 -0.0717  0.1324
   49MOL   H29814794   2.464   5.397   1.463 -0.8984 -1.2770 -1.6838
   49MOL   H29914795   2.313   5.433   1.949 -1.6795  3.2252  0.0289
   49MOL   H30014796   2.253   5.302   1.862  3.2432 -0.0548  0.4028
   49MOL   H30114797   2.170   5.460   1.836 -0.4318 -0.0557 -0.1302
   49MOL   H30214798   2.407   5.693   1.545 -0.3308 -0.0418  1.6490
   50MOL     C114799   6.067   6.103   3.669 -0.4258  0.2487 -0.4251
   50MOL     C214800   6.093   6.123   3.823 -0.0983 -0.4417  0.6130
   50MOL     C314801   6.092   6.271   3.853  0.3612 -0.8129  0.3300
   50MOL     C414802   5.960   6.056   3.889  0.1512 -0.1712  0.0174
   50MOL     O514803   5.876   6.123   3.946 -0.3361  0.1734  0.1382
   50MOL     O614804   5.959   5.921   3.868 -0.0311  0.1896 -0.2337
   50MOL     C714805   5.845   5.843   3.900 -0.6867 -0.7489  0.3249
   50MOL     H814806   5.973   6.152   3.644 -0.0473 -0.1950 -2.8271
   50MOL     H914807   6.151   6.131   3.605  1.0688 -1.3892  0.7326
   50MOL    H1014808   6.184   6.315   3.814  1.0434 -0.6768  2.0613
   50MOL    H1114809   6.009   6.317   3.799 -0.4858  0.3218  2.5413
   50MOL    H1214810   6.078   6.302   3.956  0.6669  1.2977 -0.2434
   50MOL    H1314811   5.769   5.875   3.829 -0.8085 -0.2700  0.6717
   50MOL    H1414812   5.800   5.870   3.995 -1.2732 -2.0504  0.4324
   50MOL    H1514813   5.859   5.735   3.904 -0.1443 -0.6378  1.5377
   50MOL    H1614814   6.043   5.998   3.651  0.8246 -0.1742  0.3141
   50MOL    C1714815   6.226   6.066   3.863  0.1277  0.6038  0.0798
   50MOL    C1814816   6.256   6.020   4.013  0.0236  0.2015  0.0278
   50MOL    C1914817   6.207   6.130   4.117 -0.3686 -0.4607 -0.2985
   50MOL    C2014818   6.191   5.881   4.040  0.5352 -0.3403  0.0712
   50MOL    O2114819   6.105   5.864   4.132 -0.4436 -0.0235 -0.0609
   50MOL    O2214820   6.238   5.786   3.964 -0.1503  0.2497 -0.0816
   50MOL    C2314821   6.177   5.658   3.974 -0.2627 -0.5709 -0.2269
   50MOL    H2414822   6.306   6.132   3.831  1.5405 -2.2461 -2.5807
   50MOL    H2514823   6.238   5.979   3.799  1.3768  0.8015  0.0396
   50MOL    H2614824   6.101   6.131   4.092 -0.4191 -0.1632 -0.0631
   50MOL    H2714825   6.207   6.091   4.219 -0.2430  0.8557  0.2137
   50MOL    H2814826   6.234   6.232   4.091 -0.6741 -0.3139 -0.0334
   50MOL    H2914827   6.069   5.666   3.982 -0.7145 -3.9771 -2.0848
   50MOL    H3014828   6.202   5.615   4.071  0.2661 -2.0920 -1.0168
   50MOL    H3114829   6.209   5.592   3.894 -0.5195  0.4997 -1.2285
   50MOL    C3214830   6.412   6.009   4.019 -0.1999 -0.5437  0.0154
   50MOL    C3314831   6.501   5.979   4.148  0.4109  0.0309 -0.0979
   50MOL    C3414832   6.505   6.109   4.244  0.4532  0.4254  0.1057
   50MOL    C3514833   6.435   5.860   4.225 -0.6309 -0.2430 -0.4930
   50MOL    O3614834   6.434   5.749   4.171 -0.2469 -0.4689  0.1588
   50MOL    O3714835   6.385   5.897   4.344 -0.5125 -0.2334 -0.1509
   50MOL    C3814836   6.316   5.800   4.429 -0.1549  0.5773 -1.2126
   50MOL    H3914837   6.454   6.100   3.977 -1.4860 -0.5559 -1.3331
   50MOL    H4014838   6.425   5.926   3.949 -0.1777 -0.0903 -0.5185
   50MOL    H4114839   6.568   6.096   4.332 -0.3478 -1.1637  0.4649
   50MOL    H4214840   6.546   6.188   4.182  0.4465  1.1985  1.0759
   50MOL    H4314841   6.414   6.140   4.296  1.0119 -1.7636  2.4653
   50MOL    H4414842   6.263   5.846   4.513  0.0880  2.7161 -2.2120
   50MOL    H4514843   6.382   5.721   4.464 -3.1721 -0.3347  2.7787
   50MOL    H4614844   6.240   5.740   4.378 -0.1102 -0.8504  0.3290
   50MOL    C4714845   6.640   5.937   4.094 -0.1849  0.4185  0.1475
   50MOL    C4814846   6.769   5.922   4.180  0.0828 -0.2671 -0.0451
   50MOL    C4914847   6.838   6.058   4.188 -0.1916 -0.4197 -0.5076
   50MOL    C5014848   6.744   5.868   4.324  0.0586 -0.0298  0.6365
   50MOL    O5114849   6.775   5.930   4.425  0.4966 -0.1386  0.7284
   50MOL    O5214850   6.700   5.751   4.329 -0.2872  0.8808  0.2798
   50MOL    C5314851   6.687   5.680   4.449 -0.3035  0.0781 -0.2190
   50MOL    H5414852   6.672   5.999   4.011  2.0087 -0.5358  0.2331
   50MOL    H5514853   6.636   5.837   4.051  1.7813  0.8239 -1.0136
   50MOL    H5614854   6.778   6.143   4.222 -2.4338 -2.0996 -0.1646
   50MOL    H5714855   6.927   6.067   4.249 -0.2265  0.0989 -0.5314
   50MOL    H5814856   6.876   6.078   4.088  1.0465  0.9076  0.2163
   50MOL    H5914857   6.648   5.735   4.535  0.0850  0.7193 -0.4517
   50MOL    H6014858   6.791   5.653   4.468 -0.6867 -1.0762  0.2440
   50MOL    H6114859   6.626   5.591   4.434  1.3667 -0.6166 -3.1903
   50MOL    C6214860   6.862   5.818   4.094 -0.0629  0.1572 -0.1440
   50MOL    C6314861   7.017   5.793   4.120 -0.2484 -0.1121  0.1632
   50MOL    C6414862   7.085   5.929   4.077  0.1455 -0.0453 -0.1134
   50MOL    C6514863   7.047   5.751   4.268 -0.6671 -0.0786 -0.0031
   50MOL    O6614864   7.018   5.640   4.306  0.2453 -0.7606  0.0420
   50MOL    O6714865   7.090   5.855   4.345  0.1861  0.1796  0.0064
   50MOL    C6814866   7.113   5.836   4.480  0.4374 -0.3786  0.8884
   50MOL    H6914867   6.845   5.851   3.992  0.7248 -1.2305 -0.7366
   50MOL    H7014868   6.805   5.726   4.082 -1.9293  1.3566 -0.7158
   50MOL    H7114869   7.174   5.919   4.014 -0.5509 -2.4755 -0.7688
   50MOL    H7214870   7.024   5.982   4.004 -0.1338 -0.6285 -0.3058
   50MOL    H7314871   7.117   5.991   4.160 -0.3080  0.6995 -0.4933
   50MOL    H7414872   7.132   5.731   4.504 -0.2634 -0.6411  0.3198
   50MOL    H7514873   7.044   5.863   4.560  2.0309 -0.7332  2.4084
   50MOL    H7614874   7.204   5.892   4.499  1.3545 -1.4069 -0.3571
   50MOL    C7714875   7.057   5.684   4.024  0.4258  0.7096  0.5257
   50MOL    C7814876   7.201   5.627   4.008 -0.3614  0.4610  0.3193
   50MOL    C7914877   7.213   5.595   3.855 -0.3338  0.3391  0.5199
   50MOL    C8014878   7.315   5.721   4.044 -1.4570 -1.0020 -0.1669
   50MOL    O8114879   7.384   5.770   3.954  0.7470  0.2547 -0.2339
   50MOL    O8214880   7.339   5.744   4.172 -0.1362  0.2496 -0.0263
   50MOL    C8314881   7.443   5.837   4.213 -0.3655  0.5861  0.4665
   50MOL    H8414882   7.029   5.716   3.924  0.5181  0.2015  0.3368
   50MOL    H8514883   6.992   5.598   4.044  3.0822 -1.4565  0.1817
   50MOL    H8614884   7.161   5.499   3.846 -2.5415  1.6005 -0.8453
   50MOL    H8714885   7.175   5.667   3.783 -2.3722 -2.7139 -1.5557
   50MOL    H8814886   7.316   5.579   3.823 -0.4483 -2.2446  1.2935
   50MOL    H8914887   7.409   5.940   4.205 -0.2015  0.4628 -2.3945
   50MOL    H9014888   7.534   5.819   4.155 -1.9939 -0.4546 -1.8583
   50MOL    H9114889   7.485   5.822   4.313  1.7327 -0.3904 -0.5169
   50MOL    C9214890   7.209   5.496   4.096  0.6399  0.1693  0.1279
   50MOL    C9314891   7.325   5.391   4.105  0.4597 -0.0914 -0.2597
   50MOL    C9414892   7.315   5.330   4.254  0.5427  0.1750  0.2163
   50MOL    C9514893   7.293   5.265   4.010 -0.1841 -0.1719  0.0307
   50MOL    O9614894   7.303   5.149   4.047 -0.1356 -0.3224  1.0015
   50MOL    O9714895   7.266   5.300   3.869 -0.8100  0.0920 -0.4454
   50MOL    C9814896   7.228   5.203   3.776  0.0017  0.6020 -0.0735
   50MOL    H9914897   7.122   5.433   4.080  0.3181  1.0375 -1.6371
   50MOL   H10014898   7.189   5.539   4.194 -1.5027  0.1362 -0.2788
   50MOL   H10114899   7.386   5.250   4.276 -1.3379 -2.3325 -2.4340
   50MOL   H10214900   7.326   5.412   4.324  0.0229  2.2095 -2.0105
   50MOL   H10314901   7.210   5.300   4.261  0.5048  0.7195  2.0038
   50MOL   H10414902   7.203   5.257   3.685  1.2122  1.6967  0.2327
   50MOL   H10514903   7.143   5.147   3.816  0.1332 -0.2567 -0.9896
   50MOL   H10614904   7.310   5.133   3.762 -0.1655  0.3817  0.0429
   50MOL   C10714905   7.466   5.439   4.074 -0.5386 -0.4900 -0.6024
   50MOL   C10814906   7.599   5.355   4.035  1.0423  0.2248  0.4102
   50MOL   C10914907   7.617   5.223   4.133  0.2606 -0.4185  0.6462
   50MOL   C11014908   7.587   5.308   3.881 -0.0001  0.5079  0.6890
   50MOL   O11114909   7.619   5.195   3.839  0.7837 -0.1858 -0.1099
   50MOL   O11214910   7.551   5.415   3.815 -0.2241  0.7568  0.0196
   50MOL   C11314911   7.528   5.407   3.678  0.1502  0.3247 -0.5126
   50MOL   H11414912   7.482   5.493   4.167  0.8310 -1.0415 -0.4906
   50MOL   H11514913   7.461   5.520   4.002  0.2543 -0.4399 -0.6068
   50MOL   H11614914   7.545   5.149   4.098  0.1839  1.1353 -2.7273
   50MOL   H11714915   7.717   5.188   4.106  1.4088  1.6846  2.0600
   50MOL   H11814916   7.610   5.246   4.239  0.5705 -0.3110  0.6452
   50MOL   H11914917   7.538   5.509   3.642 -0.7346  0.4002 -0.5447
   50MOL   H12014918   7.427   5.377   3.652 -0.4333  1.7100  0.1246
   50MOL   H12114919   7.608   5.344   3.639  0.7521 -0.6723  2.2048
   50MOL   C12214920   7.720   5.454   4.067  0.0884  0.5132  0.0639
   50MOL   C12314921   7.837   5.500   3.967  0.3515  0.2382 -0.6165
   50MOL   C12414922   0.029   5.375   3.911  0.5111  0.3865  0.1347
   50MOL   C12514923   7.784   5.585   3.845  0.4558  0.3510  0.6173
   50MOL   O12614924   7.829   5.575   3.732 -0.2501  0.1834 -0.3893
   50MOL   O12714925   7.696   5.677   3.873  0.6000  0.3352 -0.0072
   50MOL   C12814926   7.629   5.762   3.779  0.0304 -0.2203  0.9385
   50MOL   H12914927   7.780   5.417   4.149 -1.7935  0.2348  1.3471
   50MOL   H13014928   7.685   5.550   4.106 -0.3512 -0.0087  0.9643
   50MOL   H13114929   7.857   5.338   3.821  2.0430  0.6248 -0.8188
   50MOL   H13214930   0.131   5.402   3.884  1.2612 -0.2727  2.2227
   50MOL   H13314931   0.035   5.295   3.985 -0.3182 -0.8289 -1.0794
   50MOL   H13414932   7.673   5.748   3.680  2.5914 -3.2826  2.4330
   50MOL   H13514933   7.642   5.867   3.806 -0.9072  0.5117 -1.3131
   50MOL   H13614934   7.524   5.734   3.779 -0.2601  0.7328 -0.6276
   50MOL   C13714935   0.078   5.586   4.027 -0.0494 -0.3220 -0.6929
   50MOL   C13814936   0.060   5.694   4.147 -0.5275 -0.3571 -0.1721
   50MOL   C13914937   7.861   5.819   4.088 -0.1689 -0.2540 -0.3099
   50MOL   C14014938   7.872   5.637   4.276 -0.1517  0.5119  0.0362
   50MOL   O14114939   7.767   5.685   4.323 -0.5272  0.0881  0.5819
   50MOL   O14214940   0.065   5.538   4.322 -0.1118 -0.7289  0.8990
   50MOL   C14314941   0.022   5.470   4.442  0.5172 -0.0619 -0.2798
   50MOL   H14414942   0.129   5.627   3.940  1.0399 -1.9645 -0.8555
   50MOL   H14514943   0.151   5.516   4.069  2.7116  2.2106 -1.0992
   50MOL   H14614944   0.023   5.840   3.989 -0.1273  0.1772 -0.2033
   50MOL   H14714945   7.756   5.792   4.076 -0.1251 -0.4324 -0.2706
   50MOL   H14814946   7.863   5.916   4.139  2.0420  0.2369 -1.2820
   50MOL   H14914947   0.069   5.375   4.465 -0.4413 -0.2394  0.9959
   50MOL   H15014948   7.792   5.457   4.429  0.5184 -0.9772  0.6151
   50MOL   H15114949   0.023   5.535   4.529  0.0799 -0.9608  0.3968
   50MOL   C15214950   0.206   5.751   4.177  0.7992 -0.1261  0.1652
   50MOL   C15314951   0.250   5.836   4.305  0.6534  0.7499  0.2900
   50MOL   C15414952   0.142   5.950   4.342 -0.1994  0.1674 -0.0050
   50MOL   C15514953   0.275   5.740   4.424  0.1225  0.0608 -0.8070
   50MOL   O15614954   0.217   5.757   4.533  0.2894 -0.2548  0.1152
   50MOL   O15714955   0.356   5.631   4.395 -0.1599 -0.0758  0.2097
   50MOL   C15814956   0.375   5.528   4.487 -0.2114 -0.0675  0.3848
   50MOL   H15914957   0.224   5.822   4.096  1.2687 -0.6702 -0.2064
   50MOL   H16014958   0.275   5.670   4.154 -0.4231 -1.5192  1.3213
   50MOL   H16114959   0.135   6.025   4.263  2.7036  0.8081  0.2805
   50MOL   H16214960   0.049   5.899   4.368  0.2508 -0.4578  0.3750
   50MOL   H16314961   0.185   6.002   4.427  2.2290  3.3912 -3.0538
   50MOL   H16414962   0.442   5.568   4.563  0.4040 -0.2634 -0.0531
   50MOL   H16514963   0.417   5.441   4.436  2.7597  0.8720  1.1243
   50MOL   H16614964   0.280   5.507   4.536  0.5289 -0.2781  1.7442
   50MOL   C16714965   0.397   5.899   4.270 -0.3953 -0.3389 -0.5526
   50MOL   C16814966   0.490   6.000   4.349  0.2100 -0.7782 -0.0055
   50MOL   C16914967   0.601   6.031   4.252  0.1806 -0.1329  0.1448
   50MOL   C17014968   0.411   6.134   4.379 -0.3565 -1.1880 -0.1195
   50MOL   O17114969   0.356   6.166   4.489 -0.5146 -0.1407  0.5698
   50MOL   O17214970   0.404   6.219   4.275 -0.7287  0.1058  0.9768
   50MOL   C17314971   0.328   6.337   4.273 -0.0626 -0.3383 -0.4675
   50MOL   H17414972   0.383   5.947   4.172  1.1308 -0.5397 -0.8708
   50MOL   H17514973   0.455   5.811   4.243 -0.6437 -0.6497 -0.0739
   50MOL   H17614974   0.673   5.950   4.250  0.0972 -0.1890 -1.1202
   50MOL   H17714975   0.566   6.032   4.149 -2.4563 -2.3086  0.9577
   50MOL   H17814976   0.656   6.123   4.269  0.3027 -0.4839  1.7770
   50MOL   H17914977   0.375   6.430   4.304  0.7678 -1.0330  0.3761
   50MOL   H18014978   0.228   6.317   4.313  0.8627  0.6338  2.4366
   50MOL   H18114979   0.310   6.377   4.173 -1.4565  2.3806  0.7956
   50MOL   C18214980   0.547   5.936   4.479  0.3491  0.3127  0.1233
   50MOL   C18314981   0.669   5.998   4.560 -0.1155 -0.0870  0.0894
   50MOL   C18414982   0.786   5.895   4.536  0.8708  0.1107  1.2038
   50MOL   C18514983   0.724   6.136   4.511 -0.5267 -0.8009  0.0153
   50MOL   O18614984   0.819   6.136   4.433 -0.5873 -0.7796 -0.0252
   50MOL   O18714985   0.646   6.241   4.544  0.3955  0.6146  0.5881
   50MOL   C18814986   0.679   6.376   4.500 -1.1479  0.1897  0.4842
   50MOL   H18914987   0.562   5.830   4.459  0.6936  0.3256  0.3071
   50MOL   H19014988   0.465   5.928   4.551 -0.3009  0.7614 -0.5608
   50MOL   H19114989   0.811   5.878   4.431 -4.2324 -1.6280  0.1415
   50MOL   H19214990   0.875   5.932   4.587  1.5080  1.1308 -0.5842
   50MOL   H19314991   0.761   5.800   4.582 -2.5312 -0.5041 -1.6827
   50MOL   H19414992   0.779   6.405   4.532 -0.9270 -0.7677  0.6728
   50MOL   H19514993   0.616   6.443   4.559 -1.4367  0.3678 -0.0172
   50MOL   H19614994   0.656   6.384   4.393 -0.5071 -2.4233  0.1180
   50MOL   C19714995   0.633   6.021   4.713  0.8032 -0.0966 -0.0297
   50MOL   C19814996   0.628   5.908   4.820  0.3641 -0.3282  0.7132
   50MOL   C19914997   0.529   5.797   4.776  0.6972 -0.4432  0.1921
   50MOL   C20014998   0.770   5.858   4.836 -0.2296 -0.4791 -0.0908
   50MOL   O20114999   0.862   5.934   4.822 -0.6923 -0.3144 -0.3177
   50MOL   O20215000   0.778   5.726   4.852  0.4495  0.1191  0.6733
   50MOL   C20315001   0.901   5.654   4.874  0.1332  0.5721 -0.0528
   50MOL   H20415002   0.539   6.076   4.715  0.7479 -0.0913 -1.6454
   50MOL   H20515003   0.690   6.104   4.754  0.3854  0.1425  0.0584
   50MOL   H20615004   0.526   5.702   4.830 -2.8909  0.5943  2.0035
   50MOL   H20715005   0.426   5.831   4.785  1.7976  2.8276  1.2407
   50MOL   H20815006   0.538   5.772   4.671 -0.0534 -0.0935  0.0432
   50MOL   H20915007   0.986   5.688   4.815  0.0701 -1.6864 -1.5035
   50MOL   H21015008   0.873   5.550   4.855  0.1151  0.4047  0.8629
   50MOL   H21115009   0.926   5.664   4.980 -2.0970  1.4439  0.4330
   50MOL   C21215010   0.573   5.974   4.948  0.0312 -0.9692  0.5951
   50MOL   C21315011   0.544   5.899   5.081  0.4114  0.1215  0.3087
   50MOL   C21415012   0.421   5.802   5.074 -0.4907  0.1270 -0.3756
   50MOL   C21515013   0.667   5.826   5.132  0.4504  0.3331  0.1828
   50MOL   O21615014   0.784   5.880   5.130  0.5895 -0.0934 -0.2416
   50MOL   O21715015   0.640   5.708   5.200  0.7139  0.8197  0.4603
   50MOL   C21815016   0.742   5.641   5.261 -0.5129  0.4769 -0.8780
   50MOL   H21915017   0.482   6.026   4.917  0.5399 -0.5866 -0.2634
   50MOL   H22015018   0.647   6.049   4.976  0.4719 -0.8520 -0.8204
   50MOL   H22115019   0.394   5.773   5.175 -0.1916 -0.3513 -0.4306
   50MOL   H22215020   0.342   5.843   5.011 -1.0037 -0.8632 -0.3898
   50MOL   H22315021   0.451   5.707   5.030  2.6857  1.6827 -1.7699
   50MOL   H22415022   0.710   5.542   5.294  1.9077 -0.2262 -0.5155
   50MOL   H22515023   0.781   5.688   5.350  1.3066 -0.0243 -1.3884
   50MOL   H22615024   0.812   5.620   5.180 -0.3754  0.8890 -0.8642
   50MOL   C22715025   0.512   5.994   5.196 -0.2011  0.1605  0.1589
   50MOL   C22815026   0.372   6.078   5.211  0.4376  1.0506  0.6930
   50MOL   C22915027   0.316   6.139   5.075  0.2399  0.2210  0.6820
   50MOL   C23015028   0.264   5.983   5.283  0.1737 -0.1798 -0.2555
   50MOL   O23115029   0.159   5.960   5.228 -0.1742 -0.2443 -0.4610
   50MOL   O23215030   0.308   5.934   5.397  0.2711 -0.3280  0.0505
   50MOL   C23315031   0.247   5.829   5.463  0.3759 -0.8104  0.9063
   50MOL   H23415032   0.580   6.076   5.174 -0.8404  0.4591 -0.7093
   50MOL   H23515033   0.547   5.959   5.293 -1.2312  0.4077  0.6164
   50MOL   H23615034   0.220   6.187   5.096 -2.0343 -4.2146  0.8908
   50MOL   H23715035   0.384   6.209   5.027  0.4000 -1.6301 -1.8754
   50MOL   H23815036   0.286   6.064   5.003  0.2809 -0.1719  1.0715
   50MOL   H23915037   0.324   5.795   5.532  1.7935  2.4797  1.0455
   50MOL   H24015038   0.225   5.754   5.387  0.6944  0.4908 -0.5006
   50MOL   H24115039   0.156   5.863   5.512  0.2907 -0.4618  0.5128
   50MOL   C24215040   0.417   6.191   5.306 -0.4058 -0.4212  0.5749
   50MOL   C24315041   0.328   6.314   5.364 -1.1078 -0.0145  0.2090
   50MOL   C24415042   0.270   6.396   5.243  0.3248  0.6994  0.0318
   50MOL   C24515043   0.218   6.252   5.453 -0.5450  0.5968  0.5745
   50MOL   O24615044   0.239   6.180   5.544  0.6550  0.0841 -0.2183
   50MOL   O24715045   0.094   6.301   5.422  0.2573 -0.0480 -0.1783
   50MOL   C24815046   7.862   6.237   5.491  0.5634 -0.5781  1.0788
   50MOL   H24915047   0.505   6.236   5.260 -0.6243 -0.9406 -0.3476
   50MOL   H25015048   0.463   6.148   5.395  1.6166  1.2303  0.3859
   50MOL   H25115049   0.240   6.495   5.277 -1.7929 -0.5957  2.0575
   50MOL   H25215050   0.341   6.413   5.161 -2.0699 -0.0803 -2.2651
   50MOL   H25315051   0.182   6.355   5.193  0.7879  0.5804 -0.6954
   50MOL   H25415052   7.830   6.139   5.455 -0.0306  0.1092 -0.3111
   50MOL   H25515053   7.772   6.297   5.491 -0.9808 -2.8012 -0.2529
   50MOL   H25615054   0.013   6.231   5.596 -1.0779  1.7640  1.6808
   50MOL   C25715055   0.428   6.411   5.451 -0.3244  0.2145  0.3416
   50MOL   C25815056   0.387   6.510   5.564  0.1398  0.9139 -0.9415
   50MOL   C25915057   0.261   6.588   5.521 -0.0152  0.1730  0.5112
   50MOL   C26015058   0.350   6.426   5.698 -0.1745 -0.8202  0.1798
   50MOL   O26115059   0.408   6.326   5.735 -0.3205 -0.0481  0.3296
   50MOL   O26215060   0.251   6.482   5.753  0.2339  0.1543  0.0663
   50MOL   C26315061   0.193   6.423   5.865 -0.4031  0.0106  0.0940
   50MOL   H26415062   0.470   6.480   5.377  1.8877 -0.4334  0.9574
   50MOL   H26515063   0.512   6.349   5.482  0.5629  0.6373 -1.1682
   50MOL   H26615064   0.242   6.677   5.581  1.6704 -0.0343  1.3862
   50MOL   H26715065   0.280   6.636   5.424  0.4774 -0.1364  0.4521
   50MOL   H26815066   0.180   6.517   5.507  0.2539 -0.1261  0.4754
   50MOL   H26915067   0.085   6.409   5.857 -0.0022 -2.5574 -1.2826
   50MOL   H27015068   0.196   6.492   5.949 -0.4475 -0.7515  0.7266
   50MOL   H27115069   0.235   6.326   5.891  0.9142  0.9220  1.4657
   50MOL   C27215070   0.487   6.624   5.614 -0.2884  0.1136  0.4101
   50MOL   C27315071   0.559   6.733   5.523  0.0741  0.6934 -0.7232
   50MOL   C27415072   0.645   6.691   5.397  0.0013  0.3939 -0.2746
   50MOL   C27515073   0.457   6.839   5.491  0.1273 -0.0627  0.5397
   50MOL   O27615074   0.422   6.868   5.377 -0.3363  0.0703  0.1166
   50MOL   O27715075   0.395   6.888   5.601 -0.0012  0.1792 -0.6235
   50MOL   C27815076   0.279   6.963   5.579 -0.0818  0.5426 -0.5499
   50MOL   H27915077   0.565   6.555   5.647 -1.7413 -2.1349 -0.7042
   50MOL   H28015078   0.457   6.670   5.708 -2.7903 -0.4189 -0.0934
   50MOL   H28115079   0.728   6.620   5.410  0.0660  0.9142  2.5465
   50MOL   H28215080   0.577   6.655   5.320  1.4367  0.6265 -1.6885
   50MOL   H28315081   0.696   6.779   5.360 -1.7430  2.2378  1.5963
   50MOL   H28415082   0.304   7.068   5.562 -1.7981  1.0764  0.1592
   50MOL   H28515083   0.211   6.961   5.664 -1.3338 -0.9397 -1.5665
   50MOL   H28615084   0.221   6.920   5.498  1.3333 -0.2290 -1.1773
   50MOL   C28715085   0.657   6.808   5.619 -0.8170 -0.3416 -0.0623
   50MOL   C28815086   0.755   6.926   5.579  0.7503 -0.2346 -0.1810
   50MOL   C28915087   0.681   7.048   5.515 -0.6998 -0.1323  1.3770
   50MOL   C29015088   0.847   6.971   5.691 -0.2658  0.0882 -0.3957
   50MOL   O29115089   0.920   7.066   5.676 -0.4252 -0.0037 -0.0961
   50MOL   O29215090   0.839   6.908   5.813  0.2210  0.2382 -0.2740
   50MOL   C29315091   0.941   6.929   5.903  0.3171  0.5822  0.4159
   50MOL   H29415092   0.727   6.728   5.643  0.4037  1.0421  1.1126
   50MOL   H29515093   0.610   6.834   5.714 -1.2268  0.8417 -0.5864
   50MOL   H29615094   0.653   7.038   5.410  0.6082 -0.5498  1.0489
   50MOL   H29715095   0.596   7.080   5.574 -1.5331  1.0408 -0.4318
   50MOL   H29815096   0.750   7.132   5.505  1.1385 -1.6270  1.0009
   50MOL   H29915097   0.926   6.876   5.997 -0.2532 -0.9670 -0.5346
   50MOL   H30015098   0.979   7.030   5.917  1.4913  0.3536 -1.0003
   50MOL   H30115099   1.030   6.878   5.867 -0.8682 -0.4159 -1.1445
   50MOL   H30215100   0.828   6.885   5.509  1.2359  2.2420 -1.1744
   51MOL     C115101   4.816   1.731   0.337 -0.5406 -0.2603  0.0621
   51MOL     C215102   4.946   1.734   0.416  0.6327  0.2164 -0.4743
   51MOL     C315103   4.936   1.846   0.528  0.0036  0.9343  0.4562
   51MOL     C415104   4.954   1.605   0.495  0.3485 -0.2098  0.0273
   51MOL     O515105   4.859   1.524   0.504 -0.0474  0.1597 -0.1002
   51MOL     O615106   5.076   1.588   0.545 -0.3809 -0.7044 -0.4172
   51MOL     C715107   5.106   1.462   0.606 -0.0213 -0.3122  0.0432
   51MOL     H815108   4.817   1.828   0.286  0.4027  0.0760  0.7082
   51MOL     H915109   4.791   1.653   0.265  0.2654 -0.8844  0.4555
   51MOL    H1015110   5.019   1.839   0.598 -1.0003  2.1996  1.7801
   51MOL    H1115111   4.944   1.947   0.488 -1.4289  0.3794 -1.2879
   51MOL    H1215112   4.847   1.843   0.591  0.0382 -2.7765  0.4574
   51MOL    H1315113   5.195   1.476   0.667 -0.6827  3.0655  0.3038
   51MOL    H1415114   5.137   1.392   0.528 -0.4814 -0.8159  0.3017
   51MOL    H1515115   5.018   1.424   0.657  0.8486 -1.2621  0.8579
   51MOL    H1615116   4.734   1.740   0.407  1.1505  0.5868  1.9732
   51MOL    C1715117   5.078   1.765   0.330  0.0858 -0.2298 -0.6852
   51MOL    C1815118   5.125   1.690   0.201 -0.0242  0.6223 -0.4176
   51MOL    C1915119   5.109   1.537   0.222  0.6178 -0.6082  0.1811
   51MOL    C2015120   5.023   1.717   0.087 -0.8359  0.1277  0.2327
   51MOL    O2115121   4.946   1.815   0.083 -0.2065 -0.5238 -0.4541
   51MOL    O2215122   5.054   1.645   7.854 -0.1911  1.2450 -0.0941
   51MOL    C2315123   4.990   1.658   7.733 -0.1408  0.5289 -0.1628
   51MOL    H2415124   5.161   1.771   0.400 -1.2350  1.1646  0.8279
   51MOL    H2515125   5.074   1.868   0.293  0.7458  0.4488  1.0880
   51MOL    H2615126   5.009   1.495   0.229  0.5609 -0.2541  1.6116
   51MOL    H2715127   5.168   1.482   0.148  0.9844 -2.4968  1.8370
   51MOL    H2815128   5.157   1.504   0.314 -1.3140  1.6495  2.0786
   51MOL    H2915129   5.015   1.744   7.671  0.0362  0.5557 -0.0528
   51MOL    H3015130   4.883   1.673   7.750 -0.1946 -0.5419  0.4688
   51MOL    H3115131   5.009   1.573   7.668 -1.2937  0.2383 -0.1311
   51MOL    C3215132   5.278   1.721   0.153  0.0473 -0.3492  0.4443
   51MOL    C3315133   5.329   1.866   0.111  0.3576  0.6676  0.1631
   51MOL    C3415134   5.234   1.953   0.019  0.1886  0.1488 -0.0869
   51MOL    C3515135   5.353   1.951   0.238 -0.3726 -0.0664 -1.0132
   51MOL    O3615136   5.330   1.905   0.350 -0.5664  0.8650  0.1494
   51MOL    O3715137   5.368   2.077   0.216  0.0265 -0.6218  0.1847
   51MOL    C3815138   5.392   2.159   0.326  0.2584  0.5799 -0.5186
   51MOL    H3915139   5.294   1.655   0.068 -0.5474  0.2621 -0.1479
   51MOL    H4015140   5.337   1.673   0.231  0.3595 -0.3045  0.2349
   51MOL    H4115141   5.143   1.987   0.068  0.5152  2.0628 -0.7735
   51MOL    H4215142   5.281   2.042   7.854 -0.5088 -0.1822 -1.6036
   51MOL    H4315143   5.208   1.886   7.815  0.6241  0.1625 -0.2396
   51MOL    H4415144   5.469   2.113   0.387 -1.0719 -0.6494  0.2752
   51MOL    H4515145   5.301   2.170   0.386 -0.8855 -1.0122 -1.9054
   51MOL    H4615146   5.433   2.256   0.297  1.4143  0.0444 -0.6713
   51MOL    C4715147   5.460   1.856   0.027 -0.3254  0.1578 -1.0102
   51MOL    C4815148   5.588   1.778   0.080  0.1223  0.2693  0.2965
   51MOL    C4915149   5.610   1.799   0.233 -0.3289 -0.1873  0.2613
   51MOL    C5015150   5.584   1.625   0.059 -0.4572  0.9724  0.4434
   51MOL    O5115151   5.500   1.570   7.869  0.0200 -0.3566 -0.3074
   51MOL    O5215152   5.689   1.550   0.116 -0.2261  0.5368  0.1404
   51MOL    C5315153   5.674   1.411   0.121 -0.2746  0.1643 -0.4308
   51MOL    H5415154   5.498   1.957   0.015 -0.9446  0.3566 -1.2945
   51MOL    H5515155   5.421   1.816   7.810 -1.3358 -0.6874 -0.2486
   51MOL    H5615156   5.529   1.771   0.300 -1.5284 -0.7739 -1.3979
   51MOL    H5715157   5.701   1.749   0.268  1.0541  0.2498 -2.5370
   51MOL    H5815158   5.630   1.904   0.252 -1.1513  0.0479 -0.1827
   51MOL    H5915159   5.567   1.394   0.128 -0.3260  0.3414 -0.7694
   51MOL    H6015160   5.724   1.376   0.211 -1.9438  2.7709  1.5820
   51MOL    H6115161   5.702   1.363   0.027 -2.1339  0.0543 -0.9483
   51MOL    C6215162   5.719   1.841   0.013  0.6011 -0.0091 -0.4293
   51MOL    C6315163   5.762   1.835   7.740 -0.9120 -0.4453  0.2574
   51MOL    C6415164   5.767   1.698   7.681  0.6181 -0.1896 -0.1139
   51MOL    C6515165   5.668   1.928   7.654  0.3744 -0.8315 -0.4553
   51MOL    O6615166   5.647   2.049   7.677  0.0195  0.8361 -0.3541
   51MOL    O6715167   5.611   1.859   7.549 -0.3892 -0.0189 -0.2077
   51MOL    C6815168   5.508   1.905   7.460  0.2722 -0.7150 -0.2849
   51MOL    H6915169   5.794   1.790   0.073 -1.1253 -1.5345  0.4918
   51MOL    H7015170   5.722   1.943   0.051 -1.3238 -0.5528  1.2584
   51MOL    H7115171   5.791   1.692   7.575 -3.0430 -0.5509 -0.9665
   51MOL    H7215172   5.828   1.632   7.743  0.7201  0.8206  0.8708
   51MOL    H7315173   5.669   1.652   7.670  0.1562  0.2536  2.0285
   51MOL    H7415174   5.424   1.841   7.485 -0.1050  0.0309  0.3856
   51MOL    H7515175   5.532   1.907   7.354 -2.3990 -0.5752 -0.9237
   51MOL    H7615176   5.471   2.002   7.493 -2.6907 -1.9095  0.0565
   51MOL    C7715177   5.916   1.891   7.740  0.1611  0.6256  0.6830
   51MOL    C7815178   5.979   1.969   7.622  0.1332  0.3953  0.2960
   51MOL    C7915179   5.941   1.913   7.479 -0.5372 -0.7495  0.1153
   51MOL    C8015180   5.944   2.122   7.637  0.4222  0.9902 -0.3230
   51MOL    O8115181   5.952   2.182   7.745  0.0036 -0.3872  0.3505
   51MOL    O8215182   5.907   2.187   7.524 -0.4078 -0.4009 -0.0554
   51MOL    C8315183   5.859   2.318   7.523 -0.3252 -0.0549  0.3617
   51MOL    H8415184   5.977   1.802   7.758 -0.2089  0.1282 -0.4474
   51MOL    H8515185   5.922   1.958   7.825 -0.4656  1.3647  0.1428
   51MOL    H8615186   5.835   1.901   7.459 -0.7427  1.1123 -0.0333
   51MOL    H8715187   5.977   1.976   7.398 -1.8262 -2.8443 -2.1579
   51MOL    H8815188   5.989   1.815   7.470 -2.3366 -1.7012  0.5524
   51MOL    H8915189   5.904   2.379   7.600 -2.5343  1.0024  0.8683
   51MOL    H9015190   5.756   2.305   7.555 -1.0231  0.3620 -1.5930
   51MOL    H9115191   5.864   2.363   7.424 -1.8008  0.4936  0.5236
   51MOL    C9215192   6.133   1.940   7.658 -0.3305  0.5025 -0.8429
   51MOL    C9315193   6.257   1.975   7.568 -0.0772  0.9209 -0.5625
   51MOL    C9415194   6.242   2.115   7.509 -0.5980 -0.1313 -0.1550
   51MOL    C9515195   6.382   1.971   7.655  0.1807  0.0948  0.6547
   51MOL    O9615196   6.464   2.063   7.651  0.6704  0.5939 -0.2251
   51MOL    O9715197   6.400   1.853   7.720 -0.2029 -0.3562  0.6637
   51MOL    C9815198   6.520   1.839   7.798  0.2884  0.1788 -0.3010
   51MOL    H9915199   6.160   1.840   7.692  0.4467  0.3297 -1.9336
   51MOL   H10015200   6.146   1.996   7.751  0.8999  0.7794 -1.1707
   51MOL   H10115201   6.223   2.190   7.586 -1.1678  1.2137 -1.5750
   51MOL   H10215202   6.331   2.151   7.458  0.4098 -1.0809  0.9226
   51MOL   H10315203   6.151   2.118   7.449 -0.9163 -2.3289  0.1631
   51MOL   H10415204   6.492   1.872   0.021  1.2232  0.1546 -0.0260
   51MOL   H10515205   6.600   1.903   7.762  1.0192 -0.5216  0.0546
   51MOL   H10615206   6.548   1.734   7.787  0.5513  0.4635 -2.5206
   51MOL   C10715207   6.264   1.870   7.455 -0.4894 -0.0299 -0.7085
   51MOL   C10815208   6.395   1.847   7.353 -0.3499 -0.6088  0.8490
   51MOL   C10915209   6.470   1.981   7.323  0.0395 -0.4447  0.2393
   51MOL   C11015210   6.503   1.755   7.426  0.0840 -0.5945  0.7408
   51MOL   O11115211   6.625   1.761   7.396  0.5974  0.8530 -0.6228
   51MOL   O11215212   6.447   1.670   7.506  0.2206 -0.0876  0.2022
   51MOL   C11315213   6.531   1.571   7.568  0.2837  0.1014 -0.1300
   51MOL   H11415214   6.190   1.896   7.380 -0.2023 -2.2796 -1.8162
   51MOL   H11515215   6.223   1.775   7.489  1.0541 -0.1012  1.0304
   51MOL   H11615216   6.397   2.044   7.272  0.0061 -1.1650 -0.6201
   51MOL   H11715217   6.515   2.019   7.414  1.6163 -0.2383 -0.6026
   51MOL   H11815218   6.560   1.961   7.264 -0.1129 -0.9026  0.1590
   51MOL   H11915219   6.484   1.523   7.655 -0.3774  1.2558  0.1657
   51MOL   H12015220   6.624   1.617   7.601  0.5888 -1.0402  0.6316
   51MOL   H12115221   6.565   1.491   7.503 -0.0848 -1.5883  1.6919
   51MOL   C12215222   6.323   1.795   7.216 -0.6009  0.1605 -0.3694
   51MOL   C12315223   6.390   1.713   7.102 -0.2719  0.3912  0.5578
   51MOL   C12415224   6.533   1.760   7.072 -0.0080  0.0479  0.2776
   51MOL   C12515225   6.404   1.565   7.145  0.1311 -0.3774  0.6617
   51MOL   O12615226   6.370   1.521   7.258 -0.6297  0.4179  0.1423
   51MOL   O12715227   6.459   1.491   7.047 -0.1743 -0.1846  0.0359
   51MOL   C12815228   6.466   1.354   7.060 -0.0603  0.6352 -0.2952
   51MOL   H12915229   6.296   1.881   7.156  2.2194  0.9462 -0.5632
   51MOL   H13015230   6.233   1.736   7.239  1.4305 -2.6370  0.7102
   51MOL   H13115231   6.541   1.868   7.060  0.1008 -0.0400 -0.4685
   51MOL   H13215232   6.603   1.721   7.145 -0.5570 -0.8805  0.3028
   51MOL   H13315233   6.560   1.728   6.971 -1.6780 -0.4592 -0.0245
   51MOL   H13415234   6.365   1.314   7.071  0.3624  0.0185  1.5158
   51MOL   H13515235   6.524   1.322   7.147 -0.8772  0.6458  0.2512
   51MOL   H13615236   6.517   1.316   6.971 -0.8218  0.0060 -0.4663
   51MOL   C13715237   6.316   1.738   6.964  0.4130 -0.3644  0.1373
   51MOL   C13815238   6.179   1.669   6.914  0.9109 -0.1860  0.2002
   51MOL   C13915239   6.189   1.503   6.931 -0.9715 -0.4272 -0.1328
   51MOL   C14015240   6.064   1.711   7.011  0.3069  0.0527 -0.1234
   51MOL   O14115241   6.064   1.816   7.072 -0.4912 -0.0301  0.1898
   51MOL   O14215242   5.969   1.624   7.020 -0.2421 -0.2403  0.4560
   51MOL   C14315243   5.848   1.648   7.090 -0.6625  0.7398 -0.4641
   51MOL   H14415244   6.382   1.699   6.887  1.5377  0.9608  0.4152
   51MOL   H14515245   6.306   1.843   6.937  1.9365 -0.6919 -1.7946
   51MOL   H14615246   6.203   1.486   7.038 -2.3764  1.9575  0.4649
   51MOL   H14715247   6.101   1.450   6.893  1.0111 -1.9972 -2.6868
   51MOL   H14815248   6.274   1.464   6.876 -1.6975 -0.7634 -1.0285
   51MOL   H14915249   5.842   1.728   7.164 -1.6433  0.8267 -0.6343
   51MOL   H15015250   5.835   1.566   7.161 -0.2365  1.6194  0.6409
   51MOL   H15115251   5.765   1.667   7.023 -0.6892  0.8461 -0.4016
   51MOL   C15215252   6.149   1.681   6.762 -0.7047  0.3580  0.4205
   51MOL   C15315253   6.054   1.792   6.707 -0.9395 -0.3807 -0.0222
   51MOL   C15415254   6.039   1.765   6.555 -0.1686 -0.6557 -0.2321
   51MOL   C15515255   5.911   1.771   6.755 -0.0699 -0.0412  0.3369
   51MOL   O15615256   5.843   1.860   6.819  0.2609  0.0719  0.1066
   51MOL   O15715257   5.877   1.643   6.733 -0.2418  0.9342 -0.2292
   51MOL   C15815258   5.745   1.593   6.756 -0.3868  0.9149 -0.2997
   51MOL   H15915259   6.108   1.585   6.732 -1.4554  0.0381  2.3678
   51MOL   H16015260   6.246   1.682   6.713 -0.2614  0.8133  1.2904
   51MOL   H16115261   6.130   1.783   6.498  0.6222 -0.1534  1.1760
   51MOL   H16215262   5.991   1.676   6.512 -0.1085 -0.1088 -1.4692
   51MOL   H16315263   5.967   1.840   6.522  0.3497  0.4878  1.2065
   51MOL   H16415264   5.692   1.657   6.826  1.1537 -0.5451  2.2762
   51MOL   H16515265   5.761   1.489   6.784 -0.9390  0.4330 -1.7276
   51MOL   H16615266   5.688   1.602   6.664 -1.1862 -2.0305 -0.1191
   51MOL   C16715267   6.103   1.943   6.737  0.4974  0.4470  0.1993
   51MOL   C16815268   6.220   2.002   6.645  0.1191 -0.5238  0.0166
   51MOL   C16915269   6.348   1.920   6.635 -0.2567  0.7099 -1.1129
   51MOL   C17015270   6.170   2.044   6.503  0.9405 -0.5256  0.6335
   51MOL   O17115271   6.050   2.067   6.483 -0.5177  0.8801 -0.0160
   51MOL   O17215272   6.262   2.058   6.422  0.3144 -0.3000 -0.6748
   51MOL   C17315273   6.238   2.148   6.310 -0.0973  0.0071 -0.0653
   51MOL   H17415274   6.129   1.947   6.843  0.4426  1.5442  0.1819
   51MOL   H17515275   6.017   2.009   6.725 -1.1106 -1.7872 -0.7747
   51MOL   H17615276   6.383   1.866   6.723  0.6145  0.5380 -1.5545
   51MOL   H17715277   6.343   1.849   6.552  1.7608  0.0702 -0.7314
   51MOL   H17815278   6.436   1.977   6.602  0.2531  0.2926 -0.4909
   51MOL   H17915279   6.176   2.100   6.234 -0.1498  2.1773 -1.4303
   51MOL   H18015280   6.333   2.168   6.261 -1.1134 -1.9672 -2.9343
   51MOL   H18115281   6.200   2.243   6.348  1.7065  0.2376  1.2123
   51MOL   C18215282   6.274   2.136   6.707  0.4899 -1.0878 -0.0117
   51MOL   C18315283   6.186   2.251   6.777 -0.3230 -0.3602 -0.4985
   51MOL   C18415284   6.062   2.302   6.690 -0.4087 -0.2984  0.6776
   51MOL   C18515285   6.125   2.206   6.919 -0.4172  0.5471  0.7260
   51MOL   O18615286   6.008   2.169   6.921 -0.0907 -0.5259  0.8624
   51MOL   O18715287   6.212   2.219   7.026 -0.2355  0.4812 -0.1551
   51MOL   C18815288   6.159   2.188   7.152 -0.5912 -0.7065 -0.3523
   51MOL   H18915289   6.349   2.181   6.643  2.3497  0.2123  2.9796
   51MOL   H19015290   6.350   2.112   6.782  0.2345 -1.0027  0.2787
   51MOL   H19115291   6.001   2.378   6.739  0.9540  1.0670  0.2996
   51MOL   H19215292   6.074   2.321   6.583  2.4317 -1.9217  0.6686
   51MOL   H19315293   5.991   2.223   6.664 -0.3221  0.8238 -3.3494
   51MOL   H19415294   6.239   2.199   7.225  0.2470 -0.7992 -1.2548
   51MOL   H19515295   6.144   2.080   7.148 -0.1460 -0.7403 -1.0864
   51MOL   H19615296   6.064   2.230   7.187 -2.0339  0.6201 -5.4936
   51MOL   C19715297   6.281   2.373   6.815 -0.0319 -0.0373 -0.1961
   51MOL   C19815298   6.326   2.489   6.719  0.8347  0.2672  0.3467
   51MOL   C19915299   6.378   2.442   6.581  0.5697 -0.3107  0.0927
   51MOL   C20015300   6.199   2.574   6.689 -0.6138 -0.0716 -0.1373
   51MOL   O20115301   6.183   2.633   6.587  0.3750  0.1604  0.1122
   51MOL   O20215302   6.121   2.597   6.795 -0.5429  0.2348  0.2062
   51MOL   C20315303   6.009   2.684   6.776 -0.3345  0.2476  0.0429
   51MOL   H20415304   6.362   2.317   6.860  1.2559  1.6541 -0.3635
   51MOL   H20515305   6.243   2.430   6.900 -1.2593 -1.2282  0.0652
   51MOL   H20615306   6.421   2.525   6.525  0.6124 -0.6678 -0.3987
   51MOL   H20715307   6.447   2.360   6.597  1.3111  0.8816  3.5048
   51MOL   H20815308   6.290   2.401   6.531  0.9402 -1.5749  0.4651
   51MOL   H20915309   6.020   2.778   6.723 -0.6597  0.1899 -0.1296
   51MOL   H21015310   5.971   2.719   6.871  1.0699  0.2622  0.6178
   51MOL   H21115311   5.934   2.629   6.719  0.1166  1.3886 -1.6944
   51MOL   C21215312   6.431   2.582   6.789  0.1369 -0.2992  0.3770
   51MOL   C21315313   6.531   2.547   6.905  0.2206 -0.0482 -1.1209
   51MOL   C21415314   6.446   2.526   7.040 -0.3882  0.9306 -0.0470
   51MOL   C21515315   6.618   2.427   6.863  0.1706 -0.4524 -0.4798
   51MOL   O21615316   6.625   2.328   6.934 -0.4846 -0.1418 -0.3670
   51MOL   O21715317   6.687   2.447   6.756  0.4275  0.4754  0.1866
   51MOL   C21815318   6.778   2.342   6.712  0.2445  0.1532 -0.3580
   51MOL   H21915319   6.372   2.664   6.831 -0.3731 -0.0500 -0.8058
   51MOL   H22015320   6.481   2.634   6.707  1.3175  0.0429  1.2909
   51MOL   H22115321   6.355   2.585   7.037 -0.4159  0.9067  0.2944
   51MOL   H22215322   6.410   2.423   7.048 -1.4257  1.4404  2.2897
   51MOL   H22315323   6.508   2.520   7.129  0.4484 -1.2620 -0.7263
   51MOL   H22415324   6.726   2.265   6.655 -0.4866 -1.6394  2.6403
   51MOL   H22515325   6.825   2.279   6.787 -2.6690  1.2798  2.5287
   51MOL   H22615326   6.849   2.394   6.648  2.2785 -0.0681  1.6652
   51MOL   C22715327   6.609   2.677   6.937 -0.2683 -0.7303  0.6184
   51MOL   C22815328   6.759   2.679   7.002  0.7554 -0.3477 -0.0209
   51MOL   C22915329   6.768   2.593   7.130 -0.5433  0.1488 -0.3825
   51MOL   C23015330   6.862   2.641   6.895  0.0051  0.7873  0.1301
   51MOL   O23115331   6.945   2.557   6.916 -0.3782 -0.9695 -0.2144
   51MOL   O23215332   6.846   2.716   6.780  0.4700  0.2130  0.6260
   51MOL   C23315333   6.931   2.685   6.672  0.3144  0.0604 -0.0014
   51MOL   H23415334   6.552   2.751   6.992 -0.2870  1.1437 -1.8598
   51MOL   H23515335   6.604   2.723   6.838 -2.2592 -2.9660 -0.3692
   51MOL   H23615336   6.756   2.486   7.109 -1.7191  0.4339 -1.2107
   51MOL   H23715337   6.868   2.588   7.173 -0.2915  0.7414 -0.8910
   51MOL   H23815338   6.695   2.621   7.206 -0.6695 -0.5618 -0.2395
   51MOL   H23915339   6.980   2.589   6.685 -2.2307 -1.1608  0.9882
   51MOL   H24015340   7.002   2.762   6.644  0.8131  0.2916  1.8097
   51MOL   H24115341   6.863   2.680   6.587  1.0120  0.8697 -0.6119
   51MOL   C24215342   6.790   2.819   7.067 -0.2702  0.2457  0.2260
   51MOL   C24315343   6.814   2.962   7.001 -0.0766  1.1056  0.8585
   51MOL   C24415344   6.815   3.072   7.109  0.2365  0.2263 -0.0289
   51MOL   C24515345   6.961   2.962   6.938 -0.3142  0.4195  0.2834
   51MOL   O24615346   6.989   3.002   6.822 -0.0182 -0.4366 -0.2045
   51MOL   O24715347   7.052   2.920   7.027 -0.4646 -0.1238 -0.4722
   51MOL   C24815348   7.189   2.927   6.998  0.3155 -0.5824  0.2887
   51MOL   H24915349   6.877   2.796   7.127 -0.5175 -0.2723  0.3867
   51MOL   H25015350   6.724   2.838   7.151  0.2427 -0.7890  0.8606
   51MOL   H25115351   6.889   3.044   7.184  0.3190 -0.0924 -0.2280
   51MOL   H25215352   6.846   3.172   7.078  0.2529  0.2065 -0.0763
   51MOL   H25315353   6.718   3.079   7.157  1.0373  0.3323  1.6014
   51MOL   H25415354   7.227   2.876   6.910 -0.0977 -1.8266  0.8143
   51MOL   H25515355   7.237   2.884   7.087 -0.4042 -0.2226  0.8566
   51MOL   H25615356   7.220   3.031   7.008  1.6754 -0.8254 -1.2736
   51MOL   C25715357   6.696   2.990   6.901  0.4005  0.4191  0.1368
   51MOL   C25815358   6.680   3.117   6.798  0.2104  0.3284 -0.2479
   51MOL   C25915359   6.708   3.254   6.857 -0.5064 -0.0215 -0.4771
   51MOL   C26015360   6.767   3.098   6.667  0.0495 -0.1652  0.0572
   51MOL   O26115361   6.834   3.189   6.616 -0.0728  0.0415 -0.2581
   51MOL   O26215362   6.748   2.977   6.616  0.1020 -0.0975  0.3496
   51MOL   C26315363   6.799   2.947   6.490  0.1992 -0.6939 -0.0626
   51MOL   H26415364   6.598   2.968   6.945  0.7198 -0.8539  0.2476
   51MOL   H26515365   6.681   2.902   6.838 -2.4465  1.8879 -1.3556
   51MOL   H26615366   6.645   3.272   6.944  0.3371  1.1073 -0.0890
   51MOL   H26715367   6.813   3.265   6.886 -0.6246  1.0860 -0.4652
   51MOL   H26815368   6.687   3.332   6.784  3.4811  0.9894 -0.6722
   51MOL   H26915369   6.904   2.974   6.500  0.6330 -1.9758 -1.1733
   51MOL   H27015370   6.751   3.016   6.420  1.0598 -1.2894 -1.2387
   51MOL   H27115371   6.790   2.845   6.454 -2.3894 -1.0637  1.5019
   51MOL   C27215372   6.527   3.121   6.770 -0.0492 -1.0270  0.1278
   51MOL   C27315373   6.447   3.173   6.641  0.4178  0.3492  0.0761
   51MOL   C27415374   6.490   3.320   6.613  0.5655 -0.0035  0.7177
   51MOL   C27515375   6.457   3.082   6.519 -0.3904  0.3718 -0.0795
   51MOL   O27615376   6.526   3.110   6.424 -0.4400 -0.3480  0.6102
   51MOL   O27715377   6.417   2.959   6.555  0.3992 -0.9976  0.3867
   51MOL   C27815378   6.453   2.851   6.476  0.0692 -0.4904  0.8241
   51MOL   H27915379   6.483   3.182   6.849  0.7398  1.5611 -1.3719
   51MOL   H28015380   6.486   3.021   6.785 -1.6065 -0.2592  1.1092
   51MOL   H28115381   6.431   3.353   6.528  1.0022 -0.5318  0.2006
   51MOL   H28215382   6.468   3.384   6.698  0.2677 -1.7700  2.0155
   51MOL   H28315383   6.596   3.326   6.589  0.4694 -1.3613 -0.1125
   51MOL   H28415384   6.560   2.855   6.456 -0.1276 -1.4830 -0.4851
   51MOL   H28515385   6.404   2.857   6.378 -2.5490 -2.6792  1.9203
   51MOL   H28615386   6.418   2.756   6.516 -1.7788 -0.6818 -1.1516
   51MOL   C28715387   6.298   3.180   6.686 -0.1624 -0.3672  0.0233
   51MOL   C28815388   6.187   3.187   6.580 -0.4306  0.1812 -0.3634
   51MOL   C28915389   6.104   3.058   6.565  0.7170  0.8424 -0.0451
   51MOL   C29015390   6.095   3.308   6.602 -0.3926 -0.3651  0.4266
   51MOL   O29115391   6.103   3.402   6.519 -0.4940  0.3731  0.2001
   51MOL   O29215392   6.012   3.303   6.705  0.1517 -0.6218 -0.5143
   51MOL   C29315393   5.900   3.396   6.711 -0.4183  1.0105  0.3179
   51MOL   H29415394   6.293   3.267   6.752 -4.7350 -1.0427  0.7188
   51MOL   H29515395   6.263   3.108   6.760 -0.7398  1.6575  1.7778
   51MOL   H29615396   6.081   3.031   6.668 -0.0978 -0.9145 -0.6777
   51MOL   H29715397   6.011   3.076   6.513  0.7553  0.8365 -0.1159
   51MOL   H29815398   6.164   2.983   6.514  0.4777 -0.0740  0.9995
   51MOL   H29915399   5.868   3.426   6.611 -4.8071  0.3359  1.4223
   51MOL   H30015400   5.933   3.488   6.760  1.8947 -0.6317  1.9499
   51MOL   H30115401   5.816   3.355   6.767 -2.6206  3.0363 -1.3890
   51MOL   H30215402   6.230   3.216   6.484 -1.8286  1.2517 -0.6739
   52MOL     C115403   0.854   0.030   1.251  0.5259 -0.2076 -0.5666
   52MOL     C215404   0.955   7.820   1.163  0.1464  0.2511  0.0583
   52MOL     C315405   0.870   7.690   1.132  0.6056  0.2042 -0.1269
   52MOL     C415406   0.980   0.010   1.032  0.0205  0.0299  0.0970
   52MOL     O515407   0.922   0.117   1.008  0.5718  0.3483 -0.6431
   52MOL     O615408   1.062   7.825   0.945  0.4444  0.2094 -0.0336
   52MOL     C715409   1.090   0.011   0.818 -0.0399  0.2590 -0.5520
   52MOL     H815410   0.811   7.852   1.334  3.2428 -0.4684  0.7322
   52MOL     H915411   0.900   0.120   1.292 -1.2316 -0.0788  1.1561
   52MOL    H1015412   0.861   7.632   1.224 -0.0568  0.8103  0.1913
   52MOL    H1115413   0.771   7.711   1.091  0.4495  0.8246  0.5702
   52MOL    H1215414   0.917   7.619   1.064  2.8378  0.2784  1.2874
   52MOL    H1315415   1.108   0.119   0.827  1.1050 -0.0412  0.9127
   52MOL    H1415416   1.006   7.873   0.751  0.1937  1.7586 -1.2301
   52MOL    H1515417   1.183   7.861   0.769 -0.2213 -0.3469 -0.5572
   52MOL    H1615418   0.773   0.073   1.193 -0.5106 -1.5720 -0.1569
   52MOL    C1715419   1.086   7.804   1.236 -0.4184  0.1194 -0.8210
   52MOL    C1815420   1.117   7.721   1.373 -0.0518 -0.2528  0.3417
   52MOL    C1915421   1.027   7.768   1.487 -0.4403  0.5404 -0.5533
   52MOL    C2015422   1.090   7.570   1.347  0.6193  0.1707 -0.0884
   52MOL    O2115423   1.020   7.503   1.417 -0.3331  0.0323 -0.5921
   52MOL    O2215424   1.144   7.531   1.236  0.4803 -0.1941 -0.1123
   52MOL    C2315425   1.133   7.397   1.191  0.0077 -0.1695 -0.0272
   52MOL    H2415426   1.121   0.029   1.242 -0.0650  0.2331 -4.1773
   52MOL    H2515427   1.157   7.756   1.169  1.2142  0.5880  0.5333
   52MOL    H2615428   0.927   7.725   1.480 -0.2337 -0.0769  0.2207
   52MOL    H2715429   1.062   7.745   1.587 -0.6984  0.6317 -0.4414
   52MOL    H2815430   1.024   7.875   1.465  2.0748  0.5054 -1.1441
   52MOL    H2915431   1.142   7.383   1.083 -0.8805  0.8041 -0.2256
   52MOL    H3015432   1.039   7.353   1.224 -0.3466  1.1536  0.7379
   52MOL    H3115433   1.218   7.344   1.234  0.9723  1.1697 -0.2668
   52MOL    C3215434   1.268   7.764   1.412  0.0364  0.7691 -0.0232
   52MOL    C3315435   1.342   7.723   1.545  0.0436  0.4619  0.2569
   52MOL    C3415436   1.290   7.808   1.668  0.2565  0.0206 -0.0743
   52MOL    C3515437   1.323   7.574   1.573  0.1846 -0.6825 -0.1085
   52MOL    O3615438   1.234   7.538   1.656 -0.8042  0.6532  0.7030
   52MOL    O3715439   1.385   7.500   1.483  0.0765 -0.2543  0.2376
   52MOL    C3815440   1.359   7.360   1.485  0.5913 -0.4270 -0.1285
   52MOL    H3915441   1.266   7.873   1.418  2.7616  0.8904 -0.8571
   52MOL    H4015442   1.335   7.731   1.333 -1.9207  0.4025 -1.5702
   52MOL    H4115443   1.249   0.027   1.641 -0.2688  0.3140  1.7113
   52MOL    H4215444   1.213   7.758   1.727  2.3845 -1.4958  1.4946
   52MOL    H4315445   1.372   7.835   1.735  0.0470  0.4239  0.0172
   52MOL    H4415446   1.400   7.319   1.393 -0.7370  0.1336 -0.9805
   52MOL    H4515447   1.253   7.341   1.505  0.8641 -0.2295  1.6301
   52MOL    H4615448   1.409   7.317   1.572  0.7484  0.5324  0.2604
   52MOL    C4715449   1.501   7.749   1.527  0.2032 -0.0268 -0.3974
   52MOL    C4815450   1.567   0.006   1.485  0.4035  0.4314 -0.7189
   52MOL    C4915451   1.719   7.858   1.478 -0.3520 -0.1237  0.4899
   52MOL    C5015452   1.520   0.046   1.341  0.1201 -0.1431 -0.3378
   52MOL    O5115453   1.437   0.143   1.329 -0.7908 -0.1655  0.3068
   52MOL    O5215454   1.566   7.845   1.247 -0.4586 -0.0483  0.4986
   52MOL    C5315455   1.519   7.862   1.117 -0.7452 -0.1759 -0.5990
   52MOL    H5415456   1.547   7.680   1.457  2.4319 -0.5861  1.5364
   52MOL    H5515457   1.538   7.724   1.627 -0.7419 -0.2918 -0.1080
   52MOL    H5615458   1.748   7.815   1.573  1.1658  1.2110  0.6462
   52MOL    H5715459   1.736   7.778   1.406  1.9664  1.4719 -0.8205
   52MOL    H5815460   1.783   0.060   1.441  1.0369 -0.6142  1.8247
   52MOL    H5915461   1.539   0.084   1.077 -0.3585  0.8083  1.9587
   52MOL    H6015462   1.410   7.856   1.127 -0.6400  0.0330  0.7032
   52MOL    H6115463   1.553   7.793   1.040  2.6372 -0.0497  0.7012
   52MOL    C6215464   1.543   0.114   1.592 -0.1015  0.3591 -0.6960
   52MOL    C6315465   1.589   0.265   1.608  0.7320 -0.2335 -0.1175
   52MOL    C6415466   1.742   0.257   1.656  0.1184  0.0759 -0.0246
   52MOL    C6515467   1.590   0.351   1.474  0.1628  0.0152  0.4480
   52MOL    O6615468   1.506   0.434   1.448 -0.0184  0.4729  0.2387
   52MOL    O6715469   1.693   0.324   1.390 -0.4312 -0.0292  0.0618
   52MOL    C6815470   1.704   0.396   1.267 -0.0456  0.0869 -0.4726
   52MOL    H6915471   1.571   0.063   1.684 -0.1280  4.5572  1.7654
   52MOL    H7015472   1.435   0.126   1.602 -0.2634 -0.7302 -1.0448
   52MOL    H7115473   1.765   0.363   1.668 -1.3502  0.3469  0.5643
   52MOL    H7215474   1.760   0.216   1.756  1.7271 -1.2219 -0.8367
   52MOL    H7315475   1.811   0.208   1.588 -1.1395 -1.3055 -0.3449
   52MOL    H7415476   1.787   0.356   1.210  0.1453 -0.3806  0.1273
   52MOL    H7515477   1.742   0.496   1.289 -1.0453  0.2916  0.3655
   52MOL    H7615478   1.607   0.395   1.217  1.3074  1.7321 -3.2280
   52MOL    C7715479   1.502   0.351   1.710 -1.1416 -0.1902 -0.6820
   52MOL    C7815480   1.501   0.329   1.864  0.4823 -0.4839 -0.1366
   52MOL    C7915481   1.470   0.180   1.903  0.3622  0.5447  0.1580
   52MOL    C8015482   1.633   0.384   1.926 -1.3186 -0.1551 -0.5992
   52MOL    O8115483   1.690   0.482   1.875 -0.2384 -0.1137 -0.6735
   52MOL    O8215484   1.675   0.319   2.040 -0.0554  0.5759  0.6548
   52MOL    C8315485   1.785   0.376   2.114 -0.4431 -0.3625 -0.0605
   52MOL    H8415486   1.397   0.347   1.679 -0.6569  3.1823 -2.9733
   52MOL    H8515487   1.533   0.453   1.690  0.4951 -0.5041  0.1397
   52MOL    H8615488   1.386   0.140   1.846  0.6557  1.2497 -0.7902
   52MOL    H8715489   1.557   0.116   1.883  0.5093  1.2830 -1.6977
   52MOL    H8815490   1.451   0.171   2.009 -0.1295  0.3178  0.0504
   52MOL    H8915491   1.781   0.365   2.222  1.5060 -0.8919 -0.0357
   52MOL    H9015492   1.807   0.478   2.084 -1.3870  0.1045  0.8113
   52MOL    H9115493   1.872   0.318   2.084 -1.5015 -1.5792 -0.8840
   52MOL    C9215494   1.381   0.423   1.910  1.2308  0.1572 -0.6076
   52MOL    C9315495   1.334   0.466   2.055  0.3181  0.3365 -0.4056
   52MOL    C9415496   1.201   0.535   2.037  0.1044  0.9433  0.2952
   52MOL    C9515497   1.316   0.338   2.147  0.4776  0.6238  0.2955
   52MOL    O9615498   1.206   0.281   2.150  0.4404  0.3436 -0.3454
   52MOL    O9715499   1.423   0.302   2.206  0.0546  0.5383  0.1299
   52MOL    C9815500   1.425   0.195   2.296 -0.2181  0.5288 -0.5004
   52MOL    H9915501   1.294   0.372   1.867  0.5325 -0.2615  1.2717
   52MOL   H10015502   1.394   0.523   1.869 -1.7436  1.0754  0.5560
   52MOL   H10115503   1.146   0.529   2.131 -0.9981 -2.3021 -0.4946
   52MOL   H10215504   1.209   0.635   1.994 -1.2742  1.2672  0.7586
   52MOL   H10315505   1.133   0.472   1.979  0.5907  1.2754 -0.6383
   52MOL   H10415506   1.521   0.196   2.348 -0.8409  1.5010  0.6626
   52MOL   H10515507   1.418   0.120   2.217  0.3657 -2.2362  1.9959
   52MOL   H10615508   1.340   0.183   2.363  0.3730  1.0125  0.3430
   52MOL   C10715509   1.435   0.566   2.118  0.0612 -0.2479 -0.0206
   52MOL   C10815510   1.416   0.647   2.250 -0.2341  0.0195  0.9305
   52MOL   C10915511   1.568   0.676   2.278  0.3803  0.5630  0.1665
   52MOL   C11015512   1.349   0.784   2.214 -0.2334 -0.4220  0.2351
   52MOL   O11115513   1.409   0.879   2.172 -0.3402  0.1734  0.5008
   52MOL   O11215514   1.218   0.782   2.233 -0.4646 -0.7380  0.2696
   52MOL   C11315515   1.141   0.901   2.233 -0.1981 -0.6977  0.5759
   52MOL   H11415516   1.455   0.638   2.039  1.6793 -1.4004 -0.6797
   52MOL   H11515517   1.529   0.511   2.126  1.1640  1.1015 -2.7869
   52MOL   H11615518   1.620   0.600   2.336  1.8082  0.2441 -1.5156
   52MOL   H11715519   1.626   0.705   2.191  1.0601  1.8386  1.0216
   52MOL   H11815520   1.578   0.767   2.338  2.2220 -0.0131  0.7727
   52MOL   H11915521   1.184   0.979   2.295  0.4647  0.2370 -1.0119
   52MOL   H12015522   1.041   0.884   2.271 -1.3174  2.5779 -0.6942
   52MOL   H12115523   1.133   0.946   2.134 -3.1561  0.5266  1.3276
   52MOL   C12215524   1.342   0.571   2.361  0.5879  0.5662 -0.0073
   52MOL   C12315525   1.307   0.618   2.498  0.3476  0.2579  0.2976
   52MOL   C12415526   1.323   0.486   2.586  0.2940  0.6420 -0.1020
   52MOL   C12515527   1.418   0.712   2.555  0.3372 -0.1584  0.6433
   52MOL   O12615528   1.400   0.832   2.564  0.4714 -0.3610 -0.0075
   52MOL   O12715529   1.535   0.649   2.579  0.4279 -0.4837  0.0705
   52MOL   C12815530   1.644   0.717   2.638  0.6598 -0.5956 -0.5553
   52MOL   H12915531   1.407   0.486   2.377 -0.4977 -0.3107 -0.1736
   52MOL   H13015532   1.250   0.524   2.325  1.1899 -1.4253  0.9599
   52MOL   H13115533   1.239   0.421   2.562  2.2402 -1.3209 -1.8725
   52MOL   H13215534   1.412   0.425   2.569 -0.1024 -0.4024  1.4840
   52MOL   H13315535   1.327   0.504   2.693  0.8644 -0.0181 -0.0062
   52MOL   H13415536   1.733   0.655   2.644  0.5221 -0.7848 -0.4763
   52MOL   H13515537   1.626   0.741   2.742  1.1072 -0.8601 -0.4135
   52MOL   H13615538   1.673   0.803   2.577  1.2692 -0.1883  0.3049
   52MOL   C13715539   1.160   0.687   2.499 -0.2427 -0.3531 -0.1563
   52MOL   C13815540   1.068   0.690   2.632  0.8702  0.6069  0.4623
   52MOL   C13915541   0.957   0.798   2.593  0.5150  0.2294 -0.4579
   52MOL   C14015542   1.000   0.549   2.656 -0.3736 -1.1087  0.6602
   52MOL   O14115543   0.915   0.497   2.582  0.4690 -0.0059 -0.2443
   52MOL   O14215544   1.052   0.484   2.765  0.8345 -0.1608  0.0254
   52MOL   C14315545   1.016   0.347   2.788  0.1399  0.0342  0.3859
   52MOL   H14415546   1.103   0.628   2.427  0.6527 -0.5247 -0.7360
   52MOL   H14515547   1.165   0.791   2.469  1.9829  0.1630  1.8223
   52MOL   H14615548   0.935   0.778   2.488  0.8234 -0.9619 -0.3054
   52MOL   H14715549   0.871   0.803   2.659  0.0176  0.6266 -1.1207
   52MOL   H14815550   1.004   0.896   2.606 -0.3656  0.7540 -1.1775
   52MOL   H14915551   1.018   0.285   2.699  2.3536  1.3939 -0.5617
   52MOL   H15015552   0.916   0.338   2.830  0.8769 -2.0636  1.7386
   52MOL   H15115553   1.093   0.300   2.849 -0.1817 -0.3990  0.4622
   52MOL   C15215554   1.148   0.743   2.755 -0.0908  0.7384 -0.3029
   52MOL   C15315555   1.088   0.798   2.894  0.1269  0.3176 -0.2555
   52MOL   C15415556   1.199   0.763   3.004 -0.2422 -0.2296 -0.3085
   52MOL   C15515557   1.083   0.953   2.886 -0.4646 -0.3714  0.3207
   52MOL   O15615558   1.177   1.020   2.915  0.0429 -0.3363  0.1425
   52MOL   O15715559   0.964   1.004   2.845 -0.6080 -0.7414 -0.2753
   52MOL   C15815560   0.961   1.145   2.824  0.1245  0.5455  0.3616
   52MOL   H15915561   1.205   0.824   2.710 -0.3287 -0.5698 -3.0770
   52MOL   H16015562   1.223   0.671   2.785 -1.9490 -0.4018  1.7585
   52MOL   H16115563   1.298   0.791   2.968 -0.5345 -1.1060 -1.8451
   52MOL   H16215564   1.198   0.828   3.091 -3.5858  0.3404 -0.7067
   52MOL   H16315565   1.210   0.656   3.020 -0.8366 -0.9124 -4.0005
   52MOL   H16415566   0.972   1.202   2.917 -2.0863  2.3425 -0.4560
   52MOL   H16515567   0.879   1.163   2.756  0.6562  1.1386 -0.1258
   52MOL   H16615568   1.041   1.176   2.757 -1.2788  0.8214 -1.1863
   52MOL   C16715569   0.939   0.738   2.927 -0.2810 -0.1991  0.4100
   52MOL   C16815570   0.880   0.721   3.075  0.2690 -0.9877 -0.4046
   52MOL   C16915571   0.940   0.600   3.148 -0.5176 -0.2395  0.0862
   52MOL   C17015572   0.918   0.848   3.161  0.8451  0.2950  0.0279
   52MOL   O17115573   0.970   0.838   3.273  0.0483  0.8856  0.4125
   52MOL   O17215574   0.866   0.964   3.113  0.0877  0.3265 -0.0996
   52MOL   C17315575   0.887   1.085   3.184  0.2032  0.6024  0.2616
   52MOL   H17415576   0.932   0.636   2.888  1.4794  0.1079 -0.7105
   52MOL   H17515577   0.862   0.794   2.874 -0.1575  0.0274  0.4709
   52MOL   H17615578   0.928   0.512   3.084 -2.2163 -0.1062  0.2154
   52MOL   H17715579   1.048   0.600   3.164 -0.6310 -0.1132  0.8525
   52MOL   H17815580   0.886   0.580   3.240 -2.4142 -0.1577 -0.9725
   52MOL   H17915581   0.859   1.164   3.113 -1.1393 -0.9740 -1.0039
   52MOL   H18015582   0.994   1.093   3.205 -0.0550  4.2714  0.4615
   52MOL   H18115583   0.835   1.114   3.275  0.6642  1.0036  0.4017
   52MOL   C18215584   0.718   0.707   3.079 -0.7029 -0.1901  0.3008
   52MOL   C18315585   0.615   0.622   2.994  0.3302 -0.0543 -0.0035
   52MOL   C18415586   0.620   0.655   2.838 -0.1615  0.5596 -0.2337
   52MOL   C18515587   0.655   0.481   3.019  0.0856  0.0364  0.2005
   52MOL   O18615588   0.670   0.401   2.929 -0.2028  0.3510 -0.2893
   52MOL   O18715589   0.684   0.461   3.145  0.1036 -0.0724 -0.1205
   52MOL   C18815590   0.708   0.327   3.183  0.4980 -0.2387  0.1353
   52MOL   H18915591   0.686   0.809   3.054  0.0983 -0.2921 -1.2209
   52MOL   H19015592   0.696   0.703   3.185  0.7569 -1.6601  0.5664
   52MOL   H19115593   0.711   0.621   2.787 -0.6814  0.5594 -1.1658
   52MOL   H19215594   0.535   0.613   2.784  0.5003 -0.2158 -0.6823
   52MOL   H19315595   0.624   0.764   2.828  1.2872  0.6258  0.8528
   52MOL   H19415596   0.776   0.279   3.113 -0.2499 -0.9335 -0.1209
   52MOL   H19515597   0.617   0.267   3.175 -0.4582  1.2030  0.0460
   52MOL   H19615598   0.737   0.325   3.289  0.9764 -0.9313 -0.0042
   52MOL   C19715599   0.474   0.656   3.059  0.5421 -0.8224 -0.0444
   52MOL   C19815600   0.342   0.564   3.039  0.4263  0.0255  0.5218
   52MOL   C19915601   0.335   0.493   2.902 -0.0309 -0.1213  0.0091
   52MOL   C20015602   0.340   0.458   3.150  0.2013 -0.5362  0.0360
   52MOL   O20115603   0.322   0.337   3.127 -0.1357 -0.3088  0.6490
   52MOL   O20215604   0.369   0.515   3.270  0.1005 -0.1067  0.8474
   52MOL   C20315605   0.394   0.436   3.391 -0.0394  0.8736 -0.3650
   52MOL   H20415606   0.461   0.754   3.014  0.5709 -0.6711  0.2757
   52MOL   H20515607   0.488   0.675   3.166 -1.7808  0.8524 -0.0083
   52MOL   H20615608   0.251   0.425   2.893  0.4168 -0.5439 -1.1373
   52MOL   H20715609   0.330   0.558   2.814  0.7628 -1.7567 -1.2726
   52MOL   H20815610   0.411   0.415   2.890 -0.0031  0.1451 -1.5875
   52MOL   H20915611   0.319   0.360   3.412  3.0141 -2.4998 -1.2971
   52MOL   H21015612   0.403   0.495   3.483 -0.9428 -0.7760  0.8004
   52MOL   H21115613   0.489   0.385   3.377  1.0619  1.6056  3.6859
   52MOL   C21215614   0.209   0.652   3.045  0.4143  0.2605  0.1190
   52MOL   C21315615   0.138   0.721   3.167 -0.3463  0.7413 -0.5850
   52MOL   C21415616   0.061   0.614   3.252 -0.1270  0.2600  0.8571
   52MOL   C21515617   0.239   0.798   3.258 -0.0764 -0.1938 -0.2482
   52MOL   O21615618   0.270   0.766   3.373  0.4560 -0.5664  0.2937
   52MOL   O21715619   0.292   0.906   3.194  0.5748  0.4621 -0.1717
   52MOL   C21815620   0.417   0.963   3.233  0.0075 -0.6197  0.2175
   52MOL   H21915621   0.138   0.588   2.993 -0.2359  0.8669  0.2566
   52MOL   H22015622   0.235   0.733   2.977  0.0346 -1.4505 -2.1307
   52MOL   H22115623   0.072   0.521   3.196 -0.9311  1.2201 -0.9463
   52MOL   H22215624   0.100   0.601   3.353 -0.5792 -0.6238  0.9142
   52MOL   H22315625   7.831   0.629   3.249 -0.1544  0.0189  0.6449
   52MOL   H22415626   0.460   0.935   3.329  0.1220 -3.2339 -0.5572
   52MOL   H22515627   0.406   1.071   3.224  0.2980 -0.6414 -0.4372
   52MOL   H22615628   0.486   0.928   3.157 -0.7880 -3.0831  0.5891
   52MOL   C22715629   0.042   0.829   3.106 -0.2301  0.2720  0.2150
   52MOL   C22815630   7.831   0.932   3.186 -0.9422  0.3638 -0.1187
   52MOL   C22915631   7.762   0.856   3.303 -0.0026  0.3664 -0.5430
   52MOL   C23015632   0.033   1.054   3.229 -0.7220  0.2111  0.1245
   52MOL   O23115633   0.034   1.082   3.350  0.4108 -0.2684 -0.4329
   52MOL   O23215634   0.070   1.133   3.126  0.1497  0.1485 -0.2530
   52MOL   C23315635   0.128   1.256   3.163 -0.6619  0.2314  0.4326
   52MOL   H23415636   7.850   0.767   3.050  0.8760 -0.4493 -0.3766
   52MOL   H23515637   0.095   0.885   3.029  1.3639 -1.1312  0.2708
   52MOL   H23615638   7.827   0.809   3.377 -0.4567  0.3592 -0.1399
   52MOL   H23715639   7.709   0.928   3.366 -2.1010 -1.1584 -0.5006
   52MOL   H23815640   7.680   0.789   3.277  1.4646 -1.3308 -0.9314
   52MOL   H23915641   0.234   1.239   3.180 -0.2624  0.3007 -1.8325
   52MOL   H24015642   0.073   1.300   3.246 -0.5607  0.1122  0.5626
   52MOL   H24115643   0.116   1.334   3.088 -3.2907 -0.9561 -0.4385
   52MOL   C24215644   7.721   0.982   3.084  0.1473 -0.4096  0.3426
   52MOL   C24315645   7.589   1.067   3.118 -0.0305 -0.3058 -0.2487
   52MOL   C24415646   7.482   0.971   3.189 -0.8089 -0.3325 -0.3541
   52MOL   C24515647   7.609   1.194   3.209 -0.5435  0.0611  0.1397
   52MOL   O24615648   7.622   1.308   3.169  0.0634 -0.5976 -0.1288
   52MOL   O24715649   7.617   1.168   3.341  0.0263 -0.0573  0.8936
   52MOL   C24815650   7.636   1.270   3.439 -0.1120 -0.1689  0.1437
   52MOL   H24915651   7.675   0.895   3.037  2.3010 -1.1284 -0.4492
   52MOL   H25015652   7.771   1.037   3.004  0.0914 -0.4387  0.2867
   52MOL   H25115653   7.461   0.889   3.121  0.5263 -0.8686 -0.1369
   52MOL   H25215654   7.511   0.935   3.288  0.2829 -1.3278 -1.0339
   52MOL   H25315655   7.390   1.020   3.223 -0.0956 -0.4224  1.8112
   52MOL   H25415656   7.662   1.368   3.399 -1.1264  0.3445  0.7391
   52MOL   H25515657   7.721   1.227   3.493  0.5179  0.0110 -0.6881
   52MOL   H25615658   7.557   1.279   3.513  0.8990 -0.2946  1.2451
   52MOL   C25715659   7.537   1.114   2.970 -0.2152  0.2932  0.3598
   52MOL   C25815660   7.397   1.171   2.945  0.4726 -0.2277 -0.1125
   52MOL   C25915661   7.427   1.265   2.825 -0.1781  0.4693  0.4142
   52MOL   C26015662   7.297   1.052   2.915 -0.3232 -0.7825 -0.1557
   52MOL   O26115663   7.261   0.979   3.004 -0.0850 -0.2670  0.1565
   52MOL   O26215664   7.271   1.034   2.777  0.0384  0.1366  0.3381
   52MOL   C26315665   7.178   0.940   2.740  0.5122 -0.2616  0.2632
   52MOL   H26415666   7.552   1.030   2.902 -2.4554 -1.4631  1.9441
   52MOL   H26515667   7.604   1.196   2.946 -1.3344  1.1536  0.1820
   52MOL   H26615668   7.480   1.222   2.740  0.3905  2.9886 -0.5790
   52MOL   H26715669   7.335   1.306   2.784 -0.4371 -0.8746 -0.3849
   52MOL   H26815670   7.483   1.348   2.869 -2.7397  0.8766  3.0151
   52MOL   H26915671   7.076   0.972   2.756  0.9827  1.4587 -0.0820
   52MOL   H27015672   7.198   0.854   2.804 -1.4643  0.3268  1.6915
   52MOL   H27115673   7.184   0.895   2.641 -1.6986 -2.0899  0.9164
   52MOL   C27215674   7.333   1.262   3.057  0.4030  0.3554 -0.2455
   52MOL   C27315675   7.193   1.318   3.062  0.3624 -0.2536  0.0056
   52MOL   C27415676   7.149   1.395   2.928  0.2211 -0.4226  0.1363
   52MOL   C27515677   7.081   1.221   3.098 -0.8409  0.2969  0.2297
   52MOL   O27615678   7.032   1.203   3.208  0.2166 -0.1406 -0.7426
   52MOL   O27715679   7.018   1.163   2.985  0.0289 -0.5790 -0.0378
   52MOL   C27815680   6.916   1.066   3.010  0.2389  0.6393 -0.1619
   52MOL   H27915681   7.385   1.358   3.063  0.3837  0.2750  1.6035
   52MOL   H28015682   7.340   1.217   3.156  1.2671  0.9123 -0.0384
   52MOL   H28115683   7.151   1.324   2.845  0.2249 -0.0013 -0.2247
   52MOL   H28215684   7.050   1.436   2.943  0.9517  0.7504  2.0013
   52MOL   H28315685   7.213   1.475   2.891  1.5602 -1.6275 -0.2057
   52MOL   H28415686   6.878   1.031   2.914  2.6812 -1.1842 -0.5335
   52MOL   H28515687   6.837   1.107   3.073  0.7027 -0.7346  1.3595
   52MOL   H28615688   6.958   0.977   3.058 -0.2277  1.6669  2.2238
   52MOL   C28715689   7.179   1.431   3.172  0.3424  0.6235 -0.2262
   52MOL   C28815690   7.237   1.407   3.317  0.5685  0.1894  0.3248
   52MOL   C28915691   7.362   1.498   3.345 -0.4249 -0.3059 -0.1594
   52MOL   C29015692   7.130   1.439   3.421  0.1379 -0.5151 -0.3202
   52MOL   O29115693   7.108   1.557   3.458 -0.4645 -0.0113 -0.3295
   52MOL   O29215694   7.075   1.332   3.481  0.1210  0.1273 -0.5241
   52MOL   C29315695   7.003   1.349   3.602  0.1358 -0.1477 -0.1966
   52MOL   H29415696   7.072   1.448   3.188  0.0746 -1.3807  0.2553
   52MOL   H29515697   7.218   1.524   3.131  2.1421 -0.4460 -0.9801
   52MOL   H29615698   7.438   1.491   3.267 -0.1173  1.6004 -0.0487
   52MOL   H29715699   7.337   1.603   3.361 -2.6566 -0.6648 -1.0776
   52MOL   H29815700   7.410   1.470   3.439 -1.5104 -2.4624 -0.2143
   52MOL   H29915701   6.897   1.369   3.586  0.5228  1.8015 -0.4433
   52MOL   H30015702   7.038   1.434   3.661 -0.9458  0.2998 -0.1848
   52MOL   H30115703   7.019   1.264   3.669 -0.4026  0.6004  0.9060
   52MOL   H30215704   7.271   1.304   3.328  2.8805  1.0286  1.3340
   53MOL     C115705   5.307   6.047   7.788  0.0709  0.2924 -0.5956
   53MOL     C215706   5.339   6.069   7.638 -0.2715  0.3830 -0.0771
   53MOL     C315707   5.443   5.969   7.600 -0.1068 -0.3886 -0.4487
   53MOL     C415708   5.204   6.024   7.558 -0.3286  0.2878  0.0248
   53MOL     O515709   5.091   6.018   7.608 -0.2794 -0.1187 -0.1838
   53MOL     O615710   5.230   6.008   7.423  0.2278 -0.4071  1.0687
   53MOL     C715711   5.127   5.976   7.332  0.2337 -0.4424 -0.8743
   53MOL     H815712   5.223   6.112   7.813  0.0838 -0.3348  1.0958
   53MOL     H915713   5.277   5.946   7.815  0.1105  0.3122 -0.4829
   53MOL    H1015714   5.496   6.001   7.510  1.9521  0.2573  0.9503
   53MOL    H1115715   5.523   5.951   7.672  1.5972  0.5648 -2.0404
   53MOL    H1215716   5.404   5.870   7.578  1.3231 -1.6259  2.3116
   53MOL    H1315717   5.055   5.915   7.388 -0.1133 -0.8151 -1.7030
   53MOL    H1415718   5.160   5.919   7.245  2.9911  5.1911 -3.7845
   53MOL    H1515719   5.074   6.066   7.301  2.4381  1.6729  1.3482
   53MOL    H1615720   5.386   6.064   7.861 -0.9451  4.5002 -0.2986
   53MOL    C1715721   5.397   6.208   7.596  0.1370  0.1148 -0.3805
   53MOL    C1815722   5.324   6.341   7.632 -0.2299 -0.2385 -0.0952
   53MOL    C1915723   5.171   6.332   7.622  0.0661 -0.4878 -0.0728
   53MOL    C2015724   5.357   6.381   7.779 -0.5572  0.2511 -0.3245
   53MOL    O2115725   5.291   6.465   7.842 -0.6379  0.0647 -0.3743
   53MOL    O2215726   5.470   6.333   7.830 -0.2581  0.0574 -0.6692
   53MOL    C2315727   5.492   6.349   0.090 -0.6000  0.0672  0.1269
   53MOL    H2415728   5.397   6.204   7.487 -2.8506 -0.9294 -0.3856
   53MOL    H2515729   5.501   6.214   7.628  0.1135  1.0282 -0.4484
   53MOL    H2615730   5.140   6.263   7.700  0.4102 -1.6570 -0.9633
   53MOL    H2715731   5.126   6.428   7.648 -0.7271 -0.7428 -0.4926
   53MOL    H2815732   5.137   6.309   7.521  1.0200 -0.5528 -0.3785
   53MOL    H2915733   5.514   6.454   0.107 -0.8351  0.1130  0.1475
   53MOL    H3015734   5.583   6.294   0.114 -1.3716 -0.8415  1.0510
   53MOL    H3115735   5.411   6.320   0.157  0.8151 -0.6213  1.5928
   53MOL    C3215736   5.361   6.455   7.541  0.4409 -0.3077  0.0319
   53MOL    C3315737   5.321   6.488   7.393  0.1744 -0.2817 -0.2473
   53MOL    C3415738   5.330   6.360   7.309  0.4033  0.8789 -0.2534
   53MOL    C3515739   5.181   6.538   7.371  0.3235 -0.2725 -0.0830
   53MOL    O3615740   5.114   6.583   7.460  0.1385 -0.4945 -0.0581
   53MOL    O3715741   5.128   6.532   7.245  0.0293  0.3363  0.0179
   53MOL    C3815742   4.999   6.584   7.212  0.2038  0.1393  0.4872
   53MOL    H3915743   5.470   6.465   7.545  0.2134  2.7313 -0.2380
   53MOL    H4015744   5.315   6.537   7.596  1.6304  0.5507 -0.2220
   53MOL    H4115745   5.428   6.315   7.295  0.2650  0.9088 -1.3311
   53MOL    H4215746   5.262   6.281   7.341  3.1135 -0.7389  1.7166
   53MOL    H4315747   5.300   6.363   7.204 -0.0080 -0.0179 -0.1636
   53MOL    H4415748   4.942   6.597   7.304  0.5892 -0.8750  0.8737
   53MOL    H4515749   4.944   6.514   7.149  0.8237  0.7968 -0.7962
   53MOL    H4615750   5.018   6.681   7.165  0.2259  0.7461  1.7126
   53MOL    C4715751   5.431   6.584   7.332  0.3309 -0.0426 -0.1700
   53MOL    C4815752   5.434   6.740   7.350  0.2322  0.3195  0.0058
   53MOL    C4915753   5.369   6.797   7.219  0.6835  0.3115  0.7475
   53MOL    C5015754   5.360   6.794   7.472 -0.2467  0.5549  0.0476
   53MOL    O5115755   5.257   6.861   7.463 -0.1582  0.2298 -0.2046
   53MOL    O5215756   5.426   6.780   7.590 -0.0970  0.0983  0.3935
   53MOL    C5315757   5.354   6.812   7.710 -0.1552  0.7808  0.4673
   53MOL    H5415758   5.427   6.571   7.223  0.1031  0.6221 -0.2415
   53MOL    H5515759   5.528   6.540   7.353  0.0851 -0.2370  0.5545
   53MOL    H5615760   5.295   6.741   7.162  1.4846  1.5610 -1.6197
   53MOL    H5715761   5.313   6.889   7.239  0.0261 -0.1269  0.9206
   53MOL    H5815762   5.448   6.814   7.145 -0.3451 -0.4034 -0.5427
   53MOL    H5915763   5.266   6.870   7.682  0.2258  0.2473 -2.0237
   53MOL    H6015764   5.411   6.863   7.787  2.1300 -0.2829 -0.4743
   53MOL    H6115765   5.305   6.723   7.748  0.7111  0.0967 -0.0096
   53MOL    C6215766   5.585   6.781   7.369  0.0445 -0.3347 -0.2032
   53MOL    C6315767   5.648   6.928   7.357 -0.6512 -1.1674 -0.0451
   53MOL    C6415768   5.552   7.033   7.428 -0.5195 -0.5088  0.1312
   53MOL    C6515769   5.788   6.925   7.430 -0.3701  0.5195 -0.8528
   53MOL    O6615770   5.823   7.012   7.508 -0.3797 -0.6744 -0.4289
   53MOL    O6715771   5.873   6.823   7.389  0.5515 -0.1949  0.0972
   53MOL    C6815772   5.997   6.791   7.456  0.2776  0.0533  0.2605
   53MOL    H6915773   5.648   6.726   7.299  0.7238 -1.9673  1.6596
   53MOL    H7015774   5.629   6.743   7.461 -2.0565 -1.4692  0.3672
   53MOL    H7115775   5.600   7.131   7.419 -0.4476 -0.4389  1.1614
   53MOL    H7215776   5.460   7.041   7.370 -0.8839 -2.6338  0.3888
   53MOL    H7315777   5.522   7.013   7.531  0.0987  0.6694  0.5545
   53MOL    H7415778   5.963   6.718   7.529  0.2511  0.6307  0.8385
   53MOL    H7515779   6.045   6.876   7.506  3.0044 -1.3554  0.0831
   53MOL    H7615780   6.058   6.743   7.380 -1.0370 -2.3513  0.6942
   53MOL    C7715781   5.659   6.964   7.203 -0.0139  0.5727 -0.4858
   53MOL    C7815782   5.745   7.082   7.149  0.2495 -0.0062 -0.1405
   53MOL    C7915783   5.742   7.214   7.236 -0.0491  0.2148 -1.0580
   53MOL    C8015784   5.891   7.032   7.146 -0.4451  0.3603 -0.4930
   53MOL    O8115785   5.981   7.087   7.207 -0.2654 -0.2618  0.1976
   53MOL    O8215786   5.902   6.912   7.081 -0.0315  0.1960 -0.2031
   53MOL    C8315787   6.015   6.827   7.082 -0.2728 -0.4066 -0.8679
   53MOL    H8415788   5.557   6.990   7.175 -0.2365  0.4369  0.1695
   53MOL    H8515789   5.667   6.876   7.139 -0.6707  1.8409 -2.3493
   53MOL    H8615790   5.648   7.269   7.246 -1.4923 -2.3143 -0.2888
   53MOL    H8715791   5.781   7.189   7.335  0.1606 -1.8090 -1.6262
   53MOL    H8815792   5.807   7.299   7.211 -0.1136  0.0736 -1.7094
   53MOL    H8915793   6.018   6.767   6.990  1.0854 -1.8935  0.1225
   53MOL    H9015794   6.012   6.759   7.167 -2.1988  1.3051  0.4667
   53MOL    H9115795   6.106   6.883   7.102 -0.4267  0.2127 -1.8486
   53MOL    C9215796   5.679   7.113   7.005 -0.5143  0.4594 -0.1942
   53MOL    C9315797   5.732   7.195   6.876 -0.1514  0.6201  0.0281
   53MOL    C9415798   5.814   7.313   6.929  0.8330 -0.1470 -0.1187
   53MOL    C9515799   5.833   7.118   6.792  0.1875  0.0045 -0.1413
   53MOL    O9615800   5.859   7.000   6.818 -0.1043  0.3939 -0.5592
   53MOL    O9715801   5.886   7.189   6.687 -0.2950  0.3169 -0.0303
   53MOL    C9815802   5.984   7.125   6.606 -0.5254 -0.0719  0.0624
   53MOL    H9915803   5.579   7.149   7.028 -0.4447 -1.1274  2.7946
   53MOL   H10015804   5.667   7.009   6.974  0.2559  0.1513  0.5243
   53MOL   H10115805   5.903   7.277   6.980  1.3543  0.7723 -0.3573
   53MOL   H10215806   5.846   7.381   6.850 -2.1052 -0.6082 -1.7607
   53MOL   H10315807   5.760   7.380   6.997  0.0102 -1.8262  0.9110
   53MOL   H10415808   5.951   7.046   6.539  3.1447  0.4528 -2.5151
   53MOL   H10515809   6.068   7.081   6.662  0.4792 -0.6372 -1.8446
   53MOL   H10615810   6.034   7.205   6.552 -1.7399 -0.4227 -1.6016
   53MOL   C10715811   5.614   7.235   6.783 -0.5068 -0.4280 -0.4339
   53MOL   C10815812   5.505   7.139   6.715 -1.0849 -0.2496  0.5561
   53MOL   C10915813   5.576   7.015   6.660 -0.2576 -0.6248  0.0474
   53MOL   C11015814   5.407   7.100   6.828 -0.2341 -0.1105  0.9945
   53MOL   O11115815   5.367   6.983   6.840  0.2197 -0.4098  0.0360
   53MOL   O11215816   5.368   7.202   6.908 -0.2306  0.3663  0.4524
   53MOL   C11315817   5.279   7.176   7.019  0.0387  0.2539  0.5843
   53MOL   H11415818   5.663   7.286   6.700 -2.6187  0.6693 -1.0336
   53MOL   H11515819   5.557   7.321   6.818 -0.7196 -0.5540 -0.4705
   53MOL   H11615820   5.622   6.961   6.743  0.8059 -3.1419 -2.1085
   53MOL   H11715821   5.498   6.950   6.618  0.0910 -0.8216 -0.2993
   53MOL   H11815822   5.650   7.040   6.584  0.0875 -0.1173  0.5519
   53MOL   H11915823   5.192   7.115   6.993 -0.0705  1.4810 -2.1055
   53MOL   H12015824   5.242   7.271   7.058  0.4564  0.5903  0.1669
   53MOL   H12115825   5.336   7.123   7.095 -0.4440  0.3158  0.9897
   53MOL   C12215826   5.431   7.227   6.602  0.9788 -0.1100 -0.4335
   53MOL   C12315827   5.305   7.202   6.516 -0.1324  0.4422 -0.6456
   53MOL   C12415828   5.318   7.056   6.469  0.2883  0.3239  0.2047
   53MOL   C12515829   5.183   7.215   6.608  0.3233  0.0560  0.1644
   53MOL   O12615830   5.100   7.124   6.613 -0.2810  0.5171  0.1252
   53MOL   O12715831   5.170   7.334   6.670  0.0179 -0.2600  0.4582
   53MOL   C12815832   5.057   7.375   6.746 -0.0853 -0.3914  0.0957
   53MOL   H12915833   5.513   7.235   6.530  2.2578  0.9967  1.0912
   53MOL   H13015834   5.427   7.334   6.620 -1.1785 -0.1587 -0.5880
   53MOL   H13115835   5.256   7.026   6.384  0.7051  0.7836 -0.2690
   53MOL   H13215836   5.421   7.045   6.434  0.0449 -0.0994 -0.3947
   53MOL   H13315837   5.302   6.987   6.551  1.4632  0.2784  0.4098
   53MOL   H13415838   4.982   7.424   6.684  0.5436 -0.4800 -0.7286
   53MOL   H13515839   5.086   7.447   6.822  2.2834 -3.3384  2.1196
   53MOL   H13615840   5.001   7.297   6.798  1.7006 -1.7648 -0.0056
   53MOL   C13715841   5.296   7.309   6.399  0.4637 -0.3904 -0.4217
   53MOL   C13815842   5.203   7.302   6.273 -0.3626 -0.0951  0.4931
   53MOL   C13915843   5.201   7.452   6.221 -0.0665  0.3741 -0.0239
   53MOL   C14015844   5.264   7.211   6.162  0.2201  0.1753 -0.4650
   53MOL   O14115845   5.233   7.090   6.165 -0.4631 -0.2796 -0.2065
   53MOL   O14215846   5.368   7.260   6.098  0.7196  0.5557 -0.3013
   53MOL   C14315847   5.424   7.193   5.987  0.5820 -0.6668  0.0253
   53MOL   H14415848   5.399   7.322   6.364  0.4345 -0.1961 -0.4361
   53MOL   H14515849   5.284   7.408   6.443  1.2782 -0.4751 -0.0027
   53MOL   H14615850   5.171   7.472   6.118  1.5515  2.9225 -0.0278
   53MOL   H14715851   5.128   7.507   6.281  2.1985  1.3196  1.9181
   53MOL   H14815852   5.299   7.499   6.227  0.7811 -1.1595 -1.5096
   53MOL   H14915853   5.374   7.099   5.963 -0.0593 -0.5742  0.9522
   53MOL   H15015854   5.526   7.170   6.016  1.4048  0.5428 -1.7353
   53MOL   H15115855   5.420   7.257   5.898  1.3666 -0.2315  0.3034
   53MOL   C15215856   5.057   7.246   6.302 -0.5433 -0.5332 -0.3290
   53MOL   C15315857   4.925   7.257   6.200 -0.0500  0.5056 -0.4665
   53MOL   C15415858   4.965   7.207   6.057  0.9599  0.1655  0.2901
   53MOL   C15515859   4.826   7.152   6.260 -0.1953  0.5025  0.4284
   53MOL   O15615860   4.777   7.065   6.192  0.2940 -0.4371 -0.4364
   53MOL   O15715861   4.799   7.172   6.393 -0.2923  0.4222  0.3294
   53MOL   C15815862   4.685   7.104   6.447 -0.1569  0.0045 -0.0352
   53MOL   H15915863   5.024   7.292   6.396  0.9305 -0.0944 -0.0232
   53MOL   H16015864   5.054   7.146   6.345  1.0892  0.5881  2.4763
   53MOL   H16115865   5.013   7.109   6.055 -0.7753 -0.6641 -1.8109
   53MOL   H16215866   4.880   7.200   5.989 -0.2082 -1.2062  1.8377
   53MOL   H16315867   5.050   7.252   6.006  1.3989 -2.4071 -1.3634
   53MOL   H16415868   4.690   6.996   6.430 -0.9810 -0.2436  1.2510
   53MOL   H16515869   4.593   7.135   6.399  0.2777 -0.0913 -0.9445
   53MOL   H16615870   4.671   7.118   6.554 -1.0615  0.5375 -0.2220
   53MOL   C16715871   4.869   7.409   6.204 -0.3488 -0.0503  0.1087
   53MOL   C16815872   4.724   7.444   6.168 -0.1380  0.0828 -0.6039
   53MOL   C16915873   4.672   7.369   6.043 -0.2030  0.5942  0.3171
   53MOL   C17015874   4.629   7.405   6.289  0.3168  0.3306  0.9449
   53MOL   O17115875   4.533   7.334   6.274  0.5908 -0.4243 -0.2899
   53MOL   O17215876   4.665   7.458   6.407  0.1561 -0.8665  0.2095
   53MOL   C17315877   4.599   7.418   6.524 -0.6392 -0.1991 -0.2807
   53MOL   H17415878   4.945   7.461   6.146 -0.5656 -1.4049 -1.3994
   53MOL   H17515879   4.880   7.435   6.310 -2.2394  1.5634 -0.0524
   53MOL   H17615880   4.740   7.384   5.960  0.1200  1.7834  0.8031
   53MOL   H17715881   4.644   7.264   6.054 -0.7136  0.5845 -0.9117
   53MOL   H17815882   4.574   7.407   6.013 -0.6181 -0.0096  0.8686
   53MOL   H17915883   4.491   7.434   6.527 -0.8036 -1.2332 -0.5676
   53MOL   H18015884   4.649   7.470   6.606  0.3788 -0.3650 -0.7972
   53MOL   H18115885   4.622   7.316   6.553 -1.4791 -0.3191 -0.0241
   53MOL   C18215886   4.695   7.601   6.145 -0.3595 -0.0843 -0.1526
   53MOL   C18315887   4.804   7.714   6.129 -0.1420  0.4969  0.1718
   53MOL   C18415888   4.729   7.849   6.141  0.1875 -0.4040  0.5681
   53MOL   C18515889   4.909   7.717   6.246  0.0870  0.1826 -0.5298
   53MOL   O18615890   5.028   7.714   6.230 -0.2612 -0.0381 -0.4246
   53MOL   O18715891   4.847   7.719   6.367 -0.0035  0.1950  0.5977
   53MOL   C18815892   4.918   7.723   6.489 -0.3582  0.7636 -0.2479
   53MOL   H18915893   4.642   7.641   6.232 -1.1247 -0.7444 -0.3115
   53MOL   H19015894   4.636   7.607   6.053 -2.3724 -1.8811  0.9657
   53MOL   H19115895   4.666   7.860   6.229 -2.2395  0.9922 -1.2751
   53MOL   H19215896   4.778   0.067   6.126 -0.6002  0.4232  3.0993
   53MOL   H19315897   4.646   7.849   6.070 -0.3101  0.8695  1.1259
   53MOL   H19415898   4.856   7.763   6.569  0.9842  0.6142  0.8941
   53MOL   H19515899   5.006   7.787   6.483 -0.7390  1.3179 -0.0447
   53MOL   H19615900   4.944   7.621   6.515 -0.5453  1.0330  1.0826
   53MOL   C19715901   4.882   7.702   5.989  0.2890  0.1322  0.1841
   53MOL   C19815902   4.827   7.753   5.851 -0.3453 -0.5441 -0.1545
   53MOL   C19915903   4.689   7.695   5.812  0.0778 -0.0149  0.3880
   53MOL   C20015904   4.816   0.031   5.859  0.3057 -0.2357 -0.3794
   53MOL   O20115905   4.711   0.093   5.827  0.6419  0.1828 -0.7533
   53MOL   O20215906   4.934   0.092   5.902 -0.0864  0.3161 -0.0185
   53MOL   C20315907   4.950   0.228   5.866  0.0440 -0.0622 -0.3659
   53MOL   H20415908   4.899   7.595   5.981 -1.6974 -0.1789 -0.0388
   53MOL   H20515909   4.981   7.748   5.995  0.2951  0.0500  0.6757
   53MOL   H20615910   4.601   7.730   5.866 -1.7502 -2.7186 -0.7260
   53MOL   H20715911   4.664   7.721   5.709 -1.4791 -0.6137  0.6011
   53MOL   H20815912   4.690   7.586   5.813 -1.0290 -0.0418 -0.4829
   53MOL   H20915913   4.947   0.253   5.760 -1.1932 -2.5262 -0.9429
   53MOL   H21015914   5.039   0.271   5.912 -0.0596  1.8976 -1.9152
   53MOL   H21115915   4.865   0.288   5.899  1.4323  0.6855  1.9958
   53MOL   C21215916   4.931   7.740   5.727  0.4362  0.0261  0.0797
   53MOL   C21315917   5.005   7.607   5.691 -0.4039  0.8629  0.1021
   53MOL   C21415918   5.082   7.628   5.554  0.6434 -0.6932 -0.2219
   53MOL   C21515919   5.105   7.574   5.800  0.3548  0.4312 -0.1293
   53MOL   O21615920   5.082   7.489   5.884  0.7623  0.0583 -0.5442
   53MOL   O21715921   5.223   7.654   5.809 -0.1740 -0.1894 -0.1158
   53MOL   C21815922   5.313   7.631   5.915  0.2257 -0.3337  0.7447
   53MOL   H21915923   5.014   7.809   5.747 -0.3457  0.5744  1.5169
   53MOL   H22015924   4.893   7.787   5.636  1.3076  0.3274 -0.1368
   53MOL   H22115925   5.143   7.717   5.570  0.0169 -1.0735  4.8835
   53MOL   H22215926   5.158   7.554   5.527 -0.0846 -0.8719 -1.8234
   53MOL   H22315927   5.012   7.661   5.478 -2.2856  2.1657  3.5283
   53MOL   H22415928   5.263   7.645   6.011  1.5850 -1.9889  1.7259
   53MOL   H22515929   5.395   7.703   5.904  0.3019 -0.7823 -1.9930
   53MOL   H22615930   5.347   7.528   5.927  0.1518 -0.3167  1.1268
   53MOL   C22715931   4.898   7.492   5.667  0.1515  0.1882  0.3134
   53MOL   C22815932   4.913   7.349   5.601 -0.5274 -0.2082  0.5794
   53MOL   C22915933   4.923   7.378   5.450  0.4019 -0.0305  0.7552
   53MOL   C23015934   5.048   7.279   5.630  0.1048  0.1454 -0.2263
   53MOL   O23115935   5.143   7.283   5.553  0.1242 -0.2281  0.7048
   53MOL   O23215936   5.045   7.218   5.745 -0.6234  0.0968  0.2976
   53MOL   C23315937   5.171   7.168   5.796 -0.9105 -0.0640 -0.6539
   53MOL   H23415938   4.823   7.537   5.602  0.7529  1.0682  0.2166
   53MOL   H23515939   4.841   7.491   5.759 -1.0224 -1.1751 -0.4124
   53MOL   H23615940   4.936   7.284   5.396  0.6275  0.3619  0.1224
   53MOL   H23715941   4.831   7.417   5.406  0.4760 -0.9770 -0.2572
   53MOL   H23815942   5.013   7.434   5.424  0.8218 -1.8282 -1.8254
   53MOL   H23915943   5.245   7.125   5.729 -0.5189 -1.1920  0.4903
   53MOL   H24015944   5.156   7.095   5.876 -0.7921 -0.0599 -0.6283
   53MOL   H24115945   5.203   7.257   5.851 -1.4916  0.3930 -1.0440
   53MOL   C24215946   4.798   7.265   5.647 -0.0685 -0.1315  0.4428
   53MOL   C24315947   4.650   7.268   5.582 -0.3736 -0.1767  0.1661
   53MOL   C24415948   4.598   7.420   5.571 -0.6545  0.9398  0.2582
   53MOL   C24515949   4.665   7.207   5.440  0.2751 -0.0456  0.0813
   53MOL   O24615950   4.617   7.265   5.341  0.0666  0.3590  0.1610
   53MOL   O24715951   4.745   7.097   5.436 -0.0194  0.0269  0.2215
   53MOL   C24815952   4.765   7.028   5.313  0.0788  0.1445 -0.5949
   53MOL   H24915953   4.795   7.290   5.753 -0.1135 -1.4910  0.7712
   53MOL   H25015954   4.823   7.159   5.643 -1.9796 -0.5409 -2.4362
   53MOL   H25115955   4.651   7.477   5.494 -1.2854 -3.4597 -3.6142
   53MOL   H25215956   4.500   7.423   5.525 -1.3464 -0.2802  1.6262
   53MOL   H25315957   4.593   7.472   5.667 -0.2036  0.1524  0.7061
   53MOL   H25415958   4.841   6.953   5.332 -0.0340 -0.1375 -1.2458
   53MOL   H25515959   4.806   7.086   5.230  1.0149  1.4309  0.7310
   53MOL   H25615960   4.667   6.982   5.295 -0.6331  1.5539 -0.4090
   53MOL   C25715961   4.566   7.171   5.674 -0.2556  0.1690 -0.2832
   53MOL   C25815962   4.406   7.182   5.704 -0.1993 -0.1697 -0.0182
   53MOL   C25915963   4.376   7.301   5.801  0.6341 -0.1069  0.1273
   53MOL   C26015964   4.332   7.206   5.575 -0.8907 -0.9206  0.9322
   53MOL   O26115965   4.251   7.301   5.560 -0.4306  0.7227  0.1377
   53MOL   O26215966   4.369   7.124   5.475 -0.1901 -0.4036 -0.1634
   53MOL   C26315967   4.334   7.156   5.339 -0.1062  0.0876 -0.1805
   53MOL   H26415968   4.608   7.182   5.774  0.3049  0.5988 -0.5675
   53MOL   H26515969   4.572   7.072   5.629 -1.6067  0.4283 -1.0737
   53MOL   H26615970   4.423   7.277   5.896 -0.5748 -1.3389  0.4193
   53MOL   H26715971   4.411   7.399   5.767 -1.3840  0.2787 -0.9562
   53MOL   H26815972   4.270   7.314   5.821  0.9231 -1.2563  2.5108
   53MOL   H26915973   4.374   7.254   5.313 -0.2673 -0.2496 -1.7025
   53MOL   H27015974   4.229   7.175   5.319 -0.1857 -0.1365  0.0219
   53MOL   H27115975   4.365   7.084   5.264 -1.4292 -0.5987 -0.0764
   53MOL   C27215976   4.350   7.045   5.763  0.7088 -0.3685  0.1232
   53MOL   C27315977   4.391   6.972   5.900 -0.8321  0.7028  0.1470
   53MOL   C27415978   4.546   6.980   5.925 -0.5621  0.7270 -0.0564
   53MOL   C27515979   4.317   7.028   6.027  0.0720 -0.3482  0.3739
   53MOL   O27615980   4.208   7.093   6.022  0.0229 -0.5311 -0.0210
   53MOL   O27715981   4.385   7.001   6.137  0.4396 -0.1592  0.1178
   53MOL   C27815982   4.333   7.042   6.261 -0.2644 -0.0876 -0.0644
   53MOL   H27915983   4.374   6.970   5.687 -0.1330 -0.7953  0.2735
   53MOL   H28015984   4.241   7.041   5.768  0.8529 -1.6980  3.0068
   53MOL   H28115985   4.569   7.084   5.949 -1.8729  1.2439 -0.9769
   53MOL   H28215986   4.582   6.909   6.000  1.5321  0.3753 -1.3548
   53MOL   H28315987   4.598   6.955   5.832  1.1627 -0.9385  1.3209
   53MOL   H28415988   4.412   7.036   6.335  0.5029  2.5366 -0.6030
   53MOL   H28515989   4.255   6.969   6.283 -1.9955  1.6590 -0.3001
   53MOL   H28615990   4.300   7.145   6.249  0.2393 -0.0605 -1.3526
   53MOL   C28715991   4.341   6.827   5.900 -0.2319  0.3047 -0.1658
   53MOL   C28815992   4.188   6.792   5.901 -0.4061  0.3369  0.6156
   53MOL   C28915993   4.144   6.733   5.767 -0.4467 -0.5423  0.3203
   53MOL   C29015994   4.142   6.701   6.015  0.0076  0.0072 -0.4778
   53MOL   O29115995   4.082   6.587   6.005 -0.3315  0.1548 -0.3973
   53MOL   O29215996   4.174   6.759   6.132  0.2188  0.1410  0.3858
   53MOL   C29315997   4.151   6.689   6.258  0.0184 -0.4635  0.4582
   53MOL   H29415998   4.395   6.785   5.985  0.0996  0.1170 -0.4687
   53MOL   H29515999   4.389   6.780   5.814  0.5091 -0.5057  0.6845
   53MOL   H29616000   4.036   6.723   5.759 -0.3644 -1.0456 -0.2350
   53MOL   H29716001   4.163   6.793   5.678  1.8506 -1.5264  0.1219
   53MOL   H29816002   4.181   6.632   5.752  1.7450 -0.1671  2.8409
   53MOL   H29916003   4.056   6.700   6.309  0.5792 -0.6142  1.5429
   53MOL   H30016004   4.230   6.717   6.328 -0.0296 -2.0264  1.1595
   53MOL   H30116005   4.163   6.581   6.253 -2.9179 -0.8045  0.2163
   53MOL   H30216006   4.128   6.881   5.918  1.1859  1.4170  0.6929
   54MOL     C116007   1.162   7.318   6.352  0.0500  0.4154  0.5205
   54MOL     C216008   1.097   7.243   6.232  1.1608 -0.3340  0.3958
   54MOL     C316009   1.191   7.130   6.172  0.0845 -0.3494 -0.3105
   54MOL     C416010   0.964   7.176   6.283 -0.5825 -0.0687  0.1128
   54MOL     O516011   0.942   7.176   6.404  0.0790  0.3980  0.1788
   54MOL     O616012   0.891   7.119   6.192  0.6933 -0.3376  0.3546
   54MOL     C716013   0.773   7.047   6.232  0.0440  0.1733  0.1714
   54MOL     H816014   1.243   7.383   6.318  1.9223 -2.1837 -0.2148
   54MOL     H916015   1.081   7.367   6.405  0.1939  0.6340  0.5394
   54MOL    H1016016   1.151   7.085   6.081 -0.6771 -0.1868 -0.0581
   54MOL    H1116017   1.291   7.171   6.156 -0.2172  0.6477  0.3181
   54MOL    H1216018   1.213   7.051   6.244  0.4055 -0.4421 -0.5114
   54MOL    H1316019   0.688   7.108   6.263 -0.0865 -1.1019  2.4031
   54MOL    H1416020   0.796   6.987   6.319  3.0614  0.4928 -0.3331
   54MOL    H1516021   0.751   6.978   6.151  0.6314  0.2651 -0.0753
   54MOL    H1616022   1.200   7.242   6.420 -0.8684  0.3416  0.9563
   54MOL    C1716023   1.055   7.332   6.106  0.0482  0.1921 -0.8926
   54MOL    C1816024   0.976   7.472   6.125 -0.5368  0.3285  0.1984
   54MOL    C1916025   0.844   7.444   6.200 -0.8542 -0.1634 -0.4230
   54MOL    C2016026   1.056   7.580   6.205  0.0989  0.0656  0.8236
   54MOL    O2116027   1.002   7.653   6.287  0.5803 -0.4209  0.6681
   54MOL    O2216028   1.184   7.585   6.166 -0.3113 -0.5886  0.6450
   54MOL    C2316029   1.269   7.676   6.233  0.0492 -0.3202 -0.0927
   54MOL    H2416030   1.016   7.273   6.024  0.2855 -1.9230  0.4781
   54MOL    H2516031   1.154   7.360   6.073  0.5972  0.5834  0.9912
   54MOL    H2616032   0.795   7.539   6.221  1.2426  0.6552  0.9027
   54MOL    H2716033   0.774   7.386   6.140 -1.4309  0.9486 -0.8370
   54MOL    H2816034   0.858   7.408   6.302 -0.4057 -0.4715 -0.5927
   54MOL    H2916035   1.315   7.636   6.323 -2.8630 -1.5049  0.9437
   54MOL    H3016036   1.207   7.762   6.262 -0.3546  1.4568 -5.4852
   54MOL    H3116037   1.343   7.713   6.162 -1.1896  2.5986  0.0659
   54MOL    C3216038   0.937   7.546   5.987 -1.1273 -0.2601 -0.5059
   54MOL    C3316039   1.042   7.622   5.886  0.4326  0.3284  0.5382
   54MOL    C3416040   1.104   7.753   5.941  0.1202  0.6919 -0.3200
   54MOL    C3516041   1.150   7.514   5.852 -0.4548  0.0087  0.2117
   54MOL    O3616042   1.275   7.533   5.869 -0.5478 -0.8128  0.6273
   54MOL    O3716043   1.103   7.401   5.806  0.6158  0.1653 -0.0561
   54MOL    C3816044   1.194   7.307   5.752  0.1200 -0.1452 -0.2510
   54MOL    H3916045   0.855   7.616   6.004 -0.9965 -0.7388  2.3973
   54MOL    H4016046   0.881   7.472   5.930 -0.3427 -1.4057  0.1813
   54MOL    H4116047   1.207   7.743   5.975 -0.6132  1.9266  2.4672
   54MOL    H4216048   1.101   7.838   5.873 -0.7632 -1.1105 -2.6056
   54MOL    H4316049   1.049   7.800   6.023  0.2730  0.7708 -0.2631
   54MOL    H4416050   1.205   7.235   5.833 -0.7630  1.0353  0.9515
   54MOL    H4516051   1.288   7.348   5.716 -0.6323  1.9876  0.1761
   54MOL    H4616052   1.148   7.251   5.671 -1.3171  0.6098  0.0227
   54MOL    C4716053   0.961   7.664   5.750 -0.4453 -0.1791 -0.1264
   54MOL    C4816054   1.037   7.702   5.611 -0.3772  0.0184  0.0548
   54MOL    C4916055   1.171   7.780   5.633 -0.5420  0.2450  0.2550
   54MOL    C5016056   1.066   7.563   5.548  0.4010 -0.7402  0.6438
   54MOL    O5116057   1.179   7.518   5.518  0.2001 -0.3467  0.2551
   54MOL    O5216058   0.955   7.493   5.521  0.3661 -0.2409 -0.4161
   54MOL    C5316059   0.975   7.353   5.466 -0.4194 -0.0126 -0.2238
   54MOL    H5416060   0.891   7.742   5.779 -0.6287 -0.5455  0.4257
   54MOL    H5516061   0.897   7.578   5.733 -0.2730 -0.2213 -0.5694
   54MOL    H5616062   1.233   7.785   5.544  0.0883  1.0494  0.7277
   54MOL    H5716063   1.147   0.006   5.659 -0.4953  0.5292 -0.8165
   54MOL    H5816064   1.236   7.728   5.704  0.9895  0.5238 -0.9257
   54MOL    H5916065   1.012   7.282   5.541 -1.3758 -0.2203  0.0616
   54MOL    H6016066   1.054   7.369   5.393  0.9537  1.9705  1.6208
   54MOL    H6116067   0.887   7.315   5.414  0.8084 -2.4817 -0.5670
   54MOL    C6216068   0.932   7.774   5.515  0.8415  0.5653 -0.0848
   54MOL    C6316069   0.888   0.048   5.517 -0.1095 -0.4029 -0.2972
   54MOL    C6416070   0.809   0.083   5.647  0.5499 -0.4297 -0.6061
   54MOL    C6516071   1.011   0.144   5.506 -0.8446  0.0421 -0.4726
   54MOL    O6616072   1.028   0.243   5.575  0.3921 -0.2996 -0.0195
   54MOL    O6716073   1.085   0.111   5.398  0.5628  0.4731  0.1742
   54MOL    C6816074   1.197   0.189   5.363 -0.2049  0.3913  0.5097
   54MOL    H6916075   0.839   7.718   5.515  2.3321 -2.0014  1.7464
   54MOL    H7016076   0.966   7.761   5.412 -2.0627  1.0704 -1.1641
   54MOL    H7116077   0.721   0.020   5.652 -0.2075  0.7293  1.0287
   54MOL    H7216078   0.878   0.071   5.730 -0.3688  0.4792  0.3087
   54MOL    H7316079   0.783   0.189   5.659 -2.1446 -1.0101 -1.0695
   54MOL    H7416080   1.213   0.189   5.255  1.0085  2.8226  0.6492
   54MOL    H7516081   1.291   0.149   5.399  0.2174  1.2875  0.4208
   54MOL    H7616082   1.192   0.297   5.380 -1.6093  0.8101 -2.2599
   54MOL    C7716083   0.788   0.076   5.393 -0.3391  0.5639  0.4799
   54MOL    C7816084   0.749   0.221   5.334 -0.2524 -0.0887  0.4585
   54MOL    C7916085   0.611   0.197   5.263 -0.0635 -0.1961 -0.3460
   54MOL    C8016086   0.713   0.323   5.447 -0.4735 -0.0853  0.2083
   54MOL    O8116087   0.603   0.317   5.507 -0.0987  0.5112  0.1022
   54MOL    O8216088   0.808   0.410   5.466  0.2828  0.0014 -0.0106
   54MOL    C8316089   0.786   0.523   5.553  0.4528 -0.2155  0.3989
   54MOL    H8416090   0.695   0.022   5.405 -2.0124  2.7193 -2.1020
   54MOL    H8516091   0.825   0.016   5.310  0.6469  0.6323  0.8637
   54MOL    H8616092   0.622   0.118   5.189  0.3639 -2.9513  2.5479
   54MOL    H8716093   0.530   0.177   5.334  0.2801  3.0718  1.0590
   54MOL    H8816094   0.576   0.293   5.224 -0.4253 -0.2233 -0.0889
   54MOL    H8916095   0.694   0.578   5.536  1.4330  1.8299  1.5244
   54MOL    H9016096   0.863   0.598   5.535  1.9616 -2.0762 -1.2882
   54MOL    H9116097   0.778   0.496   5.658  0.7603  4.8515  1.8103
   54MOL    C9216098   0.868   0.268   5.244 -0.1205  0.1167  0.0589
   54MOL    C9316099   0.862   0.369   5.124 -0.5045 -0.2053  0.9147
   54MOL    C9416100   1.012   0.397   5.087 -0.2849  0.2417  0.5600
   54MOL    C9516101   0.807   0.296   5.000 -0.5992  0.4183 -0.4832
   54MOL    O9616102   0.767   0.184   5.001  0.6499  0.0293  0.3199
   54MOL    O9716103   0.821   0.366   4.885  0.4833 -0.3074  0.0129
   54MOL    C9816104   0.784   0.311   4.754 -0.2084 -0.0497 -0.8335
   54MOL    H9916105   0.917   0.177   5.208  2.5156  1.1442  0.9229
   54MOL   H10016106   0.942   0.315   5.309  0.5178 -0.8707  0.0465
   54MOL   H10116107   1.069   0.316   5.042 -0.1445  1.0258 -0.6806
   54MOL   H10216108   1.018   0.477   5.014  0.8685 -0.5710 -0.2468
   54MOL   H10316109   1.065   0.427   5.178  1.2273 -1.1334  0.1584
   54MOL   H10416110   0.682   0.272   4.763 -1.3710  2.6178 -2.0329
   54MOL   H10516111   0.856   0.235   4.725 -1.3252 -2.1700  1.6852
   54MOL   H10616112   0.801   0.388   4.679  1.2543  0.8596  0.3922
   54MOL   C10716113   0.796   0.507   5.162 -0.0891  0.4689  0.3162
   54MOL   C10816114   0.733   0.620   5.070 -0.1926  0.7619 -0.3722
   54MOL   C10916115   0.835   0.683   4.979 -0.3688  0.7179  0.3594
   54MOL   C11016116   0.616   0.559   4.986  0.0344  0.1462  0.4524
   54MOL   O11116117   0.604   0.586   4.865 -0.5221 -0.4090  0.0302
   54MOL   O11216118   0.531   0.486   5.067 -0.5406  0.1615  0.4686
   54MOL   C11316119   0.439   0.405   4.996  0.1211  0.1722 -0.3534
   54MOL   H11416120   0.861   0.556   5.235  0.6331  0.0238 -0.0286
   54MOL   H11516121   0.715   0.476   5.229  0.7874 -1.1149  0.6720
   54MOL   H11616122   0.916   0.724   5.038  0.9384  0.5754 -1.3059
   54MOL   H11716123   0.878   0.606   4.915  2.0357  2.2852  0.0471
   54MOL   H11816124   0.798   0.757   4.908 -0.2211  1.7685  1.3758
   54MOL   H11916125   0.470   0.360   4.902 -2.0425 -0.4452 -0.8012
   54MOL   H12016126   0.347   0.459   4.974  0.6524  1.6612  1.0419
   54MOL   H12116127   0.403   0.323   5.058 -1.3918  2.2565  1.6162
   54MOL   C12216128   0.679   0.723   5.175  0.0266  0.0824  0.1684
   54MOL   C12316129   0.657   0.874   5.142  0.6115 -0.4229 -0.0744
   54MOL   C12416130   0.796   0.954   5.131  0.2516  0.1867 -1.0520
   54MOL   C12516131   0.589   0.900   5.007  0.3617  0.0824  0.1322
   54MOL   O12616132   0.628   0.986   4.925 -0.2103 -0.3100  0.3823
   54MOL   O12716133   0.469   0.846   4.999  0.0519 -0.8458  0.4109
   54MOL   C12816134   0.392   0.848   4.885 -0.8893  0.2450 -0.1607
   54MOL   H12916135   0.733   0.710   5.269 -1.7293  0.8907  1.3099
   54MOL   H13016136   0.580   0.686   5.204 -0.4719 -0.1380 -1.7652
   54MOL   H13116137   0.872   0.908   5.195 -0.9903 -0.9457 -0.3642
   54MOL   H13216138   0.837   0.945   5.030 -2.0972 -0.9579 -1.9395
   54MOL   H13316139   0.786   1.058   5.160 -0.4770  0.2182 -1.4109
   54MOL   H13416140   0.293   0.803   4.898 -1.2649  1.9558  3.2918
   54MOL   H13516141   0.437   0.806   4.795  0.6329  3.3241 -0.8893
   54MOL   H13616142   0.373   0.947   4.845  1.8472  1.0854  0.5029
   54MOL   C13716143   0.570   0.943   5.256  0.5898 -0.3451 -0.0688
   54MOL   C13816144   0.577   0.922   5.407  0.2416 -0.2511  0.1881
   54MOL   C13916145   0.496   0.790   5.448  0.1494 -0.6497 -0.3587
   54MOL   C14016146   0.725   0.915   5.459  0.1455 -0.1872  0.2683
   54MOL   O14116147   0.750   0.832   5.543 -0.5147  0.1036 -0.2962
   54MOL   O14216148   0.804   1.016   5.408  0.5940 -0.1035 -0.0967
   54MOL   C14316149   0.940   1.012   5.444 -0.5279  0.0736 -0.4479
   54MOL   H14416150   0.466   0.919   5.235  0.9977 -2.2057  0.0202
   54MOL   H14516151   0.575   1.050   5.234  2.8893 -0.2905  0.6102
   54MOL   H14616152   0.557   0.701   5.431  2.0398  0.3406  0.9427
   54MOL   H14716153   0.484   0.777   5.556  0.8403  1.2301 -0.0393
   54MOL   H14816154   0.398   0.776   5.403  0.6704 -1.2563 -1.3325
   54MOL   H14916155   0.968   1.118   5.441 -0.0542 -0.0867 -1.9219
   54MOL   H15016156   1.003   0.974   5.364 -1.1420 -1.8264 -0.0618
   54MOL   H15116157   0.967   0.950   5.529  0.4100 -1.1860 -1.6617
   54MOL   C15216158   0.518   1.042   5.486 -0.5233 -0.2447  0.6631
   54MOL   C15316159   0.374   1.100   5.461  0.1972  0.1864  0.5437
   54MOL   C15416160   0.357   1.197   5.575  0.4149 -0.0694 -0.0203
   54MOL   C15516161   0.360   1.184   5.323 -0.5777  0.0121  0.7785
   54MOL   O15616162   0.383   1.300   5.330  0.1392  0.1332 -0.4358
   54MOL   O15716163   0.330   1.112   5.213 -0.2728 -0.1188 -0.0583
   54MOL   C15816164   0.337   1.183   5.092  0.3820 -0.4819 -0.6991
   54MOL   H15916165   0.589   1.123   5.504 -0.9508  0.3790 -0.3999
   54MOL   H16016166   0.520   0.996   5.585  0.6950  0.0214  0.7711
   54MOL   H16116167   0.446   1.259   5.579  0.4646 -0.0791 -0.9896
   54MOL   H16216168   0.275   1.268   5.571 -0.1942 -0.8601 -2.1836
   54MOL   H16316169   0.350   1.148   5.672 -1.4052  0.4705  0.1401
   54MOL   H16416170   0.247   1.243   5.082 -0.8132 -1.8212  1.6175
   54MOL   H16516171   0.341   1.123   5.002 -0.1227  2.0434 -2.4614
   54MOL   H16616172   0.423   1.250   5.087  0.8644 -0.8985  1.3359
   54MOL   C16716173   0.270   0.977   5.466 -0.3082 -0.3238  0.0441
   54MOL   C16816174   0.111   0.987   5.477  0.0227 -0.0942  0.1847
   54MOL   C16916175   0.055   0.853   5.418  0.5087 -0.1817 -0.9819
   54MOL   C17016176   0.072   0.991   5.622 -0.3930 -0.4994  0.4045
   54MOL   O17116177   0.034   0.890   5.685  0.0567  0.2025  0.6990
   54MOL   O17216178   0.089   1.111   5.677 -0.1739 -0.6206  0.5365
   54MOL   C17316179   0.067   1.139   5.818  0.2101  0.0981  0.1498
   54MOL   H17416180   0.298   0.920   5.555 -1.7256 -3.7975 -1.6199
   54MOL   H17516181   0.284   0.923   5.373  1.7950  1.1881 -0.5584
   54MOL   H17616182   0.062   0.856   5.309 -2.4173 -0.0513 -1.2222
   54MOL   H17716183   0.109   0.762   5.443  1.8073  0.6751 -0.6067
   54MOL   H17816184   7.833   0.820   5.449  0.3065  1.3389  0.0652
   54MOL   H17916185   7.876   1.070   5.867 -0.5525 -1.7105 -3.3378
   54MOL   H18016186   0.026   1.240   5.821  0.2061  0.2131 -2.4783
   54MOL   H18116187   0.163   1.138   5.870 -0.1184 -3.7967  0.8332
   54MOL   C18216188   0.048   1.100   5.389 -0.0268 -0.3830 -0.1885
   54MOL   C18316189   7.765   1.130   5.377 -0.5432  0.0129 -0.3164
   54MOL   C18416190   7.696   1.011   5.308 -0.1576 -0.1614 -0.6023
   54MOL   C18516191   7.697   1.152   5.517 -0.5036 -0.1321 -0.1126
   54MOL   O18616192   7.617   1.077   5.568 -0.0187 -0.4157 -0.4069
   54MOL   O18716193   7.737   1.260   5.584 -0.0277  0.0591  0.0001
   54MOL   C18816194   7.683   1.297   5.711  0.1678 -0.2864  0.6626
   54MOL   H18916195   0.094   1.081   5.292  1.3445 -1.0453  0.5716
   54MOL   H19016196   0.091   1.195   5.420  0.2078 -0.8342  0.8958
   54MOL   H19116197   7.744   0.999   5.211  1.3851 -1.6624  0.3195
   54MOL   H19216198   7.688   0.916   5.361 -1.2878 -0.6730 -1.6598
   54MOL   H19316199   7.588   1.023   5.303 -0.1989  0.7144  1.6240
   54MOL   H19416200   7.662   1.215   5.781  2.9288 -0.6507  1.1001
   54MOL   H19516201   7.588   1.345   5.687  1.1021  0.9380 -0.6007
   54MOL   H19616202   7.747   1.362   5.771  2.1706  0.9248 -2.6607
   54MOL   C19716203   7.770   1.256   5.284 -0.1344 -0.4410 -0.3524
   54MOL   C19816204   7.649   1.333   5.214  0.2267 -0.3759  0.3647
   54MOL   C19916205   7.614   1.237   5.095 -0.7414 -0.2218  0.6595
   54MOL   C20016206   7.516   1.349   5.302 -0.6060  0.0874  0.2003
   54MOL   O20116207   7.517   1.383   5.422 -0.8733  0.7581 -0.4516
   54MOL   O20216208   7.409   1.322   5.229  0.1664  0.1974  0.1709
   54MOL   C20316209   7.281   1.333   5.289 -0.1973 -0.4697 -0.3212
   54MOL   H20416210   7.842   1.224   5.209  0.7456 -0.7339  0.6015
   54MOL   H20516211   7.814   1.331   5.350  0.1633  0.5067 -1.6090
   54MOL   H20616212   7.561   1.146   5.122 -0.3369 -0.6570  0.0226
   54MOL   H20716213   7.550   1.290   5.024  1.0434  2.7796  1.2009
   54MOL   H20816214   7.704   1.209   5.039 -0.0744  1.9718  0.5667
   54MOL   H20916215   7.290   1.306   5.395 -0.8082  2.2554  0.4505
   54MOL   H21016216   7.205   1.271   5.241 -0.2557  0.0482 -0.9011
   54MOL   H21116217   7.254   1.438   5.281  0.9961 -0.0213  1.3905
   54MOL   C21216218   7.700   1.466   5.144  0.2517  0.3795  0.1103
   54MOL   C21316219   7.813   1.561   5.201  0.1162 -0.3458  0.0364
   54MOL   C21416220   0.076   1.488   5.192  0.3379  0.0722  0.4908
   54MOL   C21516221   7.817   1.688   5.103 -0.6155  0.5764  0.0195
   54MOL   O21616222   0.043   1.724   5.051  0.2268 -0.5702  0.3379
   54MOL   O21716223   7.699   1.743   5.081  0.0701 -0.0598 -0.7821
   54MOL   C21816224   7.684   1.839   4.980 -0.0608  0.4556 -0.7192
   54MOL   H21916225   7.610   1.527   5.134 -1.0447 -1.8669 -2.9234
   54MOL   H22016226   7.719   1.444   5.039  0.9296  0.9951  0.1043
   54MOL   H22116227   0.153   1.558   5.226 -1.8816  2.3510  0.9271
   54MOL   H22216228   0.087   1.389   5.237 -0.7529 -0.8091 -1.1349
   54MOL   H22316229   0.083   1.468   5.085 -1.2905  0.6288  0.2670
   54MOL   H22416230   7.714   1.940   5.009  1.7946 -0.0044 -0.9700
   54MOL   H22516231   7.578   1.843   4.957 -0.6995 -3.9725  1.0851
   54MOL   H22616232   7.736   1.798   4.893 -2.2743  0.3818 -2.0502
   54MOL   C22716233   7.771   1.607   5.348  0.4424  0.1989 -0.7194
   54MOL   C22816234   0.001   1.666   5.451 -0.2849 -0.1480  0.5318
   54MOL   C22916235   0.082   1.553   5.528 -0.0676  0.2836  0.3159
   54MOL   C23016236   0.101   1.768   5.381  0.6194 -0.2766  0.4085
   54MOL   O23116237   0.217   1.743   5.360  0.3617 -0.1238 -0.4226
   54MOL   O23216238   0.041   1.875   5.333  0.8403  0.2846  0.4255
   54MOL   C23316239   0.112   1.972   5.265 -0.1259 -0.7787 -0.9880
   54MOL   H23416240   7.726   1.522   5.401  4.4859 -2.8520 -1.9374
   54MOL   H23516241   7.705   1.692   5.331  1.1907  0.7705 -0.8212
   54MOL   H23616242   0.156   1.596   5.597  1.6417  1.9337 -2.4446
   54MOL   H23716243   0.018   1.484   5.582  0.8220  0.8117  2.1029
   54MOL   H23816244   0.130   1.494   5.450 -0.1142  0.3320  0.2507
   54MOL   H23916245   0.087   1.981   5.160 -0.6141  1.2702 -0.7097
   54MOL   H24016246   0.221   1.971   5.279  0.0952  2.5334 -1.9531
   54MOL   H24116247   0.081   2.064   5.315 -0.1751 -0.7355 -1.0992
   54MOL   C24216248   7.783   1.743   5.550  0.1247  0.6899 -1.0602
   54MOL   C24316249   7.828   1.822   5.680  0.1183 -0.6029  0.2290
   54MOL   C24416250   0.065   1.923   5.646 -0.8837  0.4356  0.6526
   54MOL   C24516251   7.705   1.908   5.727 -0.5617  0.9689  0.4225
   54MOL   O24616252   7.718   2.030   5.750 -0.1673  0.3215  0.5294
   54MOL   O24716253   7.589   1.839   5.740 -0.2508 -0.1120 -0.4533
   54MOL   C24816254   7.483   1.903   5.805 -0.6553  0.1971  0.6362
   54MOL   H24916255   7.721   1.662   5.589 -1.8518  1.7061 -2.0244
   54MOL   H25016256   7.715   1.807   5.494 -1.9155  0.3456  0.9722
   54MOL   H25116257   0.097   1.980   5.733  1.0392  0.0504  0.2175
   54MOL   H25216258   0.156   1.870   5.620 -0.8635 -0.4413  2.4574
   54MOL   H25316259   0.036   1.995   5.569 -0.2958 -0.0443 -0.0250
   54MOL   H25416260   7.442   1.817   5.857  1.6172 -1.2246  0.1802
   54MOL   H25516261   7.407   1.942   5.738 -0.4626 -0.8634 -0.2198
   54MOL   H25616262   7.512   1.984   5.872  0.8136 -1.1376  1.6594
   54MOL   C25716263   0.007   1.724   5.794 -0.1815  0.7666 -0.3480
   54MOL   C25816264   0.012   1.762   5.946  0.1262 -0.5187 -0.1403
   54MOL   C25916265   0.080   1.899   5.973 -0.3344  0.9386 -0.1278
   54MOL   C26016266   7.752   1.759   6.008 -0.3687  0.0591  0.0070
   54MOL   O26116267   7.713   1.851   6.084 -0.0184 -0.1989  0.1137
   54MOL   O26216268   7.684   1.647   5.984  0.2504  0.4721  0.5922
   54MOL   C26316269   7.556   1.620   6.049 -0.4491  0.3293  0.1263
   54MOL   H26416270   0.113   1.710   5.769 -0.5232 -0.8665 -0.9326
   54MOL   H26516271   7.829   1.631   5.786  2.3713 -1.3508  4.3164
   54MOL   H26616272   0.018   1.984   5.943 -2.1967  0.0782  1.1959
   54MOL   H26716273   0.082   1.907   6.082  2.3651 -1.1835  0.0344
   54MOL   H26816274   0.182   1.892   5.934 -0.6104 -2.0746 -0.4282
   54MOL   H26916275   7.559   1.668   6.147 -0.4124 -0.3064  0.4426
   54MOL   H27016276   7.554   1.511   6.051  3.0003  0.1787 -1.0187
   54MOL   H27116277   7.469   1.650   5.990 -0.5782 -1.8214 -0.8190
   54MOL   C27216278   0.104   1.645   6.005 -0.1473  0.0904 -0.0016
   54MOL   C27316279   0.177   1.655   6.148  0.0899 -0.5600 -0.0452
   54MOL   C27416280   0.300   1.750   6.145 -0.2388 -0.3884  0.3389
   54MOL   C27516281   0.083   1.706   6.265  0.1192  0.4656 -0.8908
   54MOL   O27616282   0.120   1.792   6.351 -0.3460  0.0543 -0.3009
   54MOL   O27716283   7.843   1.644   6.274 -0.1776  0.4747  0.0781
   54MOL   C27816284   7.751   1.664   6.381 -0.2912 -0.5809  0.1894
   54MOL   H27916285   0.193   1.643   5.943  0.5188 -2.5961  0.9194
   54MOL   H28016286   0.051   1.549   6.008  0.0988 -0.0104  1.9384
   54MOL   H28116287   0.300   1.856   6.121 -2.1957 -0.6902 -1.0597
   54MOL   H28216288   0.360   1.751   6.237 -0.4302 -0.9538  0.4743
   54MOL   H28316289   0.356   1.710   6.061 -1.9153 -0.2253 -0.8566
   54MOL   H28416290   7.648   1.678   6.347 -0.1640  3.7266  1.2143
   54MOL   H28516291   7.757   1.758   6.436 -0.8107 -0.5846  0.2523
   54MOL   H28616292   7.742   1.580   6.451 -1.0711 -0.7339 -0.0955
   54MOL   C28716293   0.230   1.516   6.195  0.4635 -0.3309 -0.2260
   54MOL   C28816294   0.137   1.398   6.221  0.5197 -0.9198 -0.2340
   54MOL   C28916295   0.182   1.275   6.135 -0.6567  0.5556  0.5352
   54MOL   C29016296   0.118   1.346   6.364 -0.5227  1.3916  0.1896
   54MOL   O29116297   0.208   1.352   6.446 -0.0534 -0.0863  0.1009
   54MOL   O29216298   7.877   1.283   6.386 -0.2428 -0.0779 -0.3095
   54MOL   C29316299   7.847   1.229   6.514  0.3853  0.8018 -0.0548
   54MOL   H29416300   0.287   1.531   6.286 -1.0144 -0.8241  0.8112
   54MOL   H29516301   0.300   1.493   6.115  0.8519  1.2377 -0.3644
   54MOL   H29616302   0.176   1.305   6.031 -0.1512 -2.9381 -0.5541
   54MOL   H29716303   0.283   1.236   6.143 -1.3008 -0.7272  3.0406
   54MOL   H29816304   0.112   1.193   6.151  0.1807 -0.1489  0.6095
   54MOL   H29916305   7.759   1.166   6.524  0.8120 -0.2534 -2.4755
   54MOL   H30016306   7.825   1.309   6.583 -2.9100  1.4751 -1.7891
   54MOL   H30116307   0.058   1.180   6.556  0.6297  0.5446 -0.8402
   54MOL   H30216308   0.036   1.428   6.192  1.0835  1.7075  0.4362
   55MOL     C116309   3.152   2.086   7.455  0.4127 -0.4960  0.1189
   55MOL     C216310   3.084   2.154   7.331  0.0302 -0.5905  0.3060
   55MOL     C316311   3.018   2.040   7.258 -0.1344 -0.2506 -0.1960
   55MOL     C416312   2.981   2.260   7.368 -0.0851  0.0145  0.0695
   55MOL     O516313   2.933   2.276   7.480  0.1150 -0.6594 -0.0574
   55MOL     O616314   2.942   2.330   7.263  0.3345  0.0056 -0.0946
   55MOL     C716315   2.844   2.426   7.288 -0.5549  0.1783 -0.3325
   55MOL     H816316   3.237   2.024   7.425 -1.0494 -1.8823 -1.2065
   55MOL     H916317   3.190   2.162   7.523 -0.7969  0.1905  0.0357
   55MOL    H1016318   3.088   1.961   7.231 -2.5383 -1.7878 -2.1897
   55MOL    H1116319   2.923   2.009   7.302 -0.4889 -0.3615 -1.0311
   55MOL    H1216320   2.980   2.074   7.162 -0.2101  0.4157  0.0629
   55MOL    H1316321   2.750   2.382   7.322 -1.2872  2.0797  0.1750
   55MOL    H1416322   2.827   2.472   7.191  1.2393 -0.4848 -0.9836
   55MOL    H1516323   2.872   2.500   7.363 -0.2304  1.5393 -1.7827
   55MOL    H1616324   3.077   2.028   7.508  1.3846 -0.3870  1.6352
   55MOL    C1716325   3.206   2.214   7.239  0.0926 -0.0562 -0.0804
   55MOL    C1816326   3.294   2.331   7.284 -0.3005 -0.2014  0.4316
   55MOL    C1916327   3.207   2.447   7.334  1.0236 -0.0975 -0.2408
   55MOL    C2016328   3.388   2.283   7.393 -0.4642  0.1198  0.2273
   55MOL    O2116329   3.447   2.173   7.393 -0.7846 -0.3411  0.0822
   55MOL    O2216330   3.422   2.378   7.493 -0.5109  0.1379  0.3508
   55MOL    C2316331   3.505   2.330   7.596 -0.9698 -0.1209 -0.8881
   55MOL    H2416332   3.166   2.247   7.143 -0.2039 -1.0636 -0.3062
   55MOL    H2516333   3.274   2.136   7.206 -0.7128 -0.6566 -0.3466
   55MOL    H2616334   3.152   2.421   7.425 -0.0613 -0.4739 -0.9909
   55MOL    H2716335   3.276   2.524   7.369  0.2375  0.2166  0.6768
   55MOL    H2816336   3.139   2.494   7.263 -0.2758  0.6038  1.4050
   55MOL    H2916337   3.517   2.406   7.673  0.6993 -2.9556  1.7187
   55MOL    H3016338   3.600   2.294   7.558  0.3038 -1.4680  3.3290
   55MOL    H3116339   3.461   2.239   7.638  0.0899 -0.3827 -0.3344
   55MOL    C3216340   3.376   2.380   7.158  0.2414 -0.2880 -0.1945
   55MOL    C3316341   3.520   2.444   7.151 -0.0452  0.2525  0.5124
   55MOL    C3416342   3.518   2.575   7.230  0.6576 -0.0957 -0.3013
   55MOL    C3516343   3.631   2.347   7.192 -0.0242  0.0297  0.5873
   55MOL    O3616344   3.720   2.386   7.262 -0.5033 -0.2387  0.0312
   55MOL    O3716345   3.623   2.219   7.142  0.6088 -0.3178  0.3093
   55MOL    C3816346   3.692   2.113   7.205 -0.4046  0.3264  0.4770
   55MOL    H3916347   3.310   2.446   7.102  0.6106  0.3486  0.1059
   55MOL    H4016348   3.387   2.289   7.099 -0.8260 -0.0689 -0.7379
   55MOL    H4116349   3.519   2.560   7.338  1.2387  1.0140 -0.1505
   55MOL    H4216350   3.603   2.641   7.219  1.8004 -1.2207  1.6037
   55MOL    H4316351   3.427   2.631   7.209 -0.7457 -2.8645 -1.9043
   55MOL    H4416352   3.800   2.107   7.190 -0.5573 -0.7144 -0.2299
   55MOL    H4516353   3.653   2.014   7.180  1.8823 -0.2035 -1.1199
   55MOL    H4616354   3.660   2.089   7.306 -0.4882 -1.8874 -0.0624
   55MOL    C4716355   3.544   2.501   7.001  0.2634 -0.7923  0.3394
   55MOL    C4816356   3.568   2.418   6.863  0.6248  0.1516  0.0832
   55MOL    C4916357   3.711   2.357   6.848  0.0199 -0.1648  0.6770
   55MOL    C5016358   3.465   2.302   6.862 -0.0457  0.4125 -0.0994
   55MOL    O5116359   3.498   2.184   6.861  0.2481 -0.8603 -0.5058
   55MOL    O5216360   3.341   2.340   6.845  0.0443 -0.4923 -0.4052
   55MOL    C5316361   3.253   2.251   6.786 -0.1496  0.0231  0.0396
   55MOL    H5416362   3.635   2.562   7.000  0.1431 -0.6107  0.1889
   55MOL    H5516363   3.464   2.571   6.976  1.8997  0.8603 -0.3998
   55MOL    H5616364   3.747   2.328   6.750 -1.8843 -2.1592  0.5150
   55MOL    H5716365   3.775   2.442   6.871 -0.7083  0.3268  0.9384
   55MOL    H5816366   3.725   2.276   6.920 -0.5467 -0.8971 -0.0334
   55MOL    H5916367   3.273   2.150   6.821  0.9501  0.3155  0.2829
   55MOL    H6016368   3.263   2.258   6.678  0.3716  0.1776  0.0936
   55MOL    H6116369   3.151   2.270   6.817 -0.1128  1.2333 -0.5337
   55MOL    C6216370   3.538   2.528   6.748 -0.1491  0.3719 -0.3347
   55MOL    C6316371   3.563   2.499   6.594  0.8647 -0.0475 -0.7269
   55MOL    C6416372   3.455   2.599   6.526 -0.0254  0.1937 -0.4561
   55MOL    C6516373   3.704   2.549   6.558 -0.6614  0.4472  0.1476
   55MOL    O6616374   3.803   2.477   6.560  0.6812 -0.9470  0.0360
   55MOL    O6716375   3.706   2.685   6.526  0.0426  0.4462  0.5344
   55MOL    C6816376   3.824   2.752   6.504  1.1464 -0.1615 -0.2706
   55MOL    H6916377   3.597   2.614   6.778  0.8804 -0.7432  0.9402
   55MOL    H7016378   3.434   2.553   6.766  0.6635  3.8426 -0.2019
   55MOL    H7116379   3.353   2.560   6.527  0.0054  0.1151 -0.1921
   55MOL    H7216380   3.449   2.693   6.581  1.4642 -0.5091  0.9765
   55MOL    H7316381   3.481   2.621   6.423 -0.4869 -2.5671 -1.2091
   55MOL    H7416382   3.878   2.778   6.595  2.1111  1.1854 -1.1948
   55MOL    H7516383   3.805   2.846   6.451 -1.3409 -0.9770 -0.9013
   55MOL    H7616384   3.877   2.686   6.436  0.7016  0.2724 -1.0548
   55MOL    C7716385   3.539   2.348   6.546 -0.4261 -0.0498 -0.1686
   55MOL    C7816386   3.501   2.307   6.400  0.3157  0.0340  0.4436
   55MOL    C7916387   3.588   2.383   6.299 -0.4485 -0.1350 -0.7076
   55MOL    C8016388   3.528   2.158   6.393  0.2626  0.5447  0.2985
   55MOL    O8116389   3.617   2.107   6.329  0.2753  0.0925  0.0894
   55MOL    O8216390   3.447   2.093   6.480  0.3449  0.2432  0.0473
   55MOL    C8316391   3.460   1.952   6.486  0.6891 -0.5422 -0.0825
   55MOL    H8416392   3.461   2.310   6.612  0.3001  2.0498  1.9625
   55MOL    H8516393   3.629   2.293   6.571 -1.2107 -0.8282  0.9751
   55MOL    H8616394   3.572   2.336   6.202 -1.6566 -2.1680  0.4582
   55MOL    H8716395   3.579   2.491   6.287  1.5580  0.2276  0.8338
   55MOL    H8816396   3.695   2.372   6.316 -0.7552 -1.1386  0.5514
   55MOL    H8916397   3.380   1.901   6.540  0.7353  0.8892  1.3799
   55MOL    H9016398   3.545   1.927   6.550  1.3630  0.0279 -0.7479
   55MOL    H9116399   3.470   1.918   6.383  0.4444  1.7965 -0.8992
   55MOL    C9216400   3.344   2.332   6.369  0.4037  0.5871  0.2435
   55MOL    C9316401   3.253   2.294   6.242  0.4062  0.8397  0.1394
   55MOL    C9416402   3.287   2.152   6.199  0.7056  0.4584  0.2352
   55MOL    C9516403   3.101   2.305   6.294  0.6202 -0.4469  0.3189
   55MOL    O9616404   3.068   2.388   6.375  0.1196  0.2653 -0.3517
   55MOL    O9716405   3.025   2.216   6.237 -0.2763 -0.6324  0.2401
   55MOL    C9816406   2.882   2.233   6.258  0.3403 -0.7225  0.5386
   55MOL    H9916407   3.336   2.440   6.373  2.2701  0.7971 -0.9364
   55MOL   H10016408   3.297   2.309   6.465  0.7486 -0.4524  0.1665
   55MOL   H10116409   3.275   2.070   6.270 -0.1602  0.6294  0.3032
   55MOL   H10216410   3.216   2.129   6.119 -0.4259 -0.0716  1.3702
   55MOL   H10316411   3.381   2.145   6.145 -0.3620  1.8230 -1.8561
   55MOL   H10416412   2.839   2.179   6.342 -1.1775  0.9298  0.8573
   55MOL   H10516413   2.837   2.184   6.172  0.5603  0.8539 -0.4917
   55MOL   H10616414   2.836   2.327   6.290 -0.3940 -1.5088  1.7912
   55MOL   C10716415   3.284   2.399   6.128 -0.2123  0.5507  0.4808
   55MOL   C10816416   3.177   2.442   6.008  0.4445  0.2022  0.4602
   55MOL   C10916417   3.055   2.522   6.074  0.2344 -0.0377  0.5091
   55MOL   C11016418   3.255   2.545   5.916 -0.1753 -0.2125 -0.2639
   55MOL   O11116419   3.215   2.662   5.895 -1.0372 -0.1976  0.0127
   55MOL   O11216420   3.368   2.488   5.868  0.2559  0.1492  0.1570
   55MOL   C11316421   3.442   2.558   5.774 -0.7839 -0.3060  0.2286
   55MOL   H11416422   3.375   2.359   6.084  0.6012  0.9222  1.8171
   55MOL   H11516423   3.326   2.488   6.173 -1.8598  0.3753  2.4412
   55MOL   H11616424   3.101   2.592   6.144 -2.1235  0.6713  1.3923
   55MOL   H11716425   2.993   2.584   6.009 -0.1207 -0.3029  0.5978
   55MOL   H11816426   2.984   2.462   6.131  1.6952  0.6538  3.1523
   55MOL   H11916427   3.541   2.512   5.772 -1.5142 -1.9934  1.7975
   55MOL   H12016428   3.438   2.663   5.805 -0.5690 -0.6738  1.5379
   55MOL   H12116429   3.387   2.553   5.680  0.7898 -0.0263 -0.7246
   55MOL   C12216430   3.135   2.309   5.937 -0.2693 -0.0995 -0.7010
   55MOL   C12316431   3.055   2.317   5.801  0.3052  0.0467  0.0850
   55MOL   C12416432   2.946   2.425   5.807 -0.4426 -0.0634 -0.4428
   55MOL   C12516433   3.155   2.349   5.686  1.2139 -0.5941  0.2069
   55MOL   O12616434   3.147   2.453   5.620  0.3590  0.6676 -0.6317
   55MOL   O12716435   3.254   2.254   5.679  0.0875  0.7318  0.0526
   55MOL   C12816436   3.357   2.267   5.578  0.0141 -0.0406  0.6107
   55MOL   H12916437   3.071   2.262   6.012  1.6452  1.7488  2.2152
   55MOL   H13016438   3.227   2.251   5.929  0.5318  0.9000  0.8076
   55MOL   H13116439   2.896   2.440   5.711 -3.2303 -1.3519  0.7597
   55MOL   H13216440   2.865   2.408   5.878 -1.0486  1.6917 -0.6876
   55MOL   H13316441   2.995   2.521   5.823  0.0760 -0.6312  1.5055
   55MOL   H13416442   3.309   2.324   5.498  2.6798  1.4856  0.0601
   55MOL   H13516443   3.393   2.171   5.542  1.8316  0.5447  0.8014
   55MOL   H13616444   3.440   2.329   5.611 -0.6809  0.5589  1.2348
   55MOL   C13716445   2.988   2.177   5.773  0.4921  0.3223 -0.2072
   55MOL   C13816446   2.885   2.143   5.656 -0.2509  0.0790 -0.4945
   55MOL   C13916447   2.738   2.190   5.692 -0.2769 -0.4398 -0.2079
   55MOL   C14016448   2.923   2.208   5.519  0.1916  0.3834 -0.2450
   55MOL   O14116449   2.870   2.315   5.481 -0.5851 -0.0894  0.0594
   55MOL   O14216450   3.026   2.147   5.458 -0.0754 -0.1989  0.0268
   55MOL   C14316451   3.098   2.204   5.349  0.0582 -0.1683  0.5671
   55MOL   H14416452   2.924   2.153   5.858 -1.5656 -0.5081 -1.9331
   55MOL   H14516453   3.068   2.104   5.768  0.0685 -0.2461  1.0988
   55MOL   H14616454   2.717   2.171   5.797 -0.1158 -0.1153 -0.1137
   55MOL   H14716455   2.732   2.299   5.679  0.2641 -0.2585  1.0408
   55MOL   H14816456   2.662   2.151   5.624 -1.5420 -1.1264  1.5594
   55MOL   H14916457   3.170   2.284   5.367 -0.8588  0.7261  0.3585
   55MOL   H15016458   3.037   2.228   5.262 -0.0998 -0.0001  0.7218
   55MOL   H15116459   3.157   2.118   5.320 -0.8266 -0.8576  0.8049
   55MOL   C15216460   2.880   1.990   5.633 -0.1147 -0.4747  0.1887
   55MOL   C15316461   2.790   1.873   5.700 -0.6243 -0.1603 -1.0396
   55MOL   C15416462   2.859   1.737   5.673 -0.3904  0.1949 -0.1847
   55MOL   C15516463   2.787   1.895   5.850 -0.1713 -0.0446 -0.1468
   55MOL   O15616464   2.690   1.913   5.918 -0.0143  0.1772 -0.0341
   55MOL   O15716465   2.917   1.887   5.899 -0.4937  0.2814 -0.1104
   55MOL   C15816466   2.944   1.900   6.038 -0.4653  0.2372 -0.2043
   55MOL   H15916467   2.986   1.965   5.640 -0.0443 -0.2625 -0.1223
   55MOL   H16016468   2.857   1.972   5.528 -0.8413  0.0068  0.2571
   55MOL   H16116469   2.870   1.710   5.568 -0.5278 -0.8844  0.0707
   55MOL   H16216470   2.960   1.729   5.713  0.4702  3.1063 -1.5847
   55MOL   H16316471   2.804   1.655   5.718 -1.2007  0.4029 -0.7792
   55MOL   H16416472   2.899   1.991   6.078  2.0433  1.9206 -1.1228
   55MOL   H16516473   3.050   1.920   6.051 -1.0142  2.4505  1.0252
   55MOL   H16616474   2.908   1.814   6.095  0.1198  0.0983 -0.0504
   55MOL   C16716475   2.647   1.889   5.628  0.1906 -0.1393 -0.2077
   55MOL   C16816476   2.553   1.767   5.600  0.6343  0.2096 -0.9802
   55MOL   C16916477   2.618   1.679   5.488  0.2139  0.1617  0.3096
   55MOL   C17016478   2.516   1.680   5.726 -0.4627 -0.2777 -0.0255
   55MOL   O17116479   2.570   1.570   5.740  0.1680  0.5136 -0.0038
   55MOL   O17216480   2.453   1.752   5.821 -0.1304  0.4734  0.2755
   55MOL   C17316481   2.413   1.684   5.937  0.0640 -0.4456  0.2201
   55MOL   H17416482   2.649   1.948   5.537  0.5401  1.0146  0.5337
   55MOL   H17516483   2.592   1.961   5.688  0.7452 -0.7070  1.0038
   55MOL   H17616484   2.688   1.738   5.429 -0.7574  1.0172  0.0051
   55MOL   H17716485   2.674   1.589   5.515 -0.0497 -1.1447 -3.1824
   55MOL   H17816486   2.541   1.641   5.421  1.2602 -0.0063 -0.8091
   55MOL   H17916487   2.356   1.754   5.998  0.2066 -1.4214  1.5030
   55MOL   H18016488   2.512   1.660   5.978  0.3898  1.7321  0.7824
   55MOL   H18116489   2.353   1.597   5.913  1.1023 -0.5603 -2.1073
   55MOL   C18216490   2.418   1.842   5.546  0.2962 -0.4054  0.0398
   55MOL   C18316491   2.284   1.772   5.481 -0.2127  0.0843 -0.4075
   55MOL   C18416492   2.171   1.876   5.522 -0.6204  0.0078 -0.6982
   55MOL   C18516493   2.291   1.776   5.325  0.3418  0.1270 -0.0023
   55MOL   O18616494   2.396   1.780   5.256  0.2184  0.8071  0.0639
   55MOL   O18716495   2.173   1.788   5.267  0.3956  0.1991 -0.3590
   55MOL   C18816496   2.178   1.814   5.126  0.3450 -0.2915 -0.6621
   55MOL   H18916497   2.454   1.916   5.474  0.2126 -1.3158 -0.9583
   55MOL   H19016498   2.390   1.903   5.631  1.5553  1.6902 -0.9877
   55MOL   H19116499   2.071   1.858   5.482 -0.1307 -0.4495 -1.7402
   55MOL   H19216500   2.170   1.886   5.631  2.2928  0.9336 -0.7216
   55MOL   H19316501   2.202   1.976   5.493  0.8792 -0.0137  0.7769
   55MOL   H19416502   2.222   1.731   5.071 -0.5678 -0.3788 -1.2656
   55MOL   H19516503   2.241   1.899   5.099 -0.3673  0.4246 -0.1076
   55MOL   H19616504   2.083   1.827   5.075  0.2891  0.8839 -0.2766
   55MOL   C19716505   2.258   1.635   5.542  0.0954  0.6613  0.1524
   55MOL   C19816506   2.154   1.525   5.497 -0.2420 -0.0130  0.6420
   55MOL   C19916507   2.015   1.586   5.485 -0.4913 -0.0235 -0.0774
   55MOL   C20016508   2.202   1.473   5.358 -0.0527  0.0064 -0.0240
   55MOL   O20116509   2.126   1.462   5.265  0.2357  0.3468  0.4417
   55MOL   O20216510   2.333   1.451   5.356  0.0433  0.5837  0.1378
   55MOL   C20316511   2.391   1.386   5.248  0.1122 -0.1513 -0.2393
   55MOL   H20416512   2.228   1.647   5.646 -0.5080 -0.6311  0.1332
   55MOL   H20516513   2.356   1.589   5.555  0.4849  1.7521  1.1906
   55MOL   H20616514   2.023   1.675   5.424  0.2023 -1.0974 -1.5877
   55MOL   H20716515   1.939   1.530   5.431 -1.0183 -1.3101  1.9405
   55MOL   H20816516   1.965   1.613   5.578  0.0667  0.5768  0.0531
   55MOL   H20916517   2.408   1.462   5.171 -1.5446 -0.2993 -0.7726
   55MOL   H21016518   2.334   1.302   5.209  1.4570 -0.9456 -0.4924
   55MOL   H21116519   2.491   1.350   5.272  0.5483  1.7505  0.9299
   55MOL   C21216520   2.145   1.414   5.611 -0.6434 -0.2822  0.5676
   55MOL   C21316521   2.072   1.281   5.601 -0.5222 -0.7834  0.1329
   55MOL   C21416522   1.928   1.305   5.558  0.4335  0.0066  0.1517
   55MOL   C21516523   2.136   1.180   5.504  0.0579  0.1878 -0.1907
   55MOL   O21616524   2.248   1.199   5.454  0.4445 -0.0388 -0.0798
   55MOL   O21716525   2.060   1.066   5.491 -0.0641 -0.0336 -0.2788
   55MOL   C21816526   2.106   0.956   5.417  0.6266 -1.2163  0.2715
   55MOL   H21916527   2.105   1.456   5.704  0.2504  0.5669  0.5820
   55MOL   H22016528   2.248   1.381   5.627 -0.4298 -0.7065 -1.6560
   55MOL   H22116529   1.926   1.306   5.449  1.9442 -1.7133  0.0704
   55MOL   H22216530   1.855   1.227   5.580 -3.5742  3.7309  0.5594
   55MOL   H22316531   1.877   1.393   5.597  0.5226  0.3306 -0.4570
   55MOL   H22416532   2.024   0.887   5.396  1.8838 -2.1162 -1.8294
   55MOL   H22516533   2.193   0.908   5.462  3.5559  1.6342 -2.1569
   55MOL   H22616534   2.134   0.981   5.315  1.2443  0.1052  0.7579
   55MOL   C22716535   2.064   1.208   5.743 -0.3617  0.5049  0.1869
   55MOL   C22816536   2.185   1.179   5.847 -0.1653 -0.5981 -0.1246
   55MOL   C22916537   2.226   1.317   5.910 -0.5320 -0.4276 -0.2498
   55MOL   C23016538   2.126   1.083   5.948  0.5364  0.1226  0.4395
   55MOL   O23116539   2.099   1.116   6.062 -0.2996 -0.0269  0.1406
   55MOL   O23216540   2.097   0.956   5.893  0.0369 -0.9513 -0.5402
   55MOL   C23316541   2.045   0.860   5.983  0.2019 -0.6709  0.6236
   55MOL   H23416542   2.018   1.112   5.718 -0.8972  1.0948 -1.1476
   55MOL   H23516543   1.986   1.256   5.801  0.6575 -0.3675  2.3706
   55MOL   H23616544   2.293   1.375   5.847 -0.3882  1.1790  1.3566
   55MOL   H23716545   2.131   1.361   5.940 -1.3869 -2.8094  0.6618
   55MOL   H23816546   2.272   1.295   6.007  0.9640 -1.3647 -1.1348
   55MOL   H23916547   1.944   0.895   6.008  0.9223  3.1911 -1.5908
   55MOL   H24016548   2.108   0.844   6.070  1.5090  0.5845 -0.0859
   55MOL   H24116549   2.043   0.762   5.934  4.3511  0.1209 -1.3284
   55MOL   C24216550   2.307   1.113   5.766 -0.0813 -0.9023 -0.3172
   55MOL   C24316551   2.438   1.061   5.837  0.0431 -0.0486  0.3573
   55MOL   C24416552   2.487   1.144   5.955 -0.0131 -0.1490  0.0610
   55MOL   C24516553   2.410   0.917   5.887 -0.4293  0.1995  0.0972
   55MOL   O24616554   2.388   0.896   6.006 -0.0201  0.3608 -0.2823
   55MOL   O24716555   2.406   0.820   5.788 -0.1868 -0.5788 -0.3295
   55MOL   C24816556   2.364   0.690   5.822 -1.1312 -0.1524  0.2760
   55MOL   H24916557   2.337   1.188   5.693  1.4002  0.0846  1.2799
   55MOL   H25016558   2.270   1.028   5.709  1.3704 -0.6653 -1.6262
   55MOL   H25116559   2.586   1.116   5.990  0.3262 -1.1843 -1.6731
   55MOL   H25216560   2.495   1.249   5.930  0.0436 -0.1413  0.1101
   55MOL   H25316561   2.409   1.132   6.031 -1.1363 -1.9084 -1.3398
   55MOL   H25416562   2.396   0.626   5.740 -1.7089 -1.2646  0.9105
   55MOL   H25516563   2.260   0.669   5.844 -0.9256 -0.4228  1.0041
   55MOL   H25616564   2.415   0.657   5.912 -0.7434  0.0810  0.1453
   55MOL   C25716565   2.558   1.041   5.726 -0.3788 -0.6784 -0.3831
   55MOL   C25816566   2.649   1.160   5.670  0.4573  0.1641 -0.4110
   55MOL   C25916567   2.553   1.278   5.626 -0.4223  0.0653 -0.3771
   55MOL   C26016568   2.754   1.212   5.777  0.6423 -0.1947  0.2214
   55MOL   O26116569   2.775   1.151   5.878  0.1800 -0.2276  0.8706
   55MOL   O26216570   2.816   1.321   5.741 -0.4957  0.3351  0.3460
   55MOL   C26316571   2.926   1.361   5.817 -0.5048 -1.1138 -0.2186
   55MOL   H26416572   2.510   1.006   5.635 -1.8034  1.6097 -0.5494
   55MOL   H26516573   2.626   0.965   5.765  1.3240  0.6833 -0.6383
   55MOL   H26616574   2.503   1.314   5.715 -0.8853 -2.2342  0.3129
   55MOL   H26716575   2.616   1.354   5.578 -1.3902  1.3356  0.3486
   55MOL   H26816576   2.474   1.249   5.556  0.4631 -3.2902 -0.0749
   55MOL   H26916577   2.909   1.355   5.925  0.1969 -2.1434 -0.1577
   55MOL   H27016578   2.953   1.464   5.792  1.1076 -1.5990 -0.4994
   55MOL   H27116579   3.001   1.287   5.791 -0.1898 -1.1180  0.6648
   55MOL   C27216580   2.735   1.116   5.547  1.4102  0.3922 -0.0910
   55MOL   C27316581   2.823   0.987   5.538 -0.7296  0.4129  0.0574
   55MOL   C27416582   2.949   0.998   5.630  0.1859 -0.0133  0.2674
   55MOL   C27516583   2.745   0.855   5.558  0.3226  0.4982  0.2793
   55MOL   O27616584   2.757   0.785   5.657  0.2559 -0.3671 -0.0419
   55MOL   O27716585   2.649   0.833   5.466 -0.0835  0.1360 -0.0470
   55MOL   C27816586   2.546   0.734   5.489  0.4574 -0.8626 -0.2650
   55MOL   H27916587   2.795   1.201   5.514 -2.3726  3.0184 -0.5039
   55MOL   H28016588   2.661   1.108   5.467 -0.2519  1.1179  1.3474
   55MOL   H28116589   2.932   1.001   5.738  1.4226  1.5178  0.4310
   55MOL   H28216590   3.011   0.910   5.612 -1.5417 -0.7773 -2.1757
   55MOL   H28316591   3.007   1.083   5.595  2.3335 -1.6261 -0.2184
   55MOL   H28416592   2.512   0.724   5.592  1.9122  2.5978  0.6106
   55MOL   H28516593   2.584   0.634   5.471  1.8349 -0.9992  3.1465
   55MOL   H28616594   2.460   0.751   5.424  0.4817  1.6573  0.2973
   55MOL   C28716595   2.879   0.978   5.392  0.2101 -1.0981  0.2946
   55MOL   C28816596   2.959   1.096   5.320 -0.1791 -0.0746  0.0633
   55MOL   C28916597   3.050   1.041   5.213 -0.8688  0.4635 -0.0197
   55MOL   C29016598   2.869   1.201   5.263 -0.3647 -0.0049  0.5445
   55MOL   O29116599   2.752   1.177   5.239  0.1741 -0.1609 -0.9379
   55MOL   O29216600   2.929   1.315   5.247  0.2595 -0.0826  0.1050
   55MOL   C29316601   2.861   1.435   5.225 -0.1492  0.3888 -0.2103
   55MOL   H29416602   2.796   0.947   5.328 -0.6510  0.7838  0.4701
   55MOL   H29516603   2.948   0.894   5.383  1.0298 -0.1457 -3.0785
   55MOL   H29616604   3.110   1.119   5.168  0.3570 -0.1913  0.4589
   55MOL   H29716605   3.119   0.969   5.256 -0.5630  0.3415 -0.7001
   55MOL   H29816606   2.997   1.000   5.127  0.3326 -1.6196  0.2090
   55MOL   H29916607   2.851   1.469   5.122  4.8045 -1.4781 -1.4401
   55MOL   H30016608   2.917   1.514   5.276 -2.7751  3.3619 -1.7246
   55MOL   H30116609   2.759   1.434   5.264 -0.7221  0.9225 -1.6243
   55MOL   H30216610   3.020   1.140   5.399 -2.3876  1.4081  0.9727
   56MOL     C116611   2.789   0.286   5.960  0.0664  0.0789  0.6361
   56MOL     C216612   2.886   0.255   5.846  0.0332  0.6946  0.9856
   56MOL     C316613   2.974   0.383   5.826 -0.8436 -0.0850  0.2613
   56MOL     C416614   2.991   0.141   5.878  0.4133  0.0087 -0.6856
   56MOL     O516615   2.979   0.078   5.991 -0.3095  0.6047  0.4996
   56MOL     O616616   3.078   0.110   5.784  0.2512 -0.1190 -0.7012
   56MOL     C716617   3.174   0.014   5.807 -0.3197 -0.6929  0.3393
   56MOL     H816618   2.850   0.307   6.047 -1.7430  0.5553  1.8311
   56MOL     H916619   2.734   0.374   5.925 -1.0556 -0.8180  0.0810
   56MOL    H1016620   3.049   0.386   5.905 -2.3476 -0.0343  1.7131
   56MOL    H1116621   3.027   0.387   5.731  0.7783  2.1580  1.1904
   56MOL    H1216622   2.919   0.477   5.833  1.2538  1.2423 -0.3864
   56MOL    H1316623   3.128   7.794   5.821  2.0229 -1.8576  0.1236
   56MOL    H1416624   3.229   0.037   5.899 -1.6052  0.1174  0.9153
   56MOL    H1516625   3.244   0.002   5.725  1.6780  1.9037  1.5893
   56MOL    H1616626   2.723   0.199   5.970 -1.0439  0.9286  0.8331
   56MOL    C1716627   2.818   0.225   5.708 -0.0415 -0.6377 -0.3839
   56MOL    C1816628   2.693   0.129   5.690 -0.2275 -0.3462  1.0453
   56MOL    C1916629   2.721   7.871   5.761 -0.3883 -0.0540 -0.0267
   56MOL    C2016630   2.554   0.181   5.735  0.2773  0.1156  0.7374
   56MOL    O2116631   2.527   0.298   5.735  0.1120  0.3729  0.0801
   56MOL    O2216632   2.472   0.082   5.770  0.0320 -0.4586  0.4790
   56MOL    C2316633   2.336   0.099   5.787  0.5819 -0.1794  0.7487
   56MOL    H2416634   2.898   0.203   5.637  0.7042 -0.4788  0.3979
   56MOL    H2516635   2.779   0.317   5.667 -1.3256  0.3076  2.7936
   56MOL    H2616636   2.819   7.841   5.724  0.2777  0.4489  1.2883
   56MOL    H2716637   2.725   0.000   5.869  0.4148  1.7419 -0.1452
   56MOL    H2816638   2.655   7.794   5.722  1.1542 -0.9704 -0.8921
   56MOL    H2916639   2.312   0.161   5.873  1.1824 -0.2753  0.9879
   56MOL    H3016640   2.282   0.006   5.803  1.7482 -0.9421  0.3484
   56MOL    H3116641   2.280   0.137   5.702 -0.7695 -1.3885  1.0745
   56MOL    C3216642   2.671   0.087   5.534 -0.2793 -0.0630  0.6942
   56MOL    C3316643   2.621   0.191   5.415  0.0710  0.6787 -0.0222
   56MOL    C3416644   2.692   0.330   5.417  0.5088  0.1759  0.1727
   56MOL    C3516645   2.662   0.118   5.281 -0.2962  0.0827 -0.1330
   56MOL    O3616646   2.710   0.186   5.187  0.3791 -0.0443  0.4542
   56MOL    O3716647   2.630   7.866   5.274  0.5765  0.4961  0.0901
   56MOL    C3816648   2.665   7.792   5.159 -0.5199  0.5605 -0.0846
   56MOL    H3916649   2.606   0.000   5.520 -0.0012 -0.5812  2.4321
   56MOL    H4016650   2.765   0.048   5.496 -1.8167 -2.0592 -1.2289
   56MOL    H4116651   2.682   0.398   5.333  0.1243  0.1664  0.2066
   56MOL    H4216652   2.651   0.372   5.509 -2.6831 -2.5979  0.1713
   56MOL    H4316653   2.800   0.320   5.430  0.2772 -1.5596  1.0761
   56MOL    H4416654   2.774   7.798   5.150 -0.3764 -0.6190  0.6465
   56MOL    H4516655   2.632   7.833   5.064 -1.8479  0.2995  0.2496
   56MOL    H4616656   2.642   7.685   5.165 -1.4990  0.8635  2.0532
   56MOL    C4716657   2.463   0.211   5.430 -0.0660  0.0712  0.0791
   56MOL    C4816658   2.367   0.261   5.310  0.1456 -0.3963 -0.3052
   56MOL    C4916659   2.430   0.385   5.234  0.5038  0.6476 -0.5259
   56MOL    C5016660   2.354   0.152   5.203  0.6264  0.3618  0.2307
   56MOL    O5116661   2.382   0.177   5.089  0.1024 -0.0747  0.0097
   56MOL    O5216662   2.321   0.038   5.254  0.3470  0.0759  0.1078
   56MOL    C5316663   2.329   7.796   5.180 -0.4507 -0.1583  0.0211
   56MOL    H5416664   2.438   0.277   5.514 -0.4928  1.6533 -1.2769
   56MOL    H5516665   2.419   0.115   5.458 -1.4481  0.4639 -0.6929
   56MOL    H5616666   2.520   0.374   5.173 -0.6846 -2.2468 -1.8381
   56MOL    H5716667   2.352   0.419   5.166 -2.0973 -3.0384  0.4960
   56MOL    H5816668   2.446   0.470   5.300 -0.7234  1.5176 -1.3251
   56MOL    H5916669   2.386   7.724   5.239 -0.6097 -0.8703 -0.6900
   56MOL    H6016670   2.374   7.808   5.081 -0.9062 -0.4488 -0.2219
   56MOL    H6116671   2.229   7.760   5.157  0.1082 -0.8639 -1.3787
   56MOL    C6216672   2.224   0.294   5.370  0.1555  0.3700  0.1114
   56MOL    C6316673   2.178   0.437   5.427 -0.4450  0.5317 -0.3785
   56MOL    C6416674   2.256   0.474   5.558  0.1419  0.6316  0.4290
   56MOL    C6516675   2.183   0.546   5.319 -0.0565 -0.3533  0.5042
   56MOL    O6616676   2.239   0.651   5.350  0.1016 -0.4440 -0.3067
   56MOL    O6716677   2.128   0.522   5.204  0.5356 -0.4236  0.2244
   56MOL    C6816678   2.132   0.623   5.101 -0.5367  0.7087 -0.3060
   56MOL    H6916679   2.201   0.215   5.441  0.6043 -0.4126 -0.6032
   56MOL    H7016680   2.150   0.269   5.294  0.1476 -0.6956  0.4737
   56MOL    H7116681   2.226   0.412   5.642  2.1109  1.4236  1.7670
   56MOL    H7216682   2.365   0.465   5.555  0.0600 -1.0319  1.9584
   56MOL    H7316683   2.245   0.577   5.592  2.3763  1.5140 -1.3759
   56MOL    H7416684   2.086   0.585   5.010  1.8106 -1.7206 -0.5302
   56MOL    H7516685   2.237   0.645   5.079 -0.3160 -1.0147 -1.0346
   56MOL    H7616686   2.082   0.715   5.131  0.7719  1.9426 -1.7720
   56MOL    C7716687   2.029   0.403   5.461 -0.4095  0.7729 -0.5557
   56MOL    C7816688   1.927   0.496   5.533 -0.0828 -0.0355  0.4872
   56MOL    C7916689   1.987   0.590   5.636 -0.0252  0.1135 -0.1918
   56MOL    C8016690   1.859   0.590   5.429  0.4514  0.3063  0.5093
   56MOL    O8116691   1.832   0.546   5.322  0.3085  0.1340 -0.3742
   56MOL    O8216692   1.833   0.719   5.470  0.5845 -0.1313  0.4272
   56MOL    C8316693   1.771   0.804   5.372 -0.1251 -0.4576  0.4154
   56MOL    H8416694   2.031   0.306   5.511 -2.6248 -0.1152 -2.0937
   56MOL    H8516695   1.977   0.368   5.372  2.9335 -1.3754 -1.7503
   56MOL    H8616696   1.907   0.632   5.697 -0.7154 -2.2360  0.6060
   56MOL    H8716697   2.055   0.550   5.712  0.3041  1.8874  0.4803
   56MOL    H8816698   2.052   0.673   5.608  2.2392 -1.2582  0.7648
   56MOL    H8916699   1.731   0.896   5.416  2.3719  0.0297  1.8055
   56MOL    H9016700   1.692   0.754   5.318 -2.6213  3.8310 -0.1556
   56MOL    H9116701   1.840   0.839   5.295 -0.2798 -1.3915 -0.1565
   56MOL    C9216702   1.812   0.411   5.593  0.0477  0.4151 -1.0097
   56MOL    C9316703   1.829   0.279   5.687  0.1780  0.3018  0.2221
   56MOL    C9416704   1.811   0.146   5.610  0.4413  0.5096  0.1969
   56MOL    C9516705   1.965   0.271   5.761 -0.3119 -0.4455 -0.0928
   56MOL    O9616706   2.055   0.197   5.732 -0.4734  0.0759  0.0282
   56MOL    O9716707   1.983   0.365   5.860 -0.2066 -0.8018 -0.2483
   56MOL    C9816708   2.111   0.380   5.923  0.5761  0.3912 -0.1607
   56MOL    H9916709   1.770   0.363   5.505 -2.2235 -1.3379  0.9437
   56MOL   H10016710   1.744   0.483   5.638  0.7190 -0.0489  0.8046
   56MOL   H10116711   1.717   0.134   5.558 -0.1054 -0.4059  1.3715
   56MOL   H10216712   1.883   0.124   5.530  2.3346 -1.4541  2.3415
   56MOL   H10316713   1.808   0.062   5.679 -2.1589 -0.1247 -0.6392
   56MOL   H10416714   2.150   0.286   5.964  1.1472  0.7305  0.0808
   56MOL   H10516715   2.105   0.460   5.997  2.9404 -0.0621  0.5874
   56MOL   H10616716   2.187   0.410   5.851  3.6798  0.8640  3.1169
   56MOL   C10716717   1.709   0.273   5.804 -0.1663  0.1737  0.0982
   56MOL   C10816718   1.555   0.257   5.771  0.5492 -0.8136 -0.0474
   56MOL   C10916719   1.519   0.342   5.650 -0.4000  0.0140  0.1397
   56MOL   C11016720   1.504   0.115   5.746  0.8803 -0.0047  0.8856
   56MOL   O11116721   1.408   0.086   5.669  0.2275  0.0154  0.0586
   56MOL   O11216722   1.562   0.025   5.821  0.2235  0.4850  0.1662
   56MOL   C11316723   1.516   7.769   5.815  0.1713 -0.0619  0.3999
   56MOL   H11416724   1.725   0.364   5.862  0.3006  0.6569 -0.7769
   56MOL   H11516725   1.745   0.196   5.872  0.5725  1.4337  1.1553
   56MOL   H11616726   1.569   0.312   5.558 -1.8975 -1.8026 -0.1228
   56MOL   H11716727   1.412   0.336   5.630 -0.5130  1.6761  0.1761
   56MOL   H11816728   1.551   0.445   5.660  1.1372 -0.4135 -0.2269
   56MOL   H11916729   1.524   7.727   5.715 -0.1600 -0.3251  0.4810
   56MOL   H12016730   1.411   7.769   5.844 -0.4905 -0.7183 -1.8666
   56MOL   H12116731   1.580   7.708   5.879  0.3233 -1.7258 -1.3043
   56MOL   C12216732   1.464   0.315   5.896  0.0620 -0.4905 -0.1199
   56MOL   C12316733   1.443   0.258   6.042  1.0955 -0.3009 -0.3181
   56MOL   C12416734   1.335   0.144   6.036  0.3506 -0.2769  0.3235
   56MOL   C12516735   1.573   0.199   6.100 -1.0030  0.6019 -0.4236
   56MOL   O12616736   1.592   0.078   6.103  0.5030  0.1320 -0.8319
   56MOL   O12716737   1.660   0.287   6.138  0.2723 -0.1218  0.0026
   56MOL   C12816738   1.788   0.252   6.185  0.9680  0.4766 -0.2108
   56MOL   H12916739   1.365   0.339   5.858  0.2642  0.4590 -0.0466
   56MOL   H13016740   1.512   0.413   5.901 -1.5446  0.2350  1.2640
   56MOL   H13116741   1.374   0.060   5.978  0.0356  0.3818 -0.8667
   56MOL   H13216742   1.325   0.102   6.136 -2.1220  0.2604  0.3513
   56MOL   H13316743   1.238   0.179   5.998 -0.0440 -1.2209  0.4389
   56MOL   H13416744   1.861   0.251   6.104  1.4177  1.2827  0.1779
   56MOL   H13516745   1.777   0.150   6.221  3.1325  0.7958  1.4601
   56MOL   H13616746   1.809   0.311   6.274  1.4194  2.2973 -1.4906
   56MOL   C13716747   1.393   0.383   6.126  0.0269  0.5795 -0.5757
   56MOL   C13816748   1.339   0.383   6.274  0.3079  0.1350 -0.5996
   56MOL   C13916749   1.439   0.295   6.366 -0.0860 -1.0576  0.0512
   56MOL   C14016750   1.341   0.530   6.324  0.7046 -0.1963  0.6175
   56MOL   O14116751   1.400   0.557   6.427 -0.7367 -0.2054 -0.8975
   56MOL   O14216752   1.280   0.613   6.240 -0.0130 -0.1564  0.6182
   56MOL   C14316753   1.250   0.745   6.271 -0.0996  0.0407  0.7763
   56MOL   H14416754   1.311   0.434   6.076 -0.3710  0.3968 -0.1057
   56MOL   H14516755   1.475   0.455   6.128  0.9395 -0.4775  0.6908
   56MOL   H14616756   1.429   0.308   6.473 -0.1417 -0.5125 -0.0149
   56MOL   H14716757   1.440   0.190   6.338 -2.8054 -0.9404 -0.6285
   56MOL   H14816758   1.538   0.332   6.341 -0.0574 -0.0481  1.6305
   56MOL   H14916759   1.186   0.789   6.194  1.6385 -0.2603 -0.8984
   56MOL   H15016760   1.338   0.810   6.271  1.4643 -1.9673 -1.1988
   56MOL   H15116761   1.194   0.749   6.364 -2.2810  0.9701 -0.5298
   56MOL   C15216762   1.195   0.320   6.264 -0.4415  0.5204  0.4200
   56MOL   C15316763   1.082   0.346   6.364  0.2318 -0.0336 -1.0010
   56MOL   C15416764   0.985   0.227   6.354 -0.1650 -0.0346  0.0997
   56MOL   C15516765   1.139   0.344   6.520 -0.1107  0.5837  0.5322
   56MOL   O15616766   1.190   0.246   6.569  0.7510 -1.1614  0.4969
   56MOL   O15716767   1.140   0.462   6.576 -0.1038  0.5861  0.1323
   56MOL   C15816768   1.199   0.494   6.703 -0.0016  0.0107 -0.3076
   56MOL   H15916769   1.209   0.212   6.259  2.2170  0.8558  0.0490
   56MOL   H16016770   1.152   0.350   6.168 -0.7326  0.4846  0.5382
   56MOL   H16116771   1.039   0.136   6.376 -1.2346 -0.8464 -0.5866
   56MOL   H16216772   0.893   0.230   6.412 -0.2383 -0.0980 -0.0131
   56MOL   H16316773   0.957   0.206   6.250 -0.0888 -0.8985  0.2556
   56MOL   H16416774   1.150   0.431   6.777  1.0738  0.5707  0.8868
   56MOL   H16516775   1.199   0.600   6.728 -2.3439  0.3390 -1.6120
   56MOL   H16616776   1.305   0.467   6.693 -0.2020 -1.0039  0.2388
   56MOL   C16716777   1.002   0.481   6.319 -0.0874  0.4966  0.4790
   56MOL   C16816778   0.859   0.537   6.357  0.5754  0.1035 -0.4612
   56MOL   C16916779   0.846   0.504   6.506 -0.2234 -0.0305 -0.5503
   56MOL   C17016780   0.867   0.698   6.349  0.0090 -0.0489 -1.0580
   56MOL   O17116781   0.958   0.756   6.301 -0.3256  0.2534 -0.1103
   56MOL   O17216782   0.766   0.755   6.409 -0.0661 -0.0264 -0.4345
   56MOL   C17316783   0.759   0.895   6.394 -0.7017 -0.0512  0.0442
   56MOL   H17416784   1.008   0.493   6.211  0.5913  2.7795  0.7539
   56MOL   H17516785   1.070   0.558   6.356 -0.3174  0.6992  0.4753
   56MOL   H17616786   0.872   0.403   6.536 -0.1862  0.4385  1.0461
   56MOL   H17716787   0.924   0.562   6.554  0.4145 -0.2379 -1.3227
   56MOL   H17816788   0.751   0.527   6.554 -1.0272  0.6132 -2.3707
   56MOL   H17916789   0.844   0.954   6.427 -0.1830 -0.2206 -0.9779
   56MOL   H18016790   0.666   0.929   6.440  0.4746  4.2300 -0.5972
   56MOL   H18116791   0.732   0.912   6.290 -0.3376  1.7529  0.2262
   56MOL   C18216792   0.732   0.475   6.283 -0.7569  0.3264  0.0432
   56MOL   C18316793   0.702   0.501   6.129 -0.1258  0.0699  0.2643
   56MOL   C18416794   0.674   0.652   6.103 -0.0669  0.4315  0.3131
   56MOL   C18516795   0.826   0.459   6.035 -0.0018 -0.4103 -0.9870
   56MOL   O18616796   0.868   0.533   5.936  0.6678  0.6057 -0.2245
   56MOL   O18716797   0.876   0.339   6.066 -0.1295 -0.1144  0.1245
   56MOL   C18816798   0.958   0.274   5.976  0.1311 -0.2542  0.0269
   56MOL   H18916799   0.644   0.506   6.338 -1.0323  0.4899 -0.4905
   56MOL   H19016800   0.734   0.366   6.288  1.5039  0.3272 -0.0819
   56MOL   H19116801   0.759   0.720   6.119 -0.2729  0.5706  0.8302
   56MOL   H19216802   0.643   0.661   5.999  0.0032  1.5073  0.3711
   56MOL   H19316803   0.590   0.689   6.162  1.2524  1.2764  1.7185
   56MOL   H19416804   0.899   0.259   5.886  0.1630 -0.2488  0.0050
   56MOL   H19516805   0.984   0.179   6.023 -2.7290 -0.6682  0.8418
   56MOL   H19616806   1.048   0.328   5.946 -0.7883  0.7565 -0.9802
   56MOL   C19716807   0.565   0.426   6.101  0.2605 -0.5163 -0.0539
   56MOL   C19816808   0.541   0.311   5.984 -0.1944  0.1634 -0.1648
   56MOL   C19916809   0.590   0.367   5.842  0.0761  0.9293 -0.4682
   56MOL   C20016810   0.610   0.180   6.028 -0.5041 -0.0313 -0.2207
   56MOL   O20116811   0.694   0.123   5.953  0.3240  0.2709  0.0367
   56MOL   O20216812   0.593   0.145   6.158 -0.2608 -0.7154 -0.2692
   56MOL   C20316813   0.672   0.048   6.220  0.0064  0.0341  0.0543
   56MOL   H20416814   0.493   0.504   6.074 -0.4371 -1.4383 -0.8961
   56MOL   H20516815   0.521   0.403   6.198 -0.0066  0.5477  0.0801
   56MOL   H20616816   0.699   0.362   5.836  0.0892 -0.5259  0.6977
   56MOL   H20716817   0.562   0.300   5.761 -1.0609 -0.7047  1.2179
   56MOL   H20816818   0.555   0.469   5.828  0.6897  1.1730 -0.2365
   56MOL   H20916819   0.610   7.863   6.283  0.2170  1.9830  2.2634
   56MOL   H21016820   0.759   0.081   6.277 -0.7225  0.1241  1.1240
   56MOL   H21116821   0.716   7.858   6.147  0.7558 -0.7554  1.2203
   56MOL   C21216822   0.386   0.299   5.979 -0.0026 -0.3366  0.1351
   56MOL   C21316823   0.310   0.182   5.903  0.5392 -0.1915  0.3244
   56MOL   C21416824   0.378   0.148   5.765  0.4456  0.2947  0.0288
   56MOL   C21516825   0.307   0.049   5.982  0.9421 -0.4024 -0.4474
   56MOL   O21616826   0.293   7.815   5.932 -0.0471 -0.3458 -0.1906
   56MOL   O21716827   0.315   0.069   6.115 -0.1023 -0.2451  0.7851
   56MOL   C21816828   0.295   7.841   6.207 -0.1932 -0.3803  0.2370
   56MOL   H21916829   0.338   0.388   5.938  1.6731 -0.2377 -1.6898
   56MOL   H22016830   0.356   0.292   6.084  0.3376  2.1951  0.4343
   56MOL   H22116831   0.382   0.237   5.703 -1.1117  0.4143  0.1017
   56MOL   H22216832   0.472   0.094   5.785  0.2995  0.1621  0.3668
   56MOL   H22316833   0.321   0.071   5.713  0.7283  0.7515 -0.9698
   56MOL   H22416834   0.364   7.757   6.198 -0.9296 -1.1618  1.8452
   56MOL   H22516835   0.194   7.807   6.185 -0.7218  1.0880  0.3248
   56MOL   H22616836   0.283   0.010   6.304 -1.7772 -1.2538  0.4812
   56MOL   C22716837   0.167   0.230   5.859 -0.0978 -0.1387  0.2280
   56MOL   C22816838   0.056   0.279   5.962  0.4736  0.1326 -0.3021
   56MOL   C22916839   0.049   0.211   6.100 -0.2930  0.0965 -0.3240
   56MOL   C23016840   0.076   0.430   5.981  0.0006 -0.1419  0.2686
   56MOL   O23116841   0.113   0.478   6.089 -0.2092  0.5638  0.2933
   56MOL   O23216842   0.049   0.505   5.874 -0.0993 -0.1134 -0.2630
   56MOL   C23316843   0.074   0.637   5.876 -0.2553  0.0433  0.4171
   56MOL   H23416844   0.140   0.140   5.804 -1.7080 -0.1476  1.0310
   56MOL   H23516845   0.174   0.302   5.778  0.0901 -0.9560 -0.4951
   56MOL   H23616846   0.039   0.102   6.095  2.8460 -0.4384  2.6304
   56MOL   H23716847   0.140   0.229   6.157  0.2608 -0.7348 -0.9367
   56MOL   H23816848   7.844   0.249   6.160  1.4286  2.7478  0.4499
   56MOL   H23916849   0.183   0.643   5.884 -0.2406  1.4715 -0.7064
   56MOL   H24016850   0.018   0.691   5.952  1.6441  2.0012  0.4717
   56MOL   H24116851   0.040   0.675   5.779 -0.2664 -0.7002  0.1252
   56MOL   C24216852   7.786   0.260   5.894 -0.1041  0.5743 -0.0106
   56MOL   C24316853   7.707   0.119   5.881  0.1499 -0.3511 -0.4517
   56MOL   C24416854   7.798   0.004   5.833 -0.5026 -0.5213 -0.2501
   56MOL   C24516855   7.642   0.085   6.021 -0.4607 -0.6146 -0.2652
   56MOL   O24616856   7.664   7.860   6.085 -0.3623 -0.4182  0.1716
   56MOL   O24716857   7.563   0.191   6.066 -0.2771 -0.3419  0.3121
   56MOL   C24816858   7.514   0.180   6.199  0.0041 -0.4318  0.3071
   56MOL   H24916859   7.804   0.290   5.790 -1.0169  0.8036 -0.1129
   56MOL   H25016860   7.726   0.348   5.919 -0.1014  0.0825  1.7374
   56MOL   H25116861   7.830   0.021   5.731 -0.4782 -1.3931 -0.3855
   56MOL   H25216862   7.876   7.869   5.908  0.1480 -1.0020 -1.0075
   56MOL   H25316863   7.749   7.785   5.834 -0.0229 -0.7625 -0.2798
   56MOL   H25416864   7.435   0.254   6.209 -1.1803 -1.8746  1.9763
   56MOL   H25516865   7.595   0.215   6.263  1.1587  0.4932 -1.6055
   56MOL   H25616866   7.472   0.085   6.233 -0.2864 -1.0011 -1.5574
   56MOL   C25716867   7.599   0.153   5.770 -0.6111 -0.0470  0.0913
   56MOL   C25816868   7.476   0.067   5.721 -0.4561 -0.0046 -0.0145
   56MOL   C25916869   7.527   7.801   5.676 -0.2859 -0.6764  0.4844
   56MOL   C26016870   7.372   0.054   5.831  0.5159 -1.0140  0.4597
   56MOL   O26116871   7.338   7.820   5.880 -0.2843  0.3957  0.2898
   56MOL   O26216872   7.320   0.168   5.863 -0.4582  0.2204 -0.2405
   56MOL   C26316873   7.214   0.169   5.955  0.6207  0.3344  0.2255
   56MOL   H26416874   7.662   0.174   5.684 -0.3601 -2.9709 -0.4710
   56MOL   H26516875   7.556   0.247   5.806  0.1996  0.2587  0.2722
   56MOL   H26616876   7.450   7.739   5.631  0.8546 -1.0731 -0.9308
   56MOL   H26716877   7.607   7.815   5.604 -1.3383 -1.0667 -0.7777
   56MOL   H26816878   7.550   7.741   5.764  0.7653 -0.0108  0.6668
   56MOL   H26916879   7.259   0.133   6.047  0.3275 -0.8873 -0.1057
   56MOL   H27016880   7.133   0.108   5.917 -0.5467  1.4295  0.9264
   56MOL   H27116881   7.164   0.266   5.960  2.0872  1.1141  0.3763
   56MOL   C27216882   7.415   0.145   5.592 -0.1536  0.3093  0.3957
   56MOL   C27316883   7.307   0.083   5.495 -0.4517 -0.0911 -0.0349
   56MOL   C27416884   7.257   0.199   5.401 -0.6008 -0.7092 -0.3085
   56MOL   C27516885   7.359   7.846   5.401 -0.2524  0.1082  0.6196
   56MOL   O27616886   7.319   7.732   5.411 -0.2138 -0.1144  0.3177
   56MOL   O27716887   7.440   0.018   5.310  0.1138  0.1741  0.4119
   56MOL   C27816888   7.503   7.803   5.224 -1.1560  0.0955  0.3371
   56MOL   H27916889   7.502   0.174   5.533 -0.4685  1.1465  0.3401
   56MOL   H28016890   7.374   0.241   5.622  0.3797  0.9080 -0.7793
   56MOL   H28116891   7.337   0.242   5.341 -0.4613  0.8581  0.9859
   56MOL   H28216892   7.192   0.161   5.321  0.5499 -2.2513 -0.5445
   56MOL   H28316893   7.199   0.280   5.443 -1.4662 -1.4712 -0.0242
   56MOL   H28416894   7.572   7.860   5.161 -1.4983 -1.4841 -1.4934
   56MOL   H28516895   7.444   7.754   5.148 -0.4688 -0.5078  0.1872
   56MOL   H28616896   7.558   7.731   5.285 -0.2395  1.0446  0.6673
   56MOL   C28716897   7.194   0.020   5.580  0.8797  0.2641 -0.0896
   56MOL   C28816898   7.044   0.013   5.525  0.2888  0.0196  0.1013
   56MOL   C28916899   6.979   7.761   5.570 -0.1287  0.4211  0.2355
   56MOL   C29016900   6.959   0.139   5.566 -0.8895 -0.3874  0.1780
   56MOL   O29116901   6.905   0.208   5.485  0.1419  0.3832 -0.1117
   56MOL   O29216902   6.964   0.163   5.703 -0.1028  0.3022  0.4401
   56MOL   C29316903   6.880   0.260   5.756  0.5738  0.3650 -0.6809
   56MOL   H29416904   7.182   0.088   5.664 -3.7676 -1.5544  0.8290
   56MOL   H29516905   7.217   7.799   5.622  3.8483 -0.1151 -2.3969
   56MOL   H29616906   6.871   7.756   5.553  0.0224  0.5129 -0.7600
   56MOL   H29716907   7.021   7.671   5.525  0.5443  0.9516 -0.2009
   56MOL   H29816908   6.989   7.754   5.679  0.8659  1.7290  0.2375
   56MOL   H29916909   6.920   0.361   5.753  0.6963  0.3002 -1.2824
   56MOL   H30016910   6.865   0.243   5.863 -0.8792 -1.9400 -1.2034
   56MOL   H30116911   6.785   0.264   5.703  1.0970  2.0963 -1.4991
   56MOL   H30216912   7.037   0.013   5.416 -1.3463 -2.8062  0.1434
   57MOL     C116913   0.606   0.679   1.918  0.0613  0.3604 -0.3031
   57MOL     C216914   0.598   0.602   2.049 -0.0106 -0.4100  0.2647
   57MOL     C316915   0.488   0.497   2.015 -0.0577 -0.1675 -1.0753
   57MOL     C416916   0.724   0.528   2.090 -0.2880 -0.3502  0.0957
   57MOL     O516917   0.828   0.552   2.027 -0.8538 -0.5427 -0.4702
   57MOL     O616918   0.714   0.448   2.199  0.5670 -0.0375  0.2010
   57MOL     C716919   0.829   0.372   2.240  0.0712 -0.0171  0.2913
   57MOL     H816920   0.516   0.721   1.873  0.2130 -0.9708 -1.8921
   57MOL     H916921   0.662   0.772   1.931 -1.2006  1.1100 -0.1931
   57MOL    H1016922   0.477   0.420   2.091  0.0164  0.3535 -0.5347
   57MOL    H1116923   0.385   0.530   1.999 -1.4812 -2.7588  2.2211
   57MOL    H1216924   0.522   0.445   1.926  0.8368 -0.8988 -0.3052
   57MOL    H1316925   0.901   0.429   2.298  0.8258  0.3463 -0.9747
   57MOL    H1416926   0.891   0.345   2.154  0.7801 -0.3074  0.8934
   57MOL    H1516927   0.805   0.280   2.294  1.1908  0.0313  0.8827
   57MOL    H1616928   0.672   0.633   1.845 -1.5915  0.7041 -2.0358
   57MOL    C1716929   0.542   0.697   2.165 -0.3203 -0.6272 -0.7613
   57MOL    C1816930   0.614   0.835   2.209  0.4478 -0.6187 -0.1845
   57MOL    C1916931   0.769   0.815   2.210 -0.1992 -0.1825 -0.3037
   57MOL    C2016932   0.590   0.960   2.120  0.1713  0.1229 -0.0758
   57MOL    O2116933   0.510   0.954   2.025 -0.0378  0.1267 -0.5043
   57MOL    O2216934   0.668   1.072   2.158  0.1097  0.3877 -0.2017
   57MOL    C2316935   0.661   1.189   2.086 -0.2280 -0.3534 -0.0985
   57MOL    H2416936   0.548   0.625   2.247 -0.0936 -0.0786 -0.2977
   57MOL    H2516937   0.435   0.704   2.146 -0.5252  1.1383  0.8640
   57MOL    H2616938   0.821   0.901   2.251 -0.8500  0.9636 -1.8128
   57MOL    H2716939   0.788   0.737   2.284 -2.6200 -1.4942 -1.0006
   57MOL    H2816940   0.823   0.796   2.117  2.0554  4.3318 -0.0322
   57MOL    H2916941   0.556   1.219   2.086  0.2009  1.1752  0.2650
   57MOL    H3016942   0.697   1.172   1.984 -1.2036 -0.1057 -0.4932
   57MOL    H3116943   0.718   1.260   2.145 -1.6218 -1.1187  2.2328
   57MOL    C3216944   0.575   0.865   2.358  0.6303 -0.1882  0.0273
   57MOL    C3316945   0.428   0.870   2.424  0.2375 -0.2759  0.4804
   57MOL    C3416946   0.344   0.959   2.333 -0.0000  0.1454 -0.0901
   57MOL    C3516947   0.364   0.727   2.430  0.2713 -0.6868  0.3969
   57MOL    O3616948   0.283   0.689   2.348 -0.1855 -0.3017 -0.0175
   57MOL    O3716949   0.417   0.653   2.524  0.4936  0.1977 -0.7996
   57MOL    C3816950   0.404   0.508   2.521  0.3128 -0.3128  0.4114
   57MOL    H3916951   0.625   0.959   2.384 -0.0628  0.0175  0.6050
   57MOL    H4016952   0.628   0.792   2.419  0.1602 -0.9345 -0.4499
   57MOL    H4116953   0.342   0.932   2.227 -0.1045 -0.6306  0.1030
   57MOL    H4216954   0.240   0.966   2.366  0.1451  0.2329  0.3513
   57MOL    H4316955   0.391   1.057   2.327  1.2144 -0.3648  0.9260
   57MOL    H4416956   0.480   0.456   2.579  1.1139  1.5207  1.0559
   57MOL    H4516957   0.429   0.466   2.424  1.7870 -1.5122  1.2821
   57MOL    H4616958   0.303   0.478   2.551  0.8334 -0.8296  1.6788
   57MOL    C4716959   0.433   0.929   2.568  0.2985 -0.6667  0.0502
   57MOL    C4816960   0.319   0.975   2.668  0.2135 -0.3030  0.1000
   57MOL    C4916961   0.213   0.864   2.678 -0.1369 -0.2389 -0.3164
   57MOL    C5016962   0.381   0.986   2.811  0.1518  0.1521 -1.0494
   57MOL    O5116963   0.323   0.948   2.910  0.2711 -0.6909  0.3601
   57MOL    O5216964   0.496   1.047   2.808  0.0034  0.7320  0.0108
   57MOL    C5316965   0.558   1.077   2.931 -0.8118  0.2079 -0.1978
   57MOL    H5416966   0.502   1.014   2.563  1.9924 -1.9619  1.0312
   57MOL    H5516967   0.489   0.859   2.630 -2.2482 -1.6562  1.3026
   57MOL    H5616968   0.143   0.867   2.761 -0.6807  1.8152 -0.8364
   57MOL    H5716969   0.150   0.856   2.589 -1.1928  1.6501  0.2431
   57MOL    H5816970   0.273   0.773   2.682  0.1362  0.0062  1.2140
   57MOL    H5916971   0.578   0.990   2.994  1.1375  1.8231  1.5022
   57MOL    H6016972   0.501   1.148   2.990 -1.2106 -0.3681  0.1059
   57MOL    H6116973   0.653   1.125   2.906 -1.0203  0.4503 -0.5235
   57MOL    C6216974   0.258   1.111   2.620  0.2191 -0.9478  0.1669
   57MOL    C6316975   0.179   1.222   2.711  0.6833  0.1096  0.7438
   57MOL    C6416976   0.084   1.145   2.803 -0.2361  0.0752 -0.0164
   57MOL    C6516977   0.284   1.314   2.785 -0.0252 -0.0619 -0.3037
   57MOL    O6616978   0.401   1.318   2.747  0.1604 -0.3581 -0.0513
   57MOL    O6716979   0.239   1.387   2.893  0.1919 -0.5795  0.4893
   57MOL    C6816980   0.326   1.482   2.956 -0.5159  0.3150 -0.2039
   57MOL    H6916981   0.183   1.082   2.546  0.1766  0.9842 -0.5943
   57MOL    H7016982   0.335   1.163   2.563 -1.6536  2.3365  0.4601
   57MOL    H7116983   7.870   1.114   2.751 -1.1497 -2.0324  2.6933
   57MOL    H7216984   0.120   1.048   2.837  0.4114 -0.3361 -1.8242
   57MOL    H7316985   0.041   1.198   2.888 -0.4560  0.0156 -0.0888
   57MOL    H7416986   0.353   1.443   3.054 -1.3504 -1.6761 -0.7559
   57MOL    H7516987   0.268   1.572   2.978  0.7837  1.5178 -1.5841
   57MOL    H7616988   0.410   1.516   2.895 -1.3003  1.9720 -0.3815
   57MOL    C7716989   0.098   1.315   2.615  0.5938  0.7661  0.6541
   57MOL    C7816990   0.005   1.431   2.657 -0.3960 -1.4588  0.7093
   57MOL    C7916991   7.799   1.396   2.783  0.2586  0.5735  0.4436
   57MOL    C8016992   0.077   1.565   2.694  0.1394  0.3760 -0.0886
   57MOL    O8116993   0.194   1.585   2.667  0.0802 -0.0469  0.6742
   57MOL    O8216994   7.876   1.648   2.753 -0.1697  0.3213  0.3762
   57MOL    C8316995   0.046   1.768   2.806  0.2143 -0.0252  0.7950
   57MOL    H8416996   0.049   1.247   2.544  2.2742 -0.4804  0.6539
   57MOL    H8516997   0.175   1.364   2.556 -0.0944  1.2526  0.1557
   57MOL    H8616998   7.848   1.404   2.880  0.2559  0.5790  0.4444
   57MOL    H8716999   7.711   1.460   2.782 -1.6200 -1.9527 -0.6293
   57MOL    H8817000   7.753   1.297   2.776  1.0951  0.2483 -0.6437
   57MOL    H8917001   7.856   1.800   2.885 -0.3422 -1.2812  0.8456
   57MOL    H9017002   0.058   1.835   2.721  3.3752 -0.3161  0.9619
   57MOL    H9117003   0.142   1.761   2.857  1.5375 -2.7437 -1.8894
   57MOL    C9217004   7.783   1.466   2.540  0.0618 -0.5176  0.6707
   57MOL    C9317005   7.836   1.504   2.395 -0.1519  1.0147 -0.2416
   57MOL    C9417006   0.038   1.644   2.404 -0.1900 -0.1588  0.2078
   57MOL    C9517007   0.053   1.396   2.330  0.5809 -0.2451 -0.7468
   57MOL    O9617008   0.171   1.418   2.301 -0.2673 -0.0378  0.3437
   57MOL    O9717009   7.869   1.269   2.312 -0.2415  0.8601  0.4418
   57MOL    C9817010   0.060   1.175   2.229 -0.2337  0.7022  0.3571
   57MOL    H9917011   7.703   1.536   2.565  0.9088  0.6795  0.0553
   57MOL   H10017012   7.734   1.369   2.534 -0.1853 -0.4221  1.1302
   57MOL   H10117013   0.144   1.630   2.426  0.1839  2.6173  0.3934
   57MOL   H10217014   0.042   1.696   2.309  1.2639  1.2192  0.9904
   57MOL   H10317015   7.877   1.703   2.488 -1.8484  0.4546 -0.9789
   57MOL   H10417016   7.875   1.090   2.204  1.4832 -0.5955  0.3826
   57MOL   H10517017   0.152   1.138   2.272  0.1117  0.6849 -0.3800
   57MOL   H10617018   0.081   1.219   2.131 -2.8898  0.2644 -0.4528
   57MOL   C10717019   7.709   1.518   2.307  0.9135 -0.2235  0.3041
   57MOL   C10817020   7.701   1.576   2.162 -1.5115  0.6238 -0.1387
   57MOL   C10917021   7.831   1.540   2.076  0.4416  0.0025 -0.0252
   57MOL   C11017022   7.575   1.506   2.100 -0.0832  0.8077 -0.6796
   57MOL   O11117023   7.587   1.419   2.014  0.4253 -0.0088  0.4303
   57MOL   O11217024   7.461   1.531   2.164  0.4066  0.5191  0.4067
   57MOL   C11317025   7.336   1.487   2.110  0.2217 -0.1771 -0.1963
   57MOL   H11417026   7.642   1.580   2.366  0.4438 -1.2373  0.8612
   57MOL   H11517027   7.665   1.419   2.299 -1.8100  1.1451 -2.5983
   57MOL   H11617028   7.861   1.435   2.079 -1.0581 -0.4120  0.7649
   57MOL   H11717029   7.820   1.560   1.969  0.3453 -1.2205 -0.2554
   57MOL   H11817030   0.048   1.588   2.103  0.7605 -1.1703  0.9873
   57MOL   H11917031   7.340   1.386   2.068 -1.7858  0.5956 -2.3326
   57MOL   H12017032   7.307   1.559   2.034 -0.4424  0.0573  0.2761
   57MOL   H12117033   7.259   1.490   2.188  1.3672 -0.6883  0.9760
   57MOL   C12217034   7.673   1.732   2.163  0.6951 -0.2547  0.7005
   57MOL   C12317035   7.710   1.835   2.053 -0.8106  0.6840  0.0652
   57MOL   C12417036   7.651   1.969   2.114 -0.1886  0.3489  0.8453
   57MOL   C12517037   7.866   1.857   2.051  0.0362 -0.1832 -0.0148
   57MOL   O12617038   0.058   1.818   1.956  0.3040  0.5928 -0.2280
   57MOL   O12717039   0.041   1.925   2.158  0.2224  0.0666 -0.4824
   57MOL   C12817040   0.173   1.978   2.151  0.1530  0.3104 -0.1484
   57MOL   H12917041   7.732   1.771   2.246  2.1545  0.7697 -0.8012
   57MOL   H13017042   7.574   1.754   2.203 -0.1019 -2.0552 -0.2400
   57MOL   H13117043   7.680   2.056   2.055 -0.3090 -1.1042 -1.3973
   57MOL   H13217044   7.543   1.974   2.100 -0.1652  1.2205  0.9150
   57MOL   H13317045   7.668   1.986   2.221  1.8411  1.2248  0.4132
   57MOL   H13417046   0.253   1.904   2.143 -0.4277 -0.3299 -0.0635
   57MOL   H13517047   0.181   2.042   2.239 -0.7212 -0.0848  0.2247
   57MOL   H13617048   0.179   2.045   2.066  1.1293 -0.8725 -1.0209
   57MOL   C13717049   7.646   1.805   1.917  0.3055  0.4358 -0.1700
   57MOL   C13817050   7.640   1.898   1.791 -0.2804  0.4972  0.3421
   57MOL   C13917051   7.525   2.000   1.811 -0.4864 -1.0453 -0.3992
   57MOL   C14017052   7.764   1.985   1.766 -0.1695 -0.2515 -0.4104
   57MOL   O14117053   7.834   1.959   1.672 -0.4015 -0.0240  0.2171
   57MOL   O14217054   7.782   2.096   1.845  0.3224 -0.2114 -0.0495
   57MOL   C14317055   0.008   2.185   1.825 -0.2499  0.2044 -0.6047
   57MOL   H14417056   7.546   1.768   1.942  1.3114 -0.5639  2.5484
   57MOL   H14517057   7.698   1.712   1.893 -0.1496  0.0406  0.3634
   57MOL   H14617058   7.493   2.062   1.728  0.0138 -0.5566 -0.2243
   57MOL   H14717059   7.434   1.948   1.841 -0.7197 -0.6155 -0.3618
   57MOL   H14817060   7.541   2.074   1.890  2.5623 -1.2518 -0.7629
   57MOL   H14917061   0.014   2.207   1.718  1.3975 -1.9140 -0.9835
   57MOL   H15017062   0.103   2.150   1.864 -0.4122 -0.6021 -0.9158
   57MOL   H15117063   7.858   2.282   1.866 -0.0783  0.1129 -0.2684
   57MOL   C15217064   7.596   1.821   1.660  0.9402  0.6910  0.0725
   57MOL   C15317065   7.642   1.678   1.605 -0.4493  1.2842  0.3360
   57MOL   C15417066   7.792   1.661   1.636 -0.5243 -0.3039  0.3308
   57MOL   C15517067   7.568   1.563   1.687  0.3300 -0.7123  0.1134
   57MOL   O15617068   7.633   1.472   1.738  0.5846  0.0432  0.1171
   57MOL   O15717069   7.441   1.578   1.689  0.2259  0.5195  0.4409
   57MOL   C15817070   7.367   1.470   1.751  0.7323  0.3469 -0.0417
   57MOL   H15917071   7.622   1.882   1.573  0.1542  1.4853  0.3820
   57MOL   H16017072   7.488   1.826   1.656  0.8752 -0.1773  0.6759
   57MOL   H16117073   7.850   1.735   1.581 -0.6752  0.1154  0.7287
   57MOL   H16217074   7.820   1.671   1.741 -1.5005  1.9706  0.3946
   57MOL   H16317075   7.833   1.563   1.613 -2.0359 -1.6010  2.8899
   57MOL   H16417076   7.402   1.456   1.854 -0.7565 -1.2151  0.2700
   57MOL   H16517077   7.386   1.379   1.695  2.7101  0.5901  0.1976
   57MOL   H16617078   7.258   1.474   1.748  0.6787 -1.0973 -0.4722
   57MOL   C16717079   7.594   1.663   1.449 -0.3804  0.5092 -0.6044
   57MOL   C16817080   7.684   1.710   1.336  0.1593 -0.0936  0.5842
   57MOL   C16917081   7.741   1.850   1.354  0.0305 -0.1399  0.8359
   57MOL   C17017082   7.799   1.604   1.331 -0.0745 -0.2445  0.3932
   57MOL   O17117083   7.769   1.487   1.340  0.3336  0.1856  0.6333
   57MOL   O17217084   0.047   1.655   1.330  0.1332  0.0973 -0.9202
   57MOL   C17317085   0.163   1.572   1.332 -0.7228  0.6978  0.5564
   57MOL   H17417086   7.497   1.712   1.442 -1.4278 -1.6569 -1.9340
   57MOL   H17517087   7.558   1.561   1.438  1.3060 -0.2005  0.1980
   57MOL   H17617088   7.661   1.922   1.372 -1.2224 -1.3012 -0.0403
   57MOL   H17717089   7.804   1.878   1.439 -0.8983  2.4645  0.7172
   57MOL   H17817090   7.799   1.886   1.269  1.3449 -0.8602  1.4197
   57MOL   H17917091   0.151   1.475   1.284  2.0208 -0.8446  2.8066
   57MOL   H18017092   0.203   1.554   1.432 -0.5824  0.2987  0.4332
   57MOL   H18117093   0.228   1.621   1.259  0.6811 -0.6562  0.8559
   57MOL   C18217094   7.608   1.687   1.194  0.6403  0.0149 -0.4858
   57MOL   C18317095   7.493   1.780   1.127  0.1942 -0.3690  0.0107
   57MOL   C18417096   7.407   1.840   1.236  1.0410 -0.0278 -0.2272
   57MOL   C18517097   7.552   1.898   1.043 -0.2017 -0.2246 -0.7781
   57MOL   O18617098   7.672   1.920   1.030 -0.6739 -0.0792  0.4069
   57MOL   O18717099   7.447   1.982   1.002  0.1189 -0.1170 -0.4635
   57MOL   C18817100   7.476   2.085   0.911 -0.0457  0.5257  0.1209
   57MOL   H18917101   7.564   1.588   1.205  0.1900  0.1574 -0.9696
   57MOL   H19017102   7.685   1.666   1.119  1.6821 -1.2993  0.9159
   57MOL   H19117103   7.463   1.910   1.298 -0.4821 -0.2625  1.4452
   57MOL   H19217104   7.315   1.889   1.204  0.7402  0.1711  0.8959
   57MOL   H19317105   7.366   1.756   1.292 -1.5695  0.9205 -0.6713
   57MOL   H19417106   7.574   2.127   0.933 -1.0218  2.0364  1.6731
   57MOL   H19517107   7.411   2.172   0.921 -0.8571 -0.0767  0.1401
   57MOL   H19617108   7.464   2.045   0.811 -0.6932 -0.3191  0.5280
   57MOL   C19717109   7.401   1.693   1.044 -0.6284 -0.1348  0.4623
   57MOL   C19817110   7.420   1.624   0.899  0.7919 -0.7007 -0.0028
   57MOL   C19917111   7.492   1.721   0.803  0.0150 -0.2470  0.4297
   57MOL   C20017112   7.512   1.502   0.906  0.4672  0.8585  0.2275
   57MOL   O20117113   7.471   1.390   0.886  0.0260  0.0365  0.2151
   57MOL   O20217114   7.632   1.530   0.932  0.6111 -0.2996 -0.1265
   57MOL   C20317115   7.718   1.427   0.966 -0.0044 -0.8345  0.9043
   57MOL   H20417116   7.331   1.769   1.009  0.4227  0.4746 -0.3513
   57MOL   H20517117   7.336   1.633   1.108 -1.8004  1.7422  1.0895
   57MOL   H20617118   7.590   1.752   0.839 -0.1116  1.8873 -1.0263
   57MOL   H20717119   7.503   1.670   0.707 -1.6426 -2.0096  1.1315
   57MOL   H20817120   7.428   1.808   0.788  1.0807  0.4559 -0.0869
   57MOL   H20917121   7.800   1.481   1.014  0.8756 -0.2039 -1.2368
   57MOL   H21017122   7.756   1.373   0.879  0.9630  2.4501 -0.7765
   57MOL   H21117123   7.668   1.371   1.045  1.9201 -1.6296  1.6034
   57MOL   C21217124   7.277   1.596   0.837 -0.8701 -0.6630 -0.2586
   57MOL   C21317125   7.158   1.523   0.900  0.4322  0.6990  0.1275
   57MOL   C21417126   7.200   1.378   0.955 -0.0061 -0.1234  0.3216
   57MOL   C21517127   7.088   1.602   1.014  0.5541  0.2973 -0.1436
   57MOL   O21617128   7.058   1.543   1.120 -0.2019 -0.1956 -0.0853
   57MOL   O21717129   7.043   1.723   0.990 -0.1331  0.3019 -0.3182
   57MOL   C21817130   6.998   1.812   1.095  0.4305  0.3500  0.5370
   57MOL   H21917131   7.285   1.541   0.743 -0.9389  2.4414 -2.1354
   57MOL   H22017132   7.234   1.692   0.812  1.9304  0.2874 -1.6120
   57MOL   H22117133   7.253   1.322   0.878  1.6149  0.7876  0.7541
   57MOL   H22217134   7.268   1.390   1.040 -0.9087  1.0236  0.8992
   57MOL   H22317135   7.116   1.319   0.992  0.2425 -0.3243  0.5691
   57MOL   H22417136   6.892   1.822   1.116  0.6684  3.4082  0.3840
   57MOL   H22517137   7.039   1.911   1.076 -0.2060  0.7026  1.0177
   57MOL   H22617138   7.045   1.779   1.188  0.2336 -1.3244  0.0743
   57MOL   C22717139   7.038   1.493   0.796 -0.2142  0.1950 -0.0629
   57MOL   C22817140   6.991   1.580   0.670  0.4346 -0.2016  0.1741
   57MOL   C22917141   6.934   1.719   0.713  0.0153  0.1369  0.5599
   57MOL   C23017142   7.109   1.587   0.572 -0.3476 -0.2958  0.3289
   57MOL   O23117143   7.140   1.689   0.505  0.2770  0.1578 -0.6932
   57MOL   O23217144   7.165   1.471   0.542  0.8376  0.2163 -0.4249
   57MOL   C23317145   7.261   1.443   0.443 -0.1406  0.3557 -0.0285
   57MOL   H23417146   6.952   1.479   0.860  0.1076  1.3903  0.6436
   57MOL   H23517147   7.051   1.395   0.749  1.5403  0.5274 -0.3099
   57MOL   H23617148   6.905   1.760   0.616 -0.3406  0.6285  0.8775
   57MOL   H23717149   6.844   1.716   0.774 -1.0858 -1.7323 -1.0739
   57MOL   H23817150   7.006   1.790   0.755  0.7188  0.4178 -1.0695
   57MOL   H23917151   7.285   1.337   0.449  0.7057  0.4283 -1.8089
   57MOL   H24017152   7.345   1.505   0.472  0.1479  0.5402 -1.2404
   57MOL   H24117153   7.217   1.465   0.346  1.3375 -1.9870 -1.2834
   57MOL   C24217154   6.876   1.495   0.606 -0.3392 -0.1465  0.0707
   57MOL   C24317155   6.793   1.536   0.473 -0.1991 -0.8367 -0.3965
   57MOL   C24417156   6.874   1.595   0.358 -0.1271 -0.6039 -0.6494
   57MOL   C24517157   6.730   1.398   0.428 -0.2919 -0.0773 -0.0426
   57MOL   O24617158   6.755   1.345   0.312  0.2030  0.2289 -0.5300
   57MOL   O24717159   6.672   1.327   0.522  0.2066 -0.0620  0.4357
   57MOL   C24817160   6.660   1.186   0.499  0.0893 -0.2411 -0.6787
   57MOL   H24917161   6.811   1.457   0.684 -0.8949 -2.4686 -1.4727
   57MOL   H25017162   6.925   1.404   0.573  1.7020  0.4856  1.2564
   57MOL   H25117163   6.824   1.599   0.261 -2.4336  2.3933  0.6017
   57MOL   H25217164   6.908   1.698   0.363 -0.2624 -0.5762 -0.3016
   57MOL   H25317165   6.963   1.538   0.330 -0.3820 -0.7554 -1.1768
   57MOL   H25417166   6.746   1.119   0.501  1.2369  1.1373 -2.6338
   57MOL   H25517167   6.613   1.164   0.404 -1.0885  1.8739 -0.6079
   57MOL   H25617168   6.584   1.153   0.570 -0.7472  2.6741 -0.1621
   57MOL   C25717169   6.674   1.640   0.514 -0.1591 -0.2027  0.5649
   57MOL   C25817170   6.572   1.707   0.412 -0.0100 -0.2802 -0.1844
   57MOL   C25917171   6.649   1.824   0.338 -0.2730 -0.4745 -0.1545
   57MOL   C26017172   6.516   1.605   0.304 -0.4194  0.1106  0.0008
   57MOL   O26117173   6.543   1.618   0.187 -0.1400  0.3832 -0.5183
   57MOL   O26217174   6.441   1.501   0.353  0.2060  1.0479 -0.2254
   57MOL   C26317175   6.360   1.425   0.266 -0.1743  0.3387 -0.1934
   57MOL   H26417176   6.715   1.725   0.568 -1.3784  1.5272 -1.1298
   57MOL   H26517177   6.613   1.585   0.585  0.1669 -2.4209 -0.8438
   57MOL   H26617178   6.704   1.886   0.409  2.2056 -2.3902 -0.3528
   57MOL   H26717179   6.718   1.804   0.255 -0.1171  0.1389 -0.1801
   57MOL   H26817180   6.579   1.894   0.291 -1.1804  0.2377  2.1785
   57MOL   H26917181   6.269   1.421   0.326  0.1775  0.5213  0.3514
   57MOL   H27017182   6.403   1.328   0.239 -0.6348  0.0052  0.2497
   57MOL   H27117183   6.332   1.473   0.172  1.2989  2.0199  0.1909
   57MOL   C27217184   6.457   1.768   0.499 -0.0432  0.7846  0.6140
   57MOL   C27317185   6.351   1.868   0.454  0.1354 -0.0508  0.0605
   57MOL   C27417186   6.241   1.876   0.565 -0.2910 -0.0169  0.0354
   57MOL   C27517187   6.399   2.014   0.424 -0.1930  0.1190 -0.5117
   57MOL   O27617188   6.382   2.061   0.315 -0.3140  0.1230  0.4413
   57MOL   O27717189   6.457   2.066   0.526 -0.5601  0.1282 -0.1014
   57MOL   C27817190   6.476   2.206   0.520 -0.3637 -0.6050  0.2219
   57MOL   H27917191   6.492   1.806   0.595 -1.2050 -0.2148  1.4441
   57MOL   H28017192   6.410   1.675   0.530  3.3400 -1.2479 -0.0218
   57MOL   H28117193   6.176   1.963   0.554 -1.2479 -0.6730  0.3838
   57MOL   H28217194   6.172   1.791   0.569 -0.1961 -0.1633 -1.1530
   57MOL   H28317195   6.293   1.875   0.661  1.8000 -1.4260 -1.0700
   57MOL   H28417196   6.539   2.239   0.437 -1.7784  2.7749  0.4398
   57MOL   H28517197   6.535   2.241   0.604 -1.5539 -3.1085  2.1556
   57MOL   H28617198   6.373   2.239   0.515  0.1339  0.9000 -0.5174
   57MOL   C28717199   6.284   1.805   0.324  0.3173  0.4658 -0.3522
   57MOL   C28817200   6.142   1.843   0.287 -0.4301 -0.3418 -0.3807
   57MOL   C28917201   6.128   1.861   0.130  0.3224  0.9720 -0.9652
   57MOL   C29017202   6.040   1.751   0.340 -0.0840  0.4754 -0.3850
   57MOL   O29117203   5.948   1.799   0.403  0.6601 -0.4895 -0.0336
   57MOL   O29217204   6.051   1.614   0.312  0.5912 -0.5662  0.6394
   57MOL   C29317205   5.939   1.528   0.350  0.3413  0.4097  0.2933
   57MOL   H29417206   6.286   1.698   0.344  0.3541  0.3569 -0.9298
   57MOL   H29517207   6.342   1.812   0.232 -2.2926 -1.1441 -2.1971
   57MOL   H29617208   6.144   1.776   0.063  0.5226  0.5899 -0.4404
   57MOL   H29717209   6.022   1.878   0.112 -0.4502  0.4013  2.6197
   57MOL   H29817210   6.183   1.950   0.102 -0.1267  1.4520 -0.3270
   57MOL   H29917211   5.965   1.453   0.424 -1.2300 -0.7948 -0.3277
   57MOL   H30017212   5.893   1.473   0.267  0.2148  0.6762  0.1865
   57MOL   H30117213   5.860   1.592   0.389  1.3230  2.3430 -0.8141
   57MOL   H30217214   6.112   1.938   0.330 -0.3339 -0.9720  1.1257
   58MOL     C117215   1.753   2.696   2.493 -0.0263  0.1970  0.3680
   58MOL     C217216   1.817   2.765   2.377 -0.9887  0.6523  0.5776
   58MOL     C317217   1.960   2.698   2.352  1.0378  0.6034  0.2389
   58MOL     C417218   1.734   2.743   2.251  0.3472 -0.4135 -0.2145
   58MOL     O517219   1.776   2.667   2.164  0.6732  0.0145 -0.0041
   58MOL     O617220   1.612   2.795   2.256  0.1330  0.4838  0.3394
   58MOL     C717221   1.527   2.787   2.142  0.1587  0.3211 -0.3265
   58MOL     H817222   1.655   2.736   2.521 -0.9843 -0.7190 -1.6339
   58MOL     H917223   1.736   2.590   2.474 -0.4876  0.1294  1.1542
   58MOL    H1017224   2.012   2.698   2.257 -2.4291 -2.5560 -1.8048
   58MOL    H1117225   2.038   2.740   2.416  1.5080  2.5765 -1.5991
   58MOL    H1217226   1.960   2.592   2.380  0.2207  0.2827 -0.9305
   58MOL    H1317227   1.437   2.847   2.155  1.5087  2.3799 -0.1306
   58MOL    H1417228   1.490   2.685   2.130 -0.5049  0.4573  0.5621
   58MOL    H1517229   1.578   2.822   2.052  0.0375 -0.0885 -0.5525
   58MOL    H1617230   1.811   2.694   2.585  0.2195  0.1443  0.2123
   58MOL    C1717231   1.839   2.919   2.411 -0.1638  0.4164  0.1653
   58MOL    C1817232   1.888   3.025   2.311  0.9020 -0.0086 -0.2361
   58MOL    C1917233   1.988   2.970   2.209  0.2231  0.9591  0.2833
   58MOL    C2017234   1.762   3.072   2.233 -0.1624  0.4311 -0.4786
   58MOL    O2117235   1.758   3.070   2.114 -0.4118  0.0548 -0.1888
   58MOL    O2217236   1.659   3.115   2.307 -0.0571 -0.2183 -0.4319
   58MOL    C2317237   1.553   3.183   2.244 -0.6372  0.3737 -0.2909
   58MOL    H2417238   1.914   2.912   2.490 -0.2026 -0.1606  0.1483
   58MOL    H2517239   1.752   2.961   2.463 -0.2502 -0.5846  0.8315
   58MOL    H2617240   2.065   2.906   2.251 -0.0041  0.7575  0.3957
   58MOL    H2717241   1.944   2.908   2.131  0.0872 -0.5146  1.5050
   58MOL    H2817242   2.040   3.055   2.166  1.5349  0.0151 -0.0285
   58MOL    H2917243   1.576   3.204   2.140  1.1462  1.5400  0.3241
   58MOL    H3017244   1.547   3.281   2.292 -3.5912 -0.7196  1.7657
   58MOL    H3117245   1.461   3.124   2.250 -0.9892  1.0078  0.7701
   58MOL    C3217246   1.941   3.164   2.386 -0.5613 -0.1797  0.4004
   58MOL    C3317247   2.067   3.186   2.467  0.4175  0.1134 -0.4054
   58MOL    C3417248   2.057   3.107   2.601 -0.1022  0.3325 -0.3834
   58MOL    C3517249   2.197   3.143   2.400 -0.4003  0.0700  0.4097
   58MOL    O3617250   2.288   3.085   2.460  0.2990  0.1165 -0.1650
   58MOL    O3717251   2.209   3.177   2.265 -0.5537  0.4419 -0.2949
   58MOL    C3817252   2.318   3.128   2.194 -0.2057  0.8731 -0.1127
   58MOL    H3917253   1.861   3.184   2.457 -1.3421 -2.7899  0.3202
   58MOL    H4017254   1.942   3.243   2.311  0.3869  2.0267  2.6647
   58MOL    H4117255   2.133   3.135   2.674 -0.1223 -0.8336  0.1091
   58MOL    H4217256   1.963   3.119   2.655  0.3648 -1.3194  0.8510
   58MOL    H4317257   2.072   3.002   2.575  0.0967  0.5368 -1.1015
   58MOL    H4417258   2.315   3.170   2.094 -2.1449  0.8063 -0.0956
   58MOL    H4517259   2.325   3.020   2.179 -0.4993  0.7542  0.5900
   58MOL    H4617260   2.412   3.154   2.242  0.6441 -0.2160 -1.1706
   58MOL    C4717261   2.055   3.342   2.507 -0.8140 -0.2279  0.3389
   58MOL    C4817262   2.174   3.446   2.470  0.4398 -0.2509 -0.5037
   58MOL    C4917263   2.308   3.390   2.514  1.0418  0.5839 -0.7698
   58MOL    C5017264   2.164   3.484   2.322 -0.4592  0.1952  0.3360
   58MOL    O5117265   2.060   3.464   2.261  0.4289  0.9327 -1.0017
   58MOL    O5217266   2.281   3.521   2.265 -0.3974  0.5291 -0.1115
   58MOL    C5317267   2.288   3.512   2.129 -0.1127  0.2828  0.4965
   58MOL    H5417268   2.066   3.343   2.615 -0.0923  0.3035  0.2658
   58MOL    H5517269   1.957   3.385   2.484  0.5598  2.5411 -0.5038
   58MOL    H5617270   2.361   3.332   2.439  1.0645 -0.4600  0.0326
   58MOL    H5717271   2.382   3.467   2.535  0.9505  0.3464  0.4708
   58MOL    H5817272   2.294   3.334   2.607 -2.3608  1.5779 -0.6146
   58MOL    H5917273   2.391   3.509   2.095 -0.6616  2.2568 -1.4331
   58MOL    H6017274   2.245   3.606   2.096  2.2653  1.3758  0.4393
   58MOL    H6117275   2.236   3.422   2.096 -0.7760  0.3883  1.2315
   58MOL    C6217276   2.142   3.569   2.569  0.2345 -0.0470  0.3977
   58MOL    C6317277   2.162   3.719   2.538  0.3257  0.4132  0.1216
   58MOL    C6417278   2.294   3.768   2.465  0.2883  0.2970  0.7301
   58MOL    C6517279   2.048   3.766   2.437 -0.7771 -0.6431  0.4977
   58MOL    O6617280   2.073   3.785   2.315  0.7376 -0.2678  0.5260
   58MOL    O6717281   1.936   3.798   2.494  0.2911 -0.2359 -1.3865
   58MOL    C6817282   1.831   3.865   2.417 -0.0069 -0.2997 -0.4404
   58MOL    H6917283   2.201   3.538   2.655  0.6708 -1.1158 -0.2726
   58MOL    H7017284   2.038   3.571   2.598 -0.2636 -1.8320 -1.1806
   58MOL    H7117285   2.386   3.721   2.498 -0.0078  0.1289  1.3346
   58MOL    H7217286   2.304   3.764   2.357  1.4385  0.8001  0.8111
   58MOL    H7317287   2.317   3.873   2.486  2.8542  0.1814 -1.3262
   58MOL    H7417288   1.801   3.953   2.475 -0.3649  1.4249 -3.1128
   58MOL    H7517289   1.747   3.802   2.388 -2.7770  1.9457  2.2641
   58MOL    H7617290   1.886   3.903   2.331 -1.3897 -2.1707 -2.1911
   58MOL    C7717291   2.142   3.791   2.673 -0.1113 -0.9504 -0.1018
   58MOL    C7817292   2.212   3.758   2.814 -0.3625 -0.0372  0.2309
   58MOL    C7917293   2.122   3.656   2.884 -0.6301 -0.2790  0.1177
   58MOL    C8017294   2.357   3.696   2.798 -0.3110 -0.2090 -0.9138
   58MOL    O8117295   2.369   3.572   2.820 -0.4374  0.0660  0.2455
   58MOL    O8217296   2.444   3.777   2.740 -0.1019 -0.2080 -0.4155
   58MOL    C8317297   2.581   3.734   2.717  0.3480  0.3718 -0.1301
   58MOL    H8417298   2.039   3.810   2.703 -0.0398 -3.1701  1.6499
   58MOL    H8517299   2.169   3.894   2.650  0.8657 -0.4094  3.2007
   58MOL    H8617300   2.164   3.608   2.972  1.4011  1.5216  0.1760
   58MOL    H8717301   2.028   3.698   2.922 -1.0862 -2.6415  1.6712
   58MOL    H8817302   2.091   3.573   2.821  0.5820 -3.3579  3.4446
   58MOL    H8917303   2.582   3.626   2.731 -1.6555 -0.0249 -2.6706
   58MOL    H9017304   2.652   3.777   2.788 -0.5318 -2.2943  2.4737
   58MOL    H9117305   2.617   3.746   2.615  1.1113  2.5485  0.3738
   58MOL    C9217306   2.213   3.894   2.891 -0.2446 -0.3443  0.1282
   58MOL    C9317307   2.274   3.921   3.034  0.1066 -0.2131  0.3346
   58MOL    C9417308   2.285   3.800   3.130 -0.3207  0.3288  0.4316
   58MOL    C9517309   2.417   3.970   3.013  0.7135 -0.5558  0.0846
   58MOL    O9617310   2.440   4.093   2.986  0.2519  0.8396 -0.2787
   58MOL    O9717311   2.515   3.877   3.032  0.2103  0.3421  0.3403
   58MOL    C9817312   2.651   3.916   3.027 -0.6895 -0.3208 -0.5818
   58MOL    H9917313   2.106   3.913   2.901 -0.2463  1.4183 -2.6635
   58MOL   H10017314   2.265   3.969   2.831  0.2738 -0.6128  0.2381
   58MOL   H10117315   2.351   3.722   3.092  0.4673  0.4794  1.4641
   58MOL   H10217316   2.328   3.827   3.226  1.4250  1.5788 -0.6721
   58MOL   H10317317   2.192   3.744   3.142  0.6228 -1.3191  0.2731
   58MOL   H10417318   2.717   3.829   3.025  0.1585  0.3141 -0.7587
   58MOL   H10517319   2.675   3.962   3.123 -0.8823  0.2280 -0.7940
   58MOL   H10617320   2.671   3.984   2.944 -1.8967 -1.1679 -1.5855
   58MOL   C10717321   2.182   4.036   3.095 -0.3584 -0.2255  0.3237
   58MOL   C10817322   2.050   4.022   3.185 -0.1016 -0.4998 -0.2819
   58MOL   C10917323   1.941   3.960   3.096 -0.0514 -0.2075 -0.0596
   58MOL   C11017324   2.066   3.938   3.315 -0.4307  0.2493  0.6315
   58MOL   O11117325   1.975   3.853   3.341 -0.7158 -0.4293 -0.3670
   58MOL   O11217326   2.162   3.985   3.391 -0.1132 -0.1275 -0.1852
   58MOL   C11317327   2.188   3.916   3.504 -0.4211 -0.2030 -0.1022
   58MOL   H11417328   2.155   4.098   3.009 -1.1215 -0.9009  0.0655
   58MOL   H11517329   2.254   4.090   3.156 -0.4041 -1.3886  1.4483
   58MOL   H11617330   1.937   4.003   2.996 -0.2941 -0.8205 -0.3199
   58MOL   H11717331   1.960   3.854   3.076  1.7626 -0.6131  3.3454
   58MOL   H11817332   1.848   3.960   3.152  0.1422  0.2637  0.2678
   58MOL   H11917333   2.182   3.809   3.485  2.8343 -0.6204  0.8303
   58MOL   H12017334   2.105   3.940   3.570 -0.6729  2.6706 -1.3842
   58MOL   H12117335   2.281   3.955   3.546 -1.0405  0.6235  0.5259
   58MOL   C12217336   2.013   4.174   3.216  0.0993 -0.5924  0.1543
   58MOL   C12317337   1.895   4.228   3.307 -0.2996 -0.3157  0.5204
   58MOL   C12417338   1.765   4.153   3.282  0.0343  0.0553  0.1737
   58MOL   C12517339   1.942   4.213   3.456 -0.6831 -0.1799 -0.0260
   58MOL   O12617340   1.868   4.167   3.544 -0.3315  0.6861 -0.2669
   58MOL   O12717341   2.069   4.278   3.486  0.1468 -0.2808 -0.2740
   58MOL   C12817342   2.117   4.285   3.612  0.2541  0.7561  0.1593
   58MOL   H12917343   2.005   4.216   3.116  1.2031  1.1466  0.7651
   58MOL   H13017344   2.104   4.214   3.262 -0.1046 -1.5347  1.4210
   58MOL   H13117345   1.684   4.193   3.344 -2.0931  1.4472 -3.3265
   58MOL   H13217346   1.722   4.144   3.182  0.6073 -0.3953 -0.0267
   58MOL   H13317347   1.782   4.056   3.327  3.1923  0.8926  0.8548
   58MOL   H13417348   2.048   4.255   3.691 -0.3812 -0.9873 -1.0187
   58MOL   H13517349   2.136   4.389   3.636 -1.4350  1.6469 -2.1555
   58MOL   H13617350   2.207   4.225   3.627 -0.3071 -0.0668  0.2908
   58MOL   C13717351   1.875   4.380   3.276  0.1956  0.0592  0.4555
   58MOL   C13817352   1.757   4.480   3.324  0.1324  0.4890  0.0102
   58MOL   C13917353   1.635   4.443   3.244  0.1786  0.1048  0.0280
   58MOL   C14017354   1.731   4.485   3.478 -0.1181  0.1366  0.2596
   58MOL   O14117355   1.621   4.460   3.532  0.6872 -0.6093  0.0548
   58MOL   O14217356   1.839   4.503   3.554  0.1086 -0.5930  0.0756
   58MOL   C14317357   1.832   4.510   3.695 -0.8280  0.0467  0.6400
   58MOL   H14417358   1.882   4.381   3.167 -4.1382  0.7292  0.1022
   58MOL   H14517359   1.966   4.430   3.309 -0.9810  2.8131 -0.2791
   58MOL   H14617360   1.574   4.532   3.228  0.9296  0.8529  1.2383
   58MOL   H14717361   1.662   4.395   3.149  1.7512  1.5349 -0.2709
   58MOL   H14817362   1.574   4.375   3.303 -0.0415  1.5033  1.4225
   58MOL   H14917363   1.934   4.532   3.726  0.2025  0.3171 -2.7435
   58MOL   H15017364   1.805   4.408   3.723 -2.7240 -0.4125 -2.5614
   58MOL   H15117365   1.773   4.591   3.739  1.2429  0.9904  1.7587
   58MOL   C15217366   1.800   4.627   3.277  0.4329  0.3738 -0.0917
   58MOL   C15317367   1.734   4.767   3.300  0.0501  0.2256 -0.1173
   58MOL   C15417368   1.775   4.843   3.176 -0.3205 -0.2386 -0.1477
   58MOL   C15517369   1.580   4.759   3.306  0.4552 -0.4182 -0.5371
   58MOL   O15617370   1.512   4.797   3.210 -0.4898  0.1499 -0.0426
   58MOL   O15717371   1.534   4.709   3.424  0.5104  0.6568  0.0697
   58MOL   C15817372   1.399   4.685   3.435  0.0252  0.5297  0.7775
   58MOL   H15917373   1.820   4.612   3.171  0.6731 -0.9169  0.1220
   58MOL   H16017374   1.901   4.631   3.318  0.5166 -0.5883 -0.1814
   58MOL   H16117375   1.742   4.947   3.182  0.3023  0.0554 -1.7287
   58MOL   H16217376   1.883   4.858   3.179 -0.0530 -1.5861 -2.1793
   58MOL   H16317377   1.749   4.810   3.076  1.3527  1.8376 -1.3090
   58MOL   H16417378   1.358   4.650   3.340 -0.7897 -0.5258  1.5099
   58MOL   H16517379   1.341   4.775   3.457 -2.4580 -0.7814 -0.1397
   58MOL   H16617380   1.383   4.610   3.512  2.0317  0.2705  0.9702
   58MOL   C16717381   1.794   4.819   3.439 -0.5929 -0.8872  0.0941
   58MOL   C16817382   1.776   4.969   3.489  0.1475  0.3919 -0.6616
   58MOL   C16917383   1.801   4.954   3.645  0.1186  0.1695 -0.3220
   58MOL   C17017384   1.884   5.056   3.424  0.3277  0.0609 -0.7179
   58MOL   O17117385   1.993   5.061   3.482  0.5458  0.3638  0.3695
   58MOL   O17217386   1.858   5.112   3.306  0.0342 -1.0525 -0.1085
   58MOL   C17317387   1.963   5.183   3.238  0.0990 -0.6280 -0.6621
   58MOL   H17417388   1.900   4.802   3.423 -0.8545 -1.7922 -0.8041
   58MOL   H17517389   1.754   4.759   3.521 -2.8951  1.0906  0.4796
   58MOL   H17617390   1.721   4.907   3.703  0.6240 -1.3646 -0.8482
   58MOL   H17717391   1.888   4.889   3.656  0.2522  0.7632  2.5354
   58MOL   H17817392   1.834   5.046   3.693  1.8582 -0.0184 -1.1187
   58MOL   H17917393   1.983   5.148   3.137  0.2423  0.2367 -0.9296
   58MOL   H18017394   2.056   5.184   3.295  0.2061  2.8455 -0.7935
   58MOL   H18117395   1.933   5.287   3.226  1.0951 -0.2996 -0.3955
   58MOL   C18217396   1.630   5.028   3.463 -0.0094  0.5040 -0.5734
   58MOL   C18317397   1.578   5.158   3.528  0.0905 -0.2930 -1.6301
   58MOL   C18417398   1.438   5.182   3.476  0.3404 -0.0713 -0.3851
   58MOL   C18517399   1.555   5.128   3.683  0.0346 -0.6007 -0.2184
   58MOL   O18617400   1.624   5.173   3.775 -0.5591 -0.1473  0.7858
   58MOL   O18717401   1.464   5.034   3.707  0.0768 -0.3180 -0.1868
   58MOL   C18817402   1.438   4.984   3.835 -0.9714  0.1320 -0.0128
   58MOL   H18917403   1.570   4.942   3.494 -0.8542  1.1852 -0.2878
   58MOL   H19017404   1.604   5.039   3.358 -0.3293  0.3552 -0.5108
   58MOL   H19117405   1.375   5.256   3.525 -1.3341 -1.6438 -0.1284
   58MOL   H19217406   1.442   5.188   3.367 -0.8990  0.0834 -0.4334
   58MOL   H19317407   1.366   5.105   3.503 -0.5694  0.9196  0.0570
   58MOL   H19417408   1.387   4.888   3.821 -1.2163 -0.2535  3.0679
   58MOL   H19517409   1.370   5.054   3.883 -2.4777 -0.3038 -1.4643
   58MOL   H19617410   1.524   4.956   3.896 -1.6136  1.3166  1.4684
   58MOL   C19717411   1.687   5.273   3.508 -0.0195  0.1481  1.0001
   58MOL   C19817412   1.667   5.427   3.517  0.1988 -0.4632  0.2801
   58MOL   C19917413   1.599   5.461   3.650  0.0418 -0.1954 -0.7087
   58MOL   C20017414   1.807   5.502   3.530 -0.9077  0.2752  0.6192
   58MOL   O20117415   1.825   5.604   3.598  0.2073 -0.3952 -0.5834
   58MOL   O20217416   1.891   5.453   3.439 -0.2609 -0.2319 -0.1728
   58MOL   C20317417   2.020   5.503   3.414  0.2347 -0.8519  0.1581
   58MOL   H20417418   1.712   5.269   3.402 -0.4662  0.0835  0.8965
   58MOL   H20517419   1.773   5.247   3.570  0.0004  0.1154  0.9587
   58MOL   H20617420   1.569   5.565   3.666  1.3268  0.0309  0.3522
   58MOL   H20717421   1.511   5.398   3.642 -0.2094  0.3472 -2.4237
   58MOL   H20817422   1.666   5.430   3.731 -1.2994 -0.6569  0.2457
   58MOL   H20917423   2.061   5.451   3.327 -1.3896 -0.6971 -0.7088
   58MOL   H21017424   2.085   5.490   3.501  1.6190  0.6815 -0.6136
   58MOL   H21117425   2.019   5.610   3.396  1.6352 -1.3101 -2.9976
   58MOL   C21217426   1.572   5.471   3.400 -0.0232  0.8646 -0.8518
   58MOL   C21317427   1.588   5.609   3.317  0.4220 -0.0106  0.6515
   58MOL   C21417428   1.575   5.733   3.410  0.4741  0.6687 -0.0523
   58MOL   C21517429   1.717   5.598   3.232 -0.0921  0.1168  0.0510
   58MOL   O21617430   1.755   5.498   3.174  0.7616 -0.1025  0.8770
   58MOL   O21717431   1.774   5.723   3.210 -0.0935  0.2023  0.2030
   58MOL   C21817432   1.894   5.735   3.136  0.6241  0.1583  0.6641
   58MOL   H21917433   1.470   5.461   3.438 -0.1150  0.8131 -1.1036
   58MOL   H22017434   1.569   5.392   3.324 -1.9117  0.1982 -0.1300
   58MOL   H22117435   1.593   5.826   3.355 -2.9967 -0.1232 -2.6999
   58MOL   H22217436   1.488   5.733   3.476  0.0639 -0.7110 -0.5749
   58MOL   H22317437   1.658   5.735   3.480 -0.0526  1.1301  0.5743
   58MOL   H22417438   1.908   5.668   3.052  2.0600  2.7790 -1.2576
   58MOL   H22517439   1.987   5.725   3.192  0.6964  1.2646  0.7626
   58MOL   H22617440   1.888   5.835   3.094  0.8970  0.6192  1.6961
   58MOL   C22717441   1.457   5.604   3.222  0.3391  0.2275  1.1400
   58MOL   C22817442   1.416   5.699   3.101  0.2226 -0.0040 -0.1838
   58MOL   C22917443   1.362   5.828   3.157  0.4309 -0.2393  0.0378
   58MOL   C23017444   1.535   5.737   3.014  0.1360  0.1033  0.0013
   58MOL   O23117445   1.583   5.849   3.006  0.1441  0.0574 -0.2514
   58MOL   O23217446   1.587   5.625   2.954  0.1971 -0.5777  0.1291
   58MOL   C23317447   1.694   5.632   2.868 -0.0994  0.1063 -0.1401
   58MOL   H23417448   1.373   5.599   3.292  0.7320 -1.1426  1.5337
   58MOL   H23517449   1.445   5.503   3.183 -0.1512  1.1838 -1.2835
   58MOL   H23617450   1.436   5.878   3.220 -0.2388 -0.0555  0.6890
   58MOL   H23717451   1.337   5.906   3.085  1.1181  1.4094  1.5333
   58MOL   H23817452   1.270   5.807   3.212  1.0856 -3.6781 -0.0681
   58MOL   H23917453   1.749   5.538   2.878  1.3894  0.4614 -4.2531
   58MOL   H24017454   1.754   5.721   2.887  0.9325 -0.6486  0.1989
   58MOL   H24117455   1.660   5.632   2.765 -1.6938  0.0867  0.3768
   58MOL   C24217456   1.307   5.631   3.006 -0.1472 -0.4081  0.5241
   58MOL   C24317457   1.148   5.633   3.027 -0.2604  0.0097  0.6133
   58MOL   C24417458   1.076   5.523   2.941 -0.3422 -0.2762 -0.3445
   58MOL   C24517459   1.131   5.578   3.166 -0.3281 -0.4832 -0.5269
   58MOL   O24617460   1.059   5.632   3.249 -0.3332 -0.2738 -0.5698
   58MOL   O24717461   1.192   5.459   3.183 -0.1281  0.2626 -0.1404
   58MOL   C24817462   1.177   5.388   3.308  0.1721 -0.0085  0.0797
   58MOL   H24917463   1.335   5.528   2.987 -1.5963 -0.6136 -0.6486
   58MOL   H25017464   1.309   5.682   2.909  0.2983 -1.9709 -0.3037
   58MOL   H25117465   1.088   5.419   2.972  1.7644  0.0851  0.1640
   58MOL   H25217466   0.968   5.535   2.938 -0.2507  0.9599  0.9155
   58MOL   H25317467   1.124   5.506   2.844  1.8310 -0.0952  0.6629
   58MOL   H25417468   1.223   5.450   3.385  0.1447  0.0978  0.0105
   58MOL   H25517469   1.232   5.294   3.303  0.3483  0.0912  0.1374
   58MOL   H25617470   1.072   5.371   3.332 -1.0035  0.7445 -4.1190
   58MOL   C25717471   1.080   5.772   2.996  0.4114 -0.8248  0.2796
   58MOL   C25817472   1.075   5.843   2.857 -0.3083 -0.1322  0.6300
   58MOL   C25917473   1.193   5.946   2.858  0.1656 -0.2914  1.0211
   58MOL   C26017474   1.099   5.745   2.733  0.7300  0.3905  0.0532
   58MOL   O26117475   1.002   5.695   2.678  0.5599 -0.4886 -0.1475
   58MOL   O26217476   1.227   5.725   2.696  0.3921  0.1895 -0.2291
   58MOL   C26317477   1.255   5.649   2.583 -0.0350  0.1814  0.6523
   58MOL   H26417478   1.103   5.839   3.079  0.0149  0.3383 -0.5377
   58MOL   H26517479   0.973   5.754   3.001  0.3850 -0.0770  3.0083
   58MOL   H26617480   1.294   5.906   2.851 -0.3324 -1.2346 -1.5520
   58MOL   H26717481   1.192   6.014   2.772  0.7536 -1.0604  0.3928
   58MOL   H26817482   1.190   6.004   2.950  1.0945  0.4274  0.6159
   58MOL   H26917483   1.188   5.564   2.574 -0.9726  0.9744  0.0523
   58MOL   H27017484   1.358   5.614   2.594  0.4411  1.7293  1.2313
   58MOL   H27117485   1.235   5.709   2.495 -0.0123 -0.2820  0.3317
   58MOL   C27217486   0.949   5.939   2.840  0.1862  0.4697  0.4404
   58MOL   C27317487   0.797   5.902   2.869 -0.3921 -0.4148 -0.1199
   58MOL   C27417488   0.752   5.773   2.801  0.5868 -0.1543  0.2313
   58MOL   C27517489   0.782   5.911   3.027  0.4116 -0.1259 -0.4020
   58MOL   O27617490   0.736   5.815   3.089 -0.0447  0.0375  0.0216
   58MOL   O27717491   0.834   6.024   3.085 -0.0184  0.2923 -0.5203
   58MOL   C27817492   0.837   6.044   3.225 -1.0373 -0.4615  0.4551
   58MOL   H27917493   0.950   5.968   2.735 -3.3789 -0.4100  0.0993
   58MOL   H28017494   0.973   6.034   2.887 -1.7807  0.6406  1.1414
   58MOL   H28117495   0.644   5.759   2.806  0.2822  1.9717 -0.0144
   58MOL   H28217496   0.761   5.781   2.693 -0.6250 -1.2301  0.0417
   58MOL   H28317497   0.806   5.684   2.835  3.1873  1.2376 -0.1360
   58MOL   H28417498   0.735   6.034   3.263 -1.3203 -2.5557 -0.7732
   58MOL   H28517499   0.859   6.148   3.251  0.7199 -0.9301  0.9055
   58MOL   H28617500   0.908   5.978   3.275 -0.1733 -0.3880 -0.6693
   58MOL   C28717501   0.696   6.013   2.813  0.1380 -0.9696  0.5856
   58MOL   C28817502   0.708   6.166   2.858 -0.0896 -0.1425 -0.3084
   58MOL   C28917503   0.706   6.255   2.727 -0.0468  0.0966 -0.1131
   58MOL   C29017504   0.602   6.206   2.958 -0.2170 -0.5678  0.2321
   58MOL   O29117505   0.628   6.294   3.046  0.3605 -0.3757  0.1309
   58MOL   O29217506   0.488   6.160   2.929  0.1218  0.2089 -0.0844
   58MOL   C29317507   0.379   6.222   3.000 -0.1354  0.3319 -0.2261
   58MOL   H29417508   0.595   5.974   2.805  0.0163 -0.3955 -0.9312
   58MOL   H29517509   0.726   6.015   2.708 -0.0243 -0.1553  0.5525
   58MOL   H29617510   0.701   6.358   2.762 -0.0692 -0.0270  0.2557
   58MOL   H29717511   0.793   6.239   2.664 -0.4845 -1.2820 -0.3950
   58MOL   H29817512   0.611   6.243   2.674  0.0208 -1.5325  0.0980
   58MOL   H29917513   0.371   6.328   2.975 -0.9684  0.6405  1.2589
   58MOL   H30017514   0.405   6.227   3.106  2.1848  3.9661 -0.8829
   58MOL   H30117515   0.293   6.158   2.976 -0.1707  0.3567 -0.1670
   58MOL   H30217516   0.808   6.176   2.900  0.0647  1.0365 -0.9482
   59MOL     C117517   1.846   0.359   2.761 -0.2750  0.3094 -0.3731
   59MOL     C217518   1.837   0.210   2.721  0.3479 -0.5100 -0.5837
   59MOL     C317519   1.891   0.226   2.578 -0.5000 -0.0341 -0.6239
   59MOL     C417520   1.935   0.130   2.803  0.2886  0.4332  0.6233
   59MOL     O517521   1.998   0.176   2.898 -0.2879  0.4109  0.0902
   59MOL     O617522   1.960   0.007   2.745  0.8042  0.3863 -0.8290
   59MOL     C717523   2.061   7.808   2.805  0.0340  0.7752 -0.0428
   59MOL     H817524   1.943   0.407   2.744 -0.5188  0.3402 -1.7336
   59MOL     H917525   1.773   0.421   2.709  0.6191  0.8026 -1.0651
   59MOL    H1017526   1.867   0.137   2.519 -0.7056 -1.6553  1.8503
   59MOL    H1117527   1.837   0.307   2.529  0.0820  0.6934 -0.0898
   59MOL    H1217528   1.998   0.248   2.568  0.0675 -2.0730  0.6980
   59MOL    H1317529   2.069   7.714   2.750  0.2104  0.4888  0.4580
   59MOL    H1417530   2.032   7.787   2.908  2.5114 -0.8412  0.3666
   59MOL    H1517531   2.151   7.867   2.790  0.7930 -0.7284 -1.6229
   59MOL    H1617532   1.820   0.368   2.866 -0.5106 -1.3319 -0.2852
   59MOL    C1717533   1.693   0.143   2.722 -1.4288 -0.0218 -0.0757
   59MOL    C1817534   1.600   0.158   2.849  0.2297 -0.4262 -0.8009
   59MOL    C1917535   1.670   0.116   2.982 -0.4890 -0.3621  0.1662
   59MOL    C2017536   1.537   0.296   2.865  1.1861  0.1834  0.3584
   59MOL    O2117537   1.560   0.382   2.783 -0.0400 -0.0785 -0.3398
   59MOL    O2217538   1.449   0.305   2.965  0.5883  0.0509 -0.8115
   59MOL    C2317539   1.371   0.426   2.980  0.8641 -0.3965 -0.5161
   59MOL    H2417540   1.714   0.041   2.691  2.2329  0.9375 -1.0175
   59MOL    H2517541   1.641   0.187   2.637 -2.1562 -0.7266  0.0093
   59MOL    H2617542   1.729   0.203   3.011  0.1238 -0.9390  0.6641
   59MOL    H2717543   1.608   0.089   3.067 -0.0750 -2.2431 -0.1206
   59MOL    H2817544   1.735   0.030   2.974  0.4234  0.2619  0.7400
   59MOL    H2917545   1.271   0.416   2.936  0.8124  0.2213 -0.5407
   59MOL    H3017546   1.418   0.512   2.932  0.7176 -0.9642 -1.6964
   59MOL    H3117547   1.353   0.449   3.085  0.9314 -0.8196 -0.4123
   59MOL    C3217548   1.489   0.051   2.849 -0.4937 -0.5011 -0.4200
   59MOL    C3317549   1.394   0.011   2.727  0.1560  0.0148 -0.6606
   59MOL    C3417550   1.340   0.141   2.667  0.4089  0.3016 -0.3830
   59MOL    C3517551   1.480   7.817   2.618  0.9221 -0.3805  0.2410
   59MOL    O3617552   1.458   7.845   2.497  0.1700 -0.5230 -0.7489
   59MOL    O3717553   1.558   7.715   2.658 -0.0527  0.5129 -0.0846
   59MOL    C3817554   1.645   7.656   2.561 -0.4873 -0.2617  0.1213
   59MOL    H3917555   1.426   0.066   2.936 -1.3744  0.1849 -1.1562
   59MOL    H4017556   1.543   7.837   2.872  0.0840  0.0532  0.4274
   59MOL    H4117557   1.421   0.202   2.626 -0.8157  1.5437 -1.0152
   59MOL    H4217558   1.273   0.126   2.581  1.0138  1.9144 -1.1519
   59MOL    H4317559   1.287   0.198   2.744  0.2922  0.4809 -0.5927
   59MOL    H4417560   1.738   7.614   2.599 -1.5726 -2.0146  0.8794
   59MOL    H4517561   1.687   7.737   2.502 -0.9074  0.6725  1.0892
   59MOL    H4617562   1.586   7.595   2.493  0.0739  3.3230 -3.7595
   59MOL    C4717563   1.289   7.790   2.798  0.5182  0.5271  0.3635
   59MOL    C4817564   1.160   7.731   2.734  0.7233  0.4624 -0.4960
   59MOL    C4917565   1.066   7.857   2.694 -0.4728  0.6089  0.2766
   59MOL    C5017566   1.203   7.649   2.601  0.6825  0.2133 -1.3580
   59MOL    O5117567   1.158   7.680   2.490 -0.3704 -0.1206 -0.9304
   59MOL    O5217568   1.287   7.548   2.624  0.2950 -0.1902 -0.6467
   59MOL    C5317569   1.343   7.472   2.516  0.2347 -0.2403  0.0395
   59MOL    H5417570   1.245   7.849   2.878 -1.6039 -1.4350  0.6872
   59MOL    H5517571   1.349   7.706   2.834  1.2925  1.4445  1.2613
   59MOL    H5617572   0.970   7.848   2.745 -0.5646  0.9358  0.1626
   59MOL    H5717573   1.106   0.073   2.735 -0.6429  0.8332 -0.0636
   59MOL    H5817574   1.058   0.007   2.589  0.7815 -0.8572 -0.2162
   59MOL    H5917575   1.387   7.546   2.449  3.1936  0.5009  2.7073
   59MOL    H6017576   1.268   7.421   2.456  0.6875 -0.5215 -0.2924
   59MOL    H6117577   1.430   7.414   2.546  0.4298  0.1625  0.2470
   59MOL    C6217578   1.085   7.646   2.844 -1.0622 -0.1008  0.5841
   59MOL    C6317579   0.980   7.538   2.801 -0.1093 -0.4455 -0.7886
   59MOL    C6417580   0.883   7.590   2.687 -0.3438  0.2899  0.1610
   59MOL    C6517581   1.048   7.404   2.759  0.5230  0.5173  0.4324
   59MOL    O6617582   1.136   7.356   2.833 -0.1390 -0.0302  0.0594
   59MOL    O6717583   1.017   7.357   2.644 -0.6251 -0.4511  0.2495
   59MOL    C6817584   1.085   7.236   2.600  0.4181  0.2342  0.1802
   59MOL    H6917585   1.032   7.714   2.910 -2.8702 -1.2185  0.3066
   59MOL    H7017586   1.164   7.606   2.907  0.3039  1.8132  0.1215
   59MOL    H7117587   0.823   7.678   2.706 -0.0125  1.0875 -2.2175
   59MOL    H7217588   0.950   7.605   2.602  3.0783 -1.0571  2.4909
   59MOL    H7317589   0.817   7.514   2.645  1.5442  0.2480 -2.9305
   59MOL    H7417590   1.191   7.256   2.618  0.4703  0.6589 -0.5608
   59MOL    H7517591   1.063   7.215   2.496  1.3360  1.3649 -0.2618
   59MOL    H7617592   1.049   7.149   2.655 -0.8212  0.2617 -0.5634
   59MOL    C7717593   0.898   7.521   2.938 -0.6867 -0.3146 -0.3443
   59MOL    C7817594   0.789   7.404   2.957 -0.1515 -0.7786 -0.2706
   59MOL    C7917595   0.711   7.377   2.829  0.0763 -0.7409 -0.3132
   59MOL    C8017596   0.864   7.272   3.007  0.8897  0.0534 -0.4668
   59MOL    O8117597   0.881   7.176   2.931  0.0595 -0.2516 -0.4512
   59MOL    O8217598   0.911   7.275   3.136  0.0603  0.5111  0.2897
   59MOL    C8317599   0.992   7.165   3.180  1.1469  0.5088 -0.5704
   59MOL    H8417600   0.843   7.610   2.969 -2.4690 -1.6364  0.3987
   59MOL    H8517601   0.969   7.512   3.020 -1.9392  0.1376  0.7983
   59MOL    H8617602   0.665   7.463   2.782 -0.8376 -1.8149 -1.4098
   59MOL    H8717603   0.765   7.322   2.752 -1.3461 -3.3302  0.4823
   59MOL    H8817604   0.634   7.305   2.858  0.5962 -0.6027  1.4924
   59MOL    H8917605   1.071   7.149   3.106  0.8454  1.2295 -1.0582
   59MOL    H9017606   0.929   7.076   3.181  1.5850  0.2084  0.9935
   59MOL    H9117607   1.043   7.180   3.274 -0.1637 -1.5925  0.5072
   59MOL    C9217608   0.694   7.457   3.078 -0.3180  0.4397 -0.0393
   59MOL    C9317609   0.571   7.556   3.059  0.6568 -0.8085 -0.8767
   59MOL    C9417610   0.605   7.684   2.985  0.1191 -0.4535 -0.9479
   59MOL    C9517611   0.464   7.477   2.975  0.1866  0.1178  0.5888
   59MOL    O9617612   0.400   7.529   2.886  0.6826 -0.0525 -0.6089
   59MOL    O9717613   0.438   7.353   3.023  0.0141  0.9432 -0.3534
   59MOL    C9817614   0.356   7.268   2.952  1.1279 -0.2563 -0.2082
   59MOL    H9917615   0.761   7.507   3.149  0.8293 -1.4870  0.2659
   59MOL   H10017616   0.653   7.371   3.130  0.7141 -0.5205 -0.7976
   59MOL   H10117617   0.521   7.749   2.961 -1.1136 -1.5320  0.3836
   59MOL   H10217618   0.685   7.744   3.029 -0.2620 -1.1896  0.7917
   59MOL   H10317619   0.644   7.656   2.887 -1.0350  0.2936 -1.6354
   59MOL   H10417620   0.380   7.268   2.846  0.0918 -0.9052 -0.4521
   59MOL   H10517621   0.251   7.284   2.978  0.8624 -1.3962 -0.5180
   59MOL   H10617622   0.365   7.165   2.988 -2.3287 -1.2801 -1.9558
   59MOL   C10717623   0.500   7.592   3.191 -0.3006  0.3973 -0.4197
   59MOL   C10817624   0.564   7.706   3.282 -0.9890  0.0033  0.2808
   59MOL   C10917625   0.513   7.849   3.242 -0.3008 -0.5881  0.2752
   59MOL   C11017626   0.493   7.668   3.414 -0.2087  0.1917  0.2417
   59MOL   O11117627   0.403   7.745   3.467 -0.5165  0.2675 -0.5534
   59MOL   O11217628   0.543   7.564   3.472  0.6169 -0.8849  0.1166
   59MOL   C11317629   0.528   7.555   3.611  0.3408  0.0204  0.2496
   59MOL   H11417630   0.497   7.494   3.239  0.8833  0.6195  0.1373
   59MOL   H11517631   0.397   7.621   3.174  0.5942  2.1267 -3.0573
   59MOL   H11617632   0.590   0.016   3.179 -1.2694  0.5970 -0.0739
   59MOL   H11717633   0.428   7.832   3.176  0.5844  0.5801 -1.2142
   59MOL   H11817634   0.489   0.040   3.323  0.9452 -0.8703  0.9004
   59MOL   H11917635   0.569   7.650   3.643 -2.4301  1.7718 -1.1625
   59MOL   H12017636   0.609   7.490   3.643  1.1020  0.2076 -1.2654
   59MOL   H12117637   0.435   7.527   3.660 -0.5217  0.4987 -1.0759
   59MOL   C12217638   0.720   7.705   3.304  0.4498  0.1909  0.3822
   59MOL   C12317639   0.800   7.784   3.418  0.2138 -0.6542 -0.0071
   59MOL   C12417640   0.720   0.028   3.472 -0.9018 -0.1736  0.0572
   59MOL   C12517641   0.837   7.696   3.540 -0.2418 -0.2873  0.2075
   59MOL   O12617642   0.831   7.572   3.537  0.2998 -0.2046  0.3783
   59MOL   O12717643   0.872   7.769   3.646 -0.0095 -0.2218 -0.3442
   59MOL   C12817644   0.901   7.695   3.766  0.1494 -0.6081 -0.6151
   59MOL   H12917645   0.759   7.729   3.205  0.1650 -0.5942  0.0785
   59MOL   H13017646   0.738   7.598   3.317 -0.8824 -0.0780  0.0973
   59MOL   H13117647   0.774   0.072   3.556  0.3705 -1.2661 -0.1643
   59MOL   H13217648   0.721   0.108   3.399  0.6045 -0.2941 -0.0696
   59MOL   H13317649   0.617   0.010   3.501 -0.2521 -2.3597  1.1640
   59MOL   H13417650   0.963   7.769   3.818 -1.4667  1.9961 -2.2569
   59MOL   H13517651   0.961   7.605   3.755 -0.7415 -1.2946  0.0748
   59MOL   H13617652   0.813   7.669   3.823 -0.5326  2.2567 -0.2799
   59MOL   C13717653   0.932   7.850   3.361  0.6188 -0.5371 -0.5868
   59MOL   C13817654   1.069   7.779   3.330  0.3029  0.1198 -0.5103
   59MOL   C13917655   1.041   7.636   3.286 -0.3093  0.5232  0.8534
   59MOL   C14017656   1.143   7.855   3.215 -1.0720 -0.1580 -0.3455
   59MOL   O14117657   1.203   7.794   3.126  0.2877 -0.1909 -0.0647
   59MOL   O14217658   1.135   0.107   3.226 -0.4613  0.6829 -0.0919
   59MOL   C14317659   1.227   0.181   3.153  0.3254  0.3456 -0.3955
   59MOL   H14417660   0.962   0.071   3.398 -0.6502 -0.2184 -0.3830
   59MOL   H14517661   0.907   0.004   3.260  0.9233  1.1814 -0.1493
   59MOL   H14617662   0.969   7.638   3.204 -0.1131 -1.8472  0.5937
   59MOL   H14717663   1.130   7.581   3.254 -0.7236  0.7776 -0.7920
   59MOL   H14817664   0.999   7.575   3.366  1.3834 -2.3273 -0.3627
   59MOL   H14917665   1.326   0.191   3.199  0.5869  0.1139 -0.9031
   59MOL   H15017666   1.173   0.276   3.157  0.9326  0.8832 -3.6126
   59MOL   H15117667   1.247   0.145   3.052 -0.1422  0.4153 -0.5146
   59MOL   C15217668   1.161   7.792   3.465  0.1858  0.2442  0.6501
   59MOL   C15317669   1.299   7.721   3.493 -0.4432 -0.4224  0.0752
   59MOL   C15417670   1.330   7.740   3.644 -0.5106 -0.0410  0.3245
   59MOL   C15517671   1.275   7.566   3.471  0.0640 -0.0415 -0.3956
   59MOL   O15617672   1.325   7.501   3.374 -0.0158  0.0772 -0.1047
   59MOL   O15717673   1.184   7.514   3.567  0.3361  0.6430  0.3590
   59MOL   C15817674   1.129   7.388   3.554  0.0268 -0.6237 -0.2912
   59MOL   H15917675   1.097   7.792   3.553 -1.9915 -1.3481 -0.8339
   59MOL   H16017676   1.185   0.020   3.473 -0.7302  0.3978  1.4665
   59MOL   H16117677   1.240   7.735   3.706 -1.3313 -0.1759 -0.8814
   59MOL   H16217678   1.389   7.659   3.688 -1.3958 -0.7952  0.1334
   59MOL   H16317679   1.382   7.832   3.672 -1.9965 -0.0267  3.3232
   59MOL   H16417680   1.195   7.302   3.541 -0.8026 -1.0775 -1.5673
   59MOL   H16517681   1.084   7.394   3.455  0.5897  1.8323 -0.4471
   59MOL   H16617682   1.046   7.371   3.622 -0.0570 -2.1753 -0.7765
   59MOL   C16717683   1.417   7.789   3.412 -0.8960 -0.2038 -0.7444
   59MOL   C16817684   1.566   7.730   3.415  0.1444  0.5377 -0.0186
   59MOL   C16917685   1.600   7.646   3.543 -0.5251  0.1015  0.6874
   59MOL   C17017686   1.579   7.634   3.298  0.1259 -0.6625  0.2311
   59MOL   O17117687   1.610   7.520   3.304 -0.4622 -0.4974 -0.0357
   59MOL   O17217688   1.562   7.693   3.173 -0.3045 -0.0504 -0.4608
   59MOL   C17317689   1.570   7.618   3.056 -0.3479 -0.2110 -0.0726
   59MOL   H17417690   1.411   0.011   3.454  2.1097 -0.1206 -0.4178
   59MOL   H17517691   1.391   7.812   3.308 -0.3715  1.3645 -0.5362
   59MOL   H17617692   1.544   7.556   3.568  1.1666 -0.3789  2.8302
   59MOL   H17717693   1.700   7.603   3.548  0.0050  1.4132  1.7894
   59MOL   H17817694   1.588   7.707   3.633  1.3357 -1.6266  2.1460
   59MOL   H17917695   1.650   7.652   2.991 -0.8726 -0.2335 -0.7265
   59MOL   H18017696   1.472   7.625   3.010 -0.2761  1.5362  0.0340
   59MOL   H18117697   1.579   7.512   3.083  1.4437 -0.3463 -1.1529
   59MOL   C18217698   1.650   7.863   3.398 -0.1919  0.6205 -0.2510
   59MOL   C18317699   1.811   7.861   3.405 -0.0019  0.5019 -0.0898
   59MOL   C18417700   1.854   7.850   3.552  0.1034 -0.1340  0.5248
   59MOL   C18517701   1.873   7.749   3.313  0.1324 -0.0588 -0.7616
   59MOL   O18617702   1.875   7.756   3.186  0.2422 -0.2050  0.0952
   59MOL   O18717703   1.911   7.636   3.377 -0.1333  0.3139 -0.5263
   59MOL   C18817704   1.952   7.522   3.302  0.2551 -0.3203 -0.2606
   59MOL   H18917705   1.627   0.053   3.481 -0.2620  0.0664  0.1822
   59MOL   H19017706   1.604   0.033   3.311 -3.0631  0.2557  0.9989
   59MOL   H19117707   1.845   0.072   3.594  0.5583  0.2071 -0.1926
   59MOL   H19217708   1.801   7.780   3.617 -0.2360 -1.4299 -1.1116
   59MOL   H19317709   1.958   7.821   3.563 -0.0597 -1.9499 -2.1565
   59MOL   H19417710   1.947   7.438   3.371  0.6759  0.1775  0.3950
   59MOL   H19517711   2.057   7.530   3.274  1.1491  0.1983  3.0043
   59MOL   H19617712   1.902   7.496   3.209  1.3846 -0.6306 -0.7908
   59MOL   C19717713   1.858   0.123   3.344 -0.2103  0.2236 -0.1806
   59MOL   C19817714   2.009   0.186   3.344  0.5324 -0.6294 -0.7537
   59MOL   C19917715   2.001   0.308   3.250 -0.7901 -0.8568 -0.0154
   59MOL   C20017716   2.059   0.243   3.485  0.4720 -1.0400  1.1324
   59MOL   O20117717   2.034   0.360   3.517  0.0803  0.5096  0.5729
   59MOL   O20217718   2.102   0.152   3.572  0.0667  0.0721  0.4384
   59MOL   C20317719   2.131   0.178   3.709 -0.5295 -0.2595 -0.0064
   59MOL   H20417720   1.804   0.196   3.404  0.5107  0.4366  0.2231
   59MOL   H20517721   1.825   0.129   3.240 -0.0239 -0.1670 -0.2655
   59MOL   H20617722   1.903   0.357   3.255 -0.2936  0.1478  0.0796
   59MOL   H20717723   2.081   0.379   3.268 -1.0016 -0.1608 -1.6966
   59MOL   H20817724   2.019   0.275   3.148 -0.0826 -3.6384  0.9775
   59MOL   H20917725   2.178   0.090   3.754 -1.0651  0.0091  1.0869
   59MOL   H21017726   2.041   0.210   3.760 -0.8423 -2.6353  1.0066
   59MOL   H21117727   2.191   0.269   3.717  0.1200 -0.6410 -0.4298
   59MOL   C21217728   2.110   0.080   3.289 -0.6737 -0.6335  0.0833
   59MOL   C21317729   2.270   0.100   3.251 -0.1736  0.2198 -0.1028
   59MOL   C21417730   2.289   0.221   3.157  0.4591 -0.1791 -0.0438
   59MOL   C21517731   2.355   0.118   3.381 -0.6847 -0.1453 -0.5417
   59MOL   O21617732   2.422   0.217   3.400  0.4451 -0.2141  0.6093
   59MOL   O21717733   2.344   0.017   3.472 -0.3206  0.2184  0.2572
   59MOL   C21817734   2.421   0.025   3.582  0.1346  0.1313  0.8063
   59MOL   H21917735   2.075   0.050   3.191  1.4441 -2.5602 -0.1269
   59MOL   H22017736   2.101   7.872   3.356  0.3213  1.2184  2.6902
   59MOL   H22117737   2.387   0.238   3.113 -0.3957  0.2723 -1.8532
   59MOL   H22217738   2.217   0.222   3.075 -1.3645 -0.0768  1.5122
   59MOL   H22317739   2.268   0.312   3.213 -0.4525 -1.1962  1.2985
   59MOL   H22417740   2.389   0.101   3.653  1.1334  0.7313  0.6233
   59MOL   H22517741   2.524   0.046   3.552  0.5153 -2.1624  0.4315
   59MOL   H22617742   2.412   7.805   3.628 -0.1139  0.7283  2.0398
   59MOL   C22717743   2.307   7.840   3.186 -0.5374 -0.0149  0.0686
   59MOL   C22817744   2.446   7.813   3.103 -0.3222 -0.0128 -0.7167
   59MOL   C22917745   2.554   7.876   3.187 -0.5604 -0.4095  0.0963
   59MOL   C23017746   2.470   7.660   3.102 -0.7276  0.0164  0.2506
   59MOL   O23117747   2.567   7.606   3.156  0.4991  0.2860  0.7504
   59MOL   O23217748   2.379   7.599   3.036 -0.1523  0.0748 -0.6623
   59MOL   C23317749   2.389   7.457   3.030 -0.2577 -0.2929 -0.6778
   59MOL   H23417750   2.225   7.810   3.121 -0.9814  2.6294 -0.6850
   59MOL   H23517751   2.319   7.765   3.263  0.2524 -2.1112 -2.0422
   59MOL   H23617752   2.539   7.844   3.291 -0.7243 -0.9995 -0.1078
   59MOL   H23717753   2.655   7.837   3.170 -0.7078  0.1407 -2.2078
   59MOL   H23817754   2.551   0.107   3.183  1.4768 -0.3652 -0.7708
   59MOL   H23917755   2.482   7.402   3.015  0.8055  0.7462  1.7541
   59MOL   H24017756   2.312   7.406   2.973 -0.4731  1.4289 -1.9666
   59MOL   H24117757   2.372   7.433   3.135  3.5007  0.2147  0.1165
   59MOL   C24217758   2.452   7.872   2.960 -0.3818  0.0828 -0.7140
   59MOL   C24317759   2.556   7.832   2.851 -0.0065  0.2017  0.6512
   59MOL   C24417760   2.697   7.833   2.916 -0.0523  0.1468 -0.6342
   59MOL   C24517761   2.515   7.697   2.796 -0.0612  0.0198  0.6856
   59MOL   O24617762   2.596   7.602   2.781  0.7704  0.1039 -0.4212
   59MOL   O24717763   2.384   7.695   2.758 -0.5119 -0.3062 -0.5444
   59MOL   C24817764   2.334   7.578   2.706  0.5649 -0.4821  0.4723
   59MOL   H24917765   2.459   0.100   2.984 -0.2230  0.1810 -1.1770
   59MOL   H25017766   2.348   7.875   2.929 -0.7644  0.3732  0.5643
   59MOL   H25117767   2.719   7.754   2.988  0.1836  1.7834  1.1267
   59MOL   H25217768   2.772   7.811   2.840 -0.6096  1.3564 -1.5523
   59MOL   H25317769   2.724   0.049   2.964  0.7312  0.9163 -2.5335
   59MOL   H25417770   2.245   7.614   2.654  0.8564  0.3082  0.5224
   59MOL   H25517771   2.289   7.520   2.787  1.0824 -1.3346  0.1599
   59MOL   H25617772   2.411   7.518   2.657  0.9773 -0.1337  0.6910
   59MOL   C25717773   2.539   0.059   2.732  0.5137 -0.5372 -0.8967
   59MOL   C25817774   2.612   0.065   2.592 -0.6008 -0.0108  0.1702
   59MOL   C25917775   2.627   7.805   2.518  0.2898  0.3011  0.5274
   59MOL   C26017776   2.510   0.146   2.501 -0.4161  0.4056 -0.7279
   59MOL   O26117777   2.433   0.090   2.423  0.3962 -0.6505  0.2215
   59MOL   O26217778   2.502   0.275   2.544 -0.6060  0.3972 -0.1694
   59MOL   C26317779   2.417   0.365   2.481 -0.4645  0.0101 -0.4664
   59MOL   H26417780   2.549   0.153   2.786 -1.9390 -1.7726  1.8704
   59MOL   H26517781   2.432   0.052   2.709 -0.1242 -0.3093  1.8405
   59MOL   H26617782   2.706   7.746   2.565  3.0275  0.8423 -3.1306
   59MOL   H26717783   2.538   7.743   2.507 -0.4207  1.4425 -0.2557
   59MOL   H26817784   2.653   7.816   2.412 -1.8941 -0.2156 -0.0776
   59MOL   H26917785   2.315   0.328   2.479 -0.0935 -1.0863  0.6083
   59MOL   H27017786   2.445   0.375   2.376 -0.0481 -1.8375 -0.5505
   59MOL   H27117787   2.433   0.460   2.532 -0.7831 -0.4546  0.4939
   59MOL   C27217788   2.749   0.130   2.604 -0.1395  0.0550  0.0765
   59MOL   C27317789   2.868   0.136   2.503 -0.0093  0.0622 -0.5619
   59MOL   C27417790   2.975   0.227   2.563 -0.2253  0.0892 -0.4266
   59MOL   C27517791   2.928   7.872   2.474  0.4386 -0.0834 -0.7348
   59MOL   O27617792   2.926   7.812   2.365  0.2041 -0.5355 -0.1137
   59MOL   O27717793   2.984   7.824   2.589  0.1664 -0.2339  0.1108
   59MOL   C27817794   3.045   7.699   2.599  0.2740  0.0595  0.4032
   59MOL   H27917795   2.791   0.078   2.691 -2.1815  1.3966  1.9277
   59MOL   H28017796   2.735   0.227   2.651  0.6995 -0.4677  1.4524
   59MOL   H28117797   3.075   0.223   2.520  0.3429 -0.1718  0.8894
   59MOL   H28217798   2.946   0.329   2.538 -0.1666  0.2391  0.1203
   59MOL   H28317799   2.986   0.224   2.671  3.4406  2.0657 -0.6820
   59MOL   H28417800   2.999   7.656   2.687 -0.9425 -1.4859 -0.9538
   59MOL   H28517801   3.152   7.698   2.623  0.1708  2.6385  1.1610
   59MOL   H28617802   3.034   7.641   2.507 -0.7810 -1.0697  1.2193
   59MOL   C28717803   2.822   0.197   2.363 -0.1303  0.3813  0.0241
   59MOL   C28817804   2.916   0.211   2.240 -1.0032  0.5413  0.3801
   59MOL   C28917805   2.845   0.222   2.106 -0.0115  0.6721  0.1229
   59MOL   C29017806   3.029   0.314   2.255  1.1948 -0.1169  0.4402
   59MOL   O29117807   3.143   0.284   2.224  0.6111  0.4263 -0.4787
   59MOL   O29217808   2.992   0.430   2.301  0.8767 -0.3986  0.8922
   59MOL   C29317809   3.081   0.534   2.302 -0.0450 -0.2669  0.3868
   59MOL   H29417810   2.760   0.287   2.370  1.1730  1.3892 -1.2463
   59MOL   H29517811   2.742   0.131   2.331  0.5859 -0.4542 -0.0546
   59MOL   H29617812   2.754   0.282   2.110  0.8815  1.9365  2.9944
   59MOL   H29717813   2.900   0.260   2.021  3.0504  3.0338  3.0389
   59MOL   H29817814   2.807   0.125   2.074  0.5072  1.3535 -2.6275
   59MOL   H29917815   3.066   0.583   2.205 -0.5542 -0.1044  0.5450
   59MOL   H30017816   3.188   0.514   2.306  0.0062  0.3282  2.0657
   59MOL   H30117817   3.056   0.608   2.378 -0.4023  1.7376 -1.6326
   59MOL   H30217818   2.972   0.118   2.235 -1.6848  0.2148 -1.4900
   60MOL     C117819   7.389   3.927   6.511 -0.7715  0.3712 -0.4866
   60MOL     C217820   7.276   4.019   6.555  0.3924 -0.0728 -0.2666
   60MOL     C317821   7.336   4.128   6.641  0.0839  0.4654 -0.3465
   60MOL     C417822   7.214   4.098   6.431 -0.0621  1.0817 -0.8148
   60MOL     O517823   7.248   4.068   6.318  0.1013 -0.4122  0.3027
   60MOL     O617824   7.142   4.206   6.457 -0.0803  0.3815  0.0973
   60MOL     C717825   7.114   4.292   6.350 -0.1496 -0.4455 -0.4583
   60MOL     H817826   7.467   3.978   6.456 -0.7057  1.1902  0.3537
   60MOL     H917827   7.443   3.890   6.599 -0.6819  2.9413  0.5792
   60MOL    H1017828   7.256   4.195   6.672  1.3465  2.1432 -0.6381
   60MOL    H1117829   7.365   4.079   6.734 -0.4485  2.0537  0.6864
   60MOL    H1217830   7.417   4.184   6.593  0.3327 -0.3088 -0.8342
   60MOL    H1317831   7.204   4.348   6.324 -0.1469 -0.0468  0.4020
   60MOL    H1417832   7.039   4.365   6.380 -0.0045  0.0472 -1.2664
   60MOL    H1517833   7.065   4.243   6.266 -3.2023  3.3261 -1.0114
   60MOL    H1617834   7.343   3.855   6.443  0.3341 -1.1714  0.3423
   60MOL    C1717835   7.169   3.944   6.648 -0.6758 -0.1379 -0.2752
   60MOL    C1817836   7.044   3.857   6.601 -0.3153  0.5352 -0.0538
   60MOL    C1917837   7.094   3.777   6.474  0.5313  0.2868  0.2218
   60MOL    C2017838   7.000   3.746   6.705  0.6158 -0.1104  0.2696
   60MOL    O2117839   7.040   3.754   6.822  0.4829  0.5438  0.3459
   60MOL    O2217840   6.919   3.647   6.663 -0.2479 -0.1501 -0.1032
   60MOL    C2317841   6.881   3.536   6.749  0.8858  0.4386  0.2749
   60MOL    H2417842   7.121   4.019   6.711 -0.1693  0.2104 -0.2953
   60MOL    H2517843   7.228   3.882   6.714  2.8760 -0.7641 -3.8019
   60MOL    H2617844   7.121   3.838   6.388 -0.8680 -2.7980 -2.5417
   60MOL    H2717845   7.184   3.720   6.496  0.5664  0.1944 -0.1608
   60MOL    H2817846   7.025   3.701   6.438  2.1564 -1.7020  1.2097
   60MOL    H2917847   6.977   3.501   6.786  1.3050  1.7584  0.4343
   60MOL    H3017848   6.828   3.457   6.695 -0.0971  1.2084  0.0888
   60MOL    H3117849   6.827   3.556   6.841  1.5112 -0.2587  0.8031
   60MOL    C3217850   6.919   3.945   6.563 -0.7069  0.9897 -0.3272
   60MOL    C3317851   6.805   4.016   6.648  0.1596 -0.2673 -0.2537
   60MOL    C3417852   6.723   3.918   6.737 -0.3897  0.3682  0.0122
   60MOL    C3517853   6.879   4.109   6.742  0.2558 -0.0065 -0.2787
   60MOL    O3617854   6.879   4.088   6.862 -0.5723 -0.5870 -0.3229
   60MOL    O3717855   6.936   4.217   6.685  0.1911  0.2206 -0.2283
   60MOL    C3817856   7.016   4.308   6.756  0.3347 -0.2614  0.1883
   60MOL    H3917857   6.868   3.886   6.486  1.1512  0.3747 -1.0982
   60MOL    H4017858   6.960   4.023   6.498 -1.9325  0.8776 -1.2681
   60MOL    H4117859   6.672   3.848   6.671 -2.0259  0.5330  1.0807
   60MOL    H4217860   6.787   3.861   6.804  1.0049  0.3950 -1.2658
   60MOL    H4317861   6.649   3.967   6.800  0.3848  1.4929  0.0561
   60MOL    H4417862   7.079   4.374   6.697  0.2720 -0.8868 -0.5898
   60MOL    H4517863   7.091   4.254   6.814  0.6869 -0.6250 -0.5863
   60MOL    H4617864   6.948   4.369   6.814 -0.7250  0.5565 -1.8550
   60MOL    C4717865   6.715   4.093   6.549 -0.5650 -0.5945  0.2352
   60MOL    C4817866   6.575   4.167   6.585  0.3125  0.4150  0.4798
   60MOL    C4917867   6.590   4.257   6.709  0.5203  0.0707  0.0528
   60MOL    C5017868   6.540   4.254   6.463 -0.0205  0.1950 -0.5838
   60MOL    O5117869   6.542   4.380   6.469  0.3992  0.1795 -0.1330
   60MOL    O5217870   6.508   4.185   6.360  0.4802 -0.1584  0.0904
   60MOL    C5317871   6.511   4.239   6.225  0.2530  0.2131 -0.0325
   60MOL    H5417872   6.689   4.028   6.465 -1.1082  2.5607 -2.1610
   60MOL    H5517873   6.769   4.181   6.512 -1.1364  0.8093  2.5980
   60MOL    H5617874   6.510   4.330   6.728  1.8773  1.4861  0.4089
   60MOL    H5717875   6.608   4.208   6.805  1.0362  0.2425  0.0441
   60MOL    H5817876   6.677   4.321   6.695  1.2818 -1.3830 -2.0282
   60MOL    H5917877   6.521   4.166   6.145 -0.6197  1.1051 -0.9590
   60MOL    H6017878   6.586   4.318   6.229  0.4450  0.0811 -1.0754
   60MOL    H6117879   6.425   4.305   6.217  0.5248  0.5882  0.1067
   60MOL    C6217880   6.462   4.053   6.606 -0.1142  0.3633 -0.1141
   60MOL    C6317881   6.309   4.074   6.643 -0.4389  0.1824  0.7212
   60MOL    C6417882   6.240   4.184   6.550  1.0307 -0.0271 -0.0796
   60MOL    C6517883   6.234   3.942   6.618  0.6116 -0.5037  0.1914
   60MOL    O6617884   6.124   3.936   6.561 -0.5597 -0.0133  0.0472
   60MOL    O6717885   6.291   3.832   6.671 -0.1893  0.2158 -0.1178
   60MOL    C6817886   6.237   3.707   6.653 -0.4401  1.2878  0.1989
   60MOL    H6917887   6.504   3.973   6.667 -0.1803  2.8395  3.2862
   60MOL    H7017888   6.457   4.000   6.510  2.6372 -0.9144  0.3998
   60MOL    H7117889   6.289   4.280   6.566 -0.5126  0.5814  1.1910
   60MOL    H7217890   6.266   4.155   6.448 -1.5800 -1.9320 -0.2605
   60MOL    H7317891   6.133   4.202   6.537  1.3936  0.5609 -2.4893
   60MOL    H7417892   6.303   3.639   6.706 -0.0073  1.5162 -0.0466
   60MOL    H7517893   6.231   3.689   6.545  1.0001 -0.1339  0.3356
   60MOL    H7617894   6.136   3.704   6.694  0.1179  0.4616  1.5356
   60MOL    C7717895   6.311   4.117   6.796 -0.1638 -0.6738  0.0824
   60MOL    C7817896   6.185   4.131   6.885 -0.4838  0.3860 -0.8603
   60MOL    C7917897   6.059   4.178   6.804  0.0852 -0.0735  0.3023
   60MOL    C8017898   6.150   3.991   6.942 -0.1298  0.0484  0.7150
   60MOL    O8117899   6.040   3.937   6.916 -0.0357 -0.2248 -0.5580
   60MOL    O8217900   6.246   3.934   7.014  0.6223  0.1170  0.3546
   60MOL    C8317901   6.221   3.807   7.078 -0.1862 -0.6551 -0.3391
   60MOL    H8417902   6.352   4.218   6.794  1.8750 -1.4903 -0.8663
   60MOL    H8517903   6.387   4.069   6.857 -1.6525 -0.9606  1.7261
   60MOL    H8617904   6.078   4.282   6.777  0.6890  0.0327  1.1544
   60MOL    H8717905   6.030   4.124   6.713  0.4404  3.1529 -1.8113
   60MOL    H8817906   5.972   4.185   6.869  1.1801  0.1539  1.7723
   60MOL    H8917907   6.197   3.730   7.005 -1.3097 -1.6806  1.0875
   60MOL    H9017908   6.138   3.817   7.149 -0.0126 -0.2782 -0.1845
   60MOL    H9117909   6.310   3.776   7.134  0.7112  2.1771 -0.1177
   60MOL    C9217910   6.212   4.237   7.001  0.3878  0.0849 -0.1638
   60MOL    C9317911   6.108   4.301   7.100  0.2103  0.5791  0.1997
   60MOL    C9417912   6.040   4.423   7.033  0.2486 -0.1525  0.0182
   60MOL    C9517913   6.000   4.197   7.150  0.0180  0.3208  0.2777
   60MOL    O9617914   5.878   4.206   7.122  0.1732  0.2778  0.1002
   60MOL    O9717915   6.059   4.104   7.230  0.0913  0.8531  0.1786
   60MOL    C9817916   5.984   4.000   7.291 -0.1831  0.2597  0.2696
   60MOL    H9917917   6.262   4.316   6.945  0.0714  0.4757  0.1021
   60MOL   H10017918   6.295   4.189   7.053  1.6239  0.6093 -1.5930
   60MOL   H10117919   5.978   4.405   6.945 -0.6687  2.4954  0.0774
   60MOL   H10217920   5.964   4.463   7.101  0.3305 -1.6200  0.9953
   60MOL   H10317921   6.110   4.505   7.017  0.0176  0.1490  0.5105
   60MOL   H10417922   5.913   4.050   7.356 -0.8441 -0.2462 -0.0569
   60MOL   H10517923   6.050   3.932   7.344 -0.5875 -0.5382 -0.2364
   60MOL   H10617924   5.929   3.941   7.217  0.2469 -0.3757  0.4511
   60MOL   C10717925   6.196   4.350   7.226 -0.0675  0.3924  0.3266
   60MOL   C10817926   6.131   4.400   7.362  0.4475 -0.1094 -0.3836
   60MOL   C10917927   5.995   4.478   7.342  0.3480 -0.2214 -0.2480
   60MOL   C11017928   6.101   4.278   7.454  0.8012 -0.1440  0.1223
   60MOL   O11117929   5.990   4.244   7.491 -1.0819  0.2342  0.3271
   60MOL   O11217930   6.214   4.194   7.466  0.1101 -0.0337  0.0846
   60MOL   C11317931   6.217   4.104   7.572 -0.1162  0.5386 -1.2492
   60MOL   H11417932   6.255   4.432   7.185 -2.4962  0.9877 -2.1793
   60MOL   H11517933   6.270   4.276   7.255 -0.0909 -0.3670 -1.4932
   60MOL   H11617934   6.002   4.566   7.277  2.0298 -1.9894 -2.5469
   60MOL   H11717935   5.923   4.414   7.291  1.4483 -2.2775  0.7593
   60MOL   H11817936   5.935   4.518   7.424  1.1893  2.1984 -0.7630
   60MOL   H11917937   6.143   4.030   7.544  1.3174 -1.7942  0.9252
   60MOL   H12017938   6.188   4.139   7.671 -1.2447 -0.4567 -1.2174
   60MOL   H12117939   6.317   4.060   7.574 -1.3539 -2.3204  0.8439
   60MOL   C12217940   6.239   4.488   7.430 -0.2295 -0.7443  0.3177
   60MOL   C12317941   6.220   4.590   7.550 -0.2603  0.6785  0.2204
   60MOL   C12417942   6.134   4.525   7.660  0.2750 -0.2122  0.9848
   60MOL   C12517943   6.361   4.621   7.607 -0.4223 -0.8313 -0.6425
   60MOL   O12617944   6.405   4.619   7.723  0.2046  0.3675  0.0424
   60MOL   O12717945   6.452   4.645   7.507 -0.5970  0.4249  0.1773
   60MOL   C12817946   6.584   4.704   7.538  0.4429  0.4501  0.6416
   60MOL   H12917947   6.289   4.546   7.352  2.3879 -0.0990  2.4038
   60MOL   H13017948   6.311   4.415   7.469 -0.0097 -0.9925 -0.5373
   60MOL   H13117949   6.168   4.425   7.687 -1.8698 -1.1574  0.2791
   60MOL   H13217950   6.153   4.572   7.757 -3.2817  0.5313  1.3862
   60MOL   H13317951   6.030   4.528   7.630  0.5290  1.2789  0.1910
   60MOL   H13417952   6.621   4.667   7.634 -1.9247  0.5161  1.6336
   60MOL   H13517953   6.573   4.809   7.563 -1.5882  0.7312 -1.2346
   60MOL   H13617954   6.663   4.677   7.469 -1.0151 -1.1278 -0.4655
   60MOL   C13717955   6.152   4.722   7.492  0.2293 -0.0653 -0.4384
   60MOL   C13817956   6.131   4.859   7.562  0.9186 -0.3748  0.1575
   60MOL   C13917957   6.022   4.936   7.482  0.0378 -0.2979  0.0924
   60MOL   C14017958   6.082   4.842   7.714 -0.6175 -0.1092  0.5081
   60MOL   O14117959   6.142   4.897   7.809 -0.2992 -0.2152 -0.7108
   60MOL   O14217960   5.971   4.782   7.729 -0.2080  0.4825 -0.0235
   60MOL   C14317961   5.932   4.740   7.862  0.0388  0.4495 -0.0192
   60MOL   H14417962   6.050   4.689   7.474 -0.0741  0.7841 -0.3077
   60MOL   H14517963   6.203   4.737   7.397  0.6782 -1.0755 -0.3582
   60MOL   H14617964   5.934   4.871   7.487 -1.8361  2.0399 -1.2493
   60MOL   H14717965   5.987   5.032   7.521 -1.8588 -2.0821  2.9889
   60MOL   H14817966   6.051   4.943   7.378 -0.9614 -2.6758 -0.3866
   60MOL   H14917967   6.008   4.693   0.047 -0.8017 -0.2541  0.4629
   60MOL   H15017968   5.845   4.675   7.864  0.1724  0.1159 -2.4499
   60MOL   H15117969   5.900   4.823   0.046 -3.8135  0.2188 -1.5542
   60MOL   C15217970   6.267   4.935   7.563  0.4355 -0.3487  0.0000
   60MOL   C15317971   6.286   5.091   7.562 -0.4596  0.1842 -0.4655
   60MOL   C15417972   6.232   5.151   7.424 -0.3814 -0.4702 -0.0072
   60MOL   C15517973   6.217   5.150   7.689 -0.0120  0.5179 -0.0587
   60MOL   O15617974   6.102   5.182   7.685 -0.1100  0.2230 -0.3153
   60MOL   O15717975   6.293   5.153   7.798  0.5734  0.3681 -0.0887
   60MOL   C15817976   6.222   5.198   0.032  0.1813  0.0287  0.9272
   60MOL   H15917977   6.322   4.898   7.476  2.2653  0.2473  0.8782
   60MOL   H16017978   6.325   4.901   7.648 -0.8267 -1.9250  0.2498
   60MOL   H16117979   6.262   5.082   7.345  1.7663 -0.0993  0.4585
   60MOL   H16217980   6.125   5.165   7.410 -0.7097 -0.1115  2.6239
   60MOL   H16317981   6.262   5.254   7.405  0.7531 -1.2027 -2.3527
   60MOL   H16417982   6.286   5.199   0.120  2.8615 -0.7333 -0.9761
   60MOL   H16517983   6.151   5.118   0.054 -0.4524  0.2455 -0.2975
   60MOL   H16617984   6.163   5.287   0.012  0.7254  0.0897 -0.4245
   60MOL   C16717985   6.443   5.112   7.586 -0.6289  0.1675 -0.3392
   60MOL   C16817986   6.524   5.242   7.570 -0.3310 -0.1223  0.4902
   60MOL   C16917987   6.644   5.228   7.670 -0.0776  0.1091 -0.6223
   60MOL   C17017988   6.576   5.252   7.422 -0.2555 -0.0110 -0.4705
   60MOL   O17117989   6.493   5.253   7.326 -0.0959  0.1896 -0.5911
   60MOL   O17217990   6.707   5.275   7.413  0.0178  0.0597  1.1200
   60MOL   C17317991   6.755   5.316   7.289  0.1414  0.1158  0.6700
   60MOL   H17417992   6.489   5.047   7.511 -1.4355 -1.0667  0.2269
   60MOL   H17517993   6.476   5.055   7.672  4.3681  1.9288 -0.9404
   60MOL   H17617994   6.613   5.236   7.774  2.0788  0.8394 -0.0155
   60MOL   H17717995   6.688   5.129   7.659 -1.0398 -0.5042  0.7486
   60MOL   H17817996   6.711   5.312   7.657  1.7346 -1.0817  0.8008
   60MOL   H17917997   6.688   5.387   7.242  1.5129  0.9379 -0.0576
   60MOL   H18017998   6.778   5.235   7.220 -1.9975  0.4370 -0.4518
   60MOL   H18117999   6.844   5.375   7.314  0.4417 -0.9862  2.2962
   60MOL   C18218000   6.442   5.374   7.618 -0.1560  0.4698 -0.1424
   60MOL   C18318001   6.469   5.520   7.579  0.1826  0.3208  0.2332
   60MOL   C18418002   6.624   5.548   7.592  0.4772  0.0827  0.2418
   60MOL   C18518003   6.433   5.548   7.425  0.1438 -0.0709 -0.4294
   60MOL   O18618004   6.493   5.623   7.348  0.5668  0.2755  0.2030
   60MOL   O18718005   6.315   5.495   7.393 -0.3364 -0.3875  0.5623
   60MOL   C18818006   6.258   5.506   7.264 -0.2357 -0.2758  0.5574
   60MOL   H18918007   6.449   5.371   7.727  1.2317  1.0156 -0.1962
   60MOL   H19018008   6.336   5.352   7.607 -0.5051  1.2483  1.5372
   60MOL   H19118009   6.657   5.650   7.574  0.7099 -0.1386 -0.5756
   60MOL   H19218010   6.653   5.528   7.695 -1.7183  1.4602  1.1686
   60MOL   H19318011   6.675   5.480   7.524  0.0791 -0.6681  0.6847
   60MOL   H19418012   6.152   5.483   7.254  0.1346 -2.2594  1.0522
   60MOL   H19518013   6.301   5.435   7.194 -1.3381 -0.8358  0.4328
   60MOL   H19618014   6.266   5.609   7.230 -0.9942 -0.1544  0.7285
   60MOL   C19718015   6.386   5.617   7.680  0.0438 -0.6457 -0.3674
   60MOL   C19818016   6.351   5.766   7.656 -0.1688 -0.5775 -0.0808
   60MOL   C19918017   6.481   5.845   7.625  0.4910 -0.0127 -0.0360
   60MOL   C20018018   6.252   5.788   7.533 -0.2777  0.6064 -0.1141
   60MOL   O20118019   6.273   5.883   7.454 -0.6808 -0.3673 -0.4491
   60MOL   O20218020   6.150   5.701   7.534  0.6007  0.1568  0.3521
   60MOL   C20318021   6.062   5.716   7.423  0.3891 -0.1420 -0.2305
   60MOL   H20418022   6.437   5.619   7.776  0.1703 -1.9675 -0.4022
   60MOL   H20518023   6.288   5.571   7.696  0.6921 -2.9348 -2.7649
   60MOL   H20618024   6.465   5.950   7.601  3.0536  0.6988  1.2080
   60MOL   H20718025   6.554   5.850   7.706  0.9956 -1.6984 -0.3739
   60MOL   H20818026   6.533   5.812   7.535  0.2400 -2.5998  0.7364
   60MOL   H20918027   6.013   5.621   7.402  0.3482  0.1433 -1.5055
   60MOL   H21018028   6.120   5.740   7.334  1.4036  2.2558  1.0476
   60MOL   H21118029   5.987   5.792   7.447 -0.3285 -0.7355 -0.5554
   60MOL   C21218030   6.285   5.816   7.790 -0.0464  0.0362  0.1982
   60MOL   C21318031   6.211   5.956   7.803  0.3763 -0.1455 -0.0966
   60MOL   C21418032   6.292   6.077   7.749 -0.0450 -0.4501  0.3294
   60MOL   C21518033   6.071   5.960   7.737 -0.3947  0.5972 -0.5026
   60MOL   O21618034   6.035   6.044   7.656  0.2449  0.3154 -0.1513
   60MOL   O21718035   5.988   5.861   7.787  0.1638 -0.3430  0.0342
   60MOL   C21818036   5.855   5.869   7.748  0.0111 -0.3125  0.0790
   60MOL   H21918037   6.368   5.808   7.860 -0.1986 -0.5027  0.3151
   60MOL   H22018038   6.223   5.736   7.828  0.2765 -0.4296 -0.2519
   60MOL   H22118039   6.396   6.059   7.779  0.1685  0.4255  0.1256
   60MOL   H22218040   6.307   6.094   7.642 -2.8763  0.8739  0.1008
   60MOL   H22318041   6.255   6.177   7.772 -0.3726 -0.3217 -0.7268
   60MOL   H22418042   5.812   5.959   7.792 -3.3508 -1.2732 -1.0693
   60MOL   H22518043   5.805   5.775   7.773 -1.2588 -0.9216 -4.3286
   60MOL   H22618044   5.848   5.867   7.639 -0.7462 -1.8774  0.1351
   60MOL   C22718045   6.199   5.973   0.087 -0.0799 -0.3158 -0.0461
   60MOL   C22818046   6.171   6.108   0.161  0.5841 -0.1423  0.3397
   60MOL   C22918047   6.310   6.173   0.192 -0.0069  0.2560 -0.1568
   60MOL   C23018048   6.075   6.201   0.082  0.0682  0.3074 -0.4578
   60MOL   O23118049   6.106   6.317   0.057  0.9209  0.1545  0.1841
   60MOL   O23218050   5.952   6.145   0.062 -0.5680  0.3181  0.1630
   60MOL   C23318051   5.843   6.213   0.006  0.1458 -0.2554  0.6566
   60MOL   H23418052   6.289   5.939   0.139  0.3173  0.4835 -0.1987
   60MOL   H23518053   6.121   5.905   0.120 -1.3124  0.3441 -1.5215
   60MOL   H23618054   6.377   6.127   0.264  0.0973  0.6073 -0.0303
   60MOL   H23718055   6.368   6.208   0.106 -2.0134  2.9832 -0.4789
   60MOL   H23818056   6.291   6.272   0.232 -0.3190 -0.3054  1.1029
   60MOL   H23918057   5.751   6.161   0.031  0.3613 -1.2719 -0.6379
   60MOL   H24018058   5.851   6.213   7.775  1.2749  0.7226  0.7267
   60MOL   H24118059   5.842   6.316   0.044 -0.5222 -0.1809  0.4533
   60MOL   C24218060   6.100   6.077   0.299 -0.4109 -0.7112 -0.1586
   60MOL   C24318061   6.080   6.174   0.418 -0.0920 -0.1242 -1.0879
   60MOL   C24418062   6.202   6.196   0.501 -0.3672 -0.3669  0.2045
   60MOL   C24518063   6.044   6.322   0.371 -0.2130  0.3136 -0.0437
   60MOL   O24618064   6.124   6.415   0.374  0.3369  0.0726 -0.1400
   60MOL   O24718065   5.920   6.331   0.327  0.3995  0.2129  0.1838
   60MOL   C24818066   5.860   6.452   0.278  0.3956  0.3530  0.3512
   60MOL   H24918067   6.159   6.002   0.352 -0.2435 -0.0867  0.5462
   60MOL   H25018068   6.005   6.031   0.272 -0.6632 -0.1031 -0.3076
   60MOL   H25118069   6.191   6.274   0.576 -3.5341 -0.1657 -0.4042
   60MOL   H25218070   6.233   6.115   0.567 -0.7999  1.0073  2.1424
   60MOL   H25318071   6.282   6.222   0.431  1.4353 -1.0641  1.9509
   60MOL   H25418072   5.877   6.520   0.361  1.4439  1.3243 -0.6434
   60MOL   H25518073   5.752   6.437   0.271  0.6997 -1.4131 -1.0776
   60MOL   H25618074   5.901   6.505   0.192  1.6252 -0.1675  0.6134
   60MOL   C25718075   5.969   6.112   0.501  0.4029 -0.3715  0.0830
   60MOL   C25818076   5.904   6.172   0.643 -0.1684 -0.1115 -0.0622
   60MOL   C25918077   5.888   6.326   0.626  0.2362  0.3428 -0.1667
   60MOL   C26018078   5.765   6.103   0.670  0.5849 -0.4674  0.1799
   60MOL   O26118079   5.735   5.991   0.623 -0.3593  0.0576 -0.2540
   60MOL   O26218080   5.692   6.173   0.753  0.4751  0.1721  0.0657
   60MOL   C26318081   5.579   6.116   0.817 -0.5507 -0.2368  0.2487
   60MOL   H26418082   5.986   6.005   0.509 -0.5259 -0.5127  0.2947
   60MOL   H26518083   5.883   6.117   0.434 -0.4893 -2.4993  1.0340
   60MOL   H26618084   5.977   6.386   0.604  0.9839 -0.2449  1.2160
   60MOL   H26718085   5.815   6.352   0.549 -1.3628 -0.6652  0.9909
   60MOL   H26818086   5.866   6.393   0.709  1.9936 -0.4431  0.9628
   60MOL   H26918087   5.528   6.037   0.761  1.1677 -2.4805  1.7640
   60MOL   H27018088   5.502   6.192   0.829 -0.4002  0.1144 -0.9618
   60MOL   H27118089   5.599   6.077   0.916 -0.3763 -1.3953 -0.2366
   60MOL   C27218090   6.013   6.129   0.761  0.5185 -0.5321  0.7261
   60MOL   C27318091   5.978   6.149   0.916  0.2372 -0.0039 -0.1796
   60MOL   C27418092   5.929   6.293   0.948 -0.5252 -0.1066 -0.6353
   60MOL   C27518093   5.875   6.046   0.968 -0.5379 -0.2845  0.2007
   60MOL   O27618094   5.814   6.065   1.075 -0.3805  0.5103 -0.6345
   60MOL   O27718095   5.870   5.927   0.893 -0.3364 -0.3759 -0.2444
   60MOL   C27818096   5.792   5.819   0.937 -0.9777  0.1638 -0.5017
   60MOL   H27918097   6.099   6.192   0.739  1.0044 -1.4160  0.0572
   60MOL   H28018098   6.062   6.036   0.734  2.1966  0.2937  0.8517
   60MOL   H28118099   5.926   6.316   1.055 -0.7897 -0.7783 -0.5004
   60MOL   H28218100   6.001   6.361   0.901 -0.6303 -0.7855 -1.7799
   60MOL   H28318101   5.830   6.317   0.910 -1.6278 -1.8078  1.1537
   60MOL   H28418102   5.811   5.806   1.044  0.6503  1.3693 -0.6356
   60MOL   H28518103   5.823   5.725   0.890 -0.9650 -0.4015  0.6113
   60MOL   H28618104   5.685   5.832   0.917 -1.3249  0.8240  1.6610
   60MOL   C28718105   6.111   6.134   1.001 -0.5673  0.2420  0.5051
   60MOL   C28818106   6.179   5.994   0.976 -0.2832  0.3566 -0.3876
   60MOL   C28918107   6.297   5.987   0.875  0.6367  0.3011 -0.3127
   60MOL   C29018108   6.221   5.925   1.108 -0.1697  0.3144 -0.7227
   60MOL   O29118109   6.242   5.997   1.207  0.0270 -0.4407  0.1127
   60MOL   O29218110   6.238   5.784   1.095 -0.0297 -0.2492 -0.3166
   60MOL   C29318111   6.250   5.706   1.221 -0.7789  0.0774 -1.2799
   60MOL   H29418112   6.084   6.154   1.104 -0.4107  0.3849  0.5201
   60MOL   H29518113   6.184   6.210   0.972 -0.5414  0.2712  0.6536
   60MOL   H29618114   6.334   5.885   0.870 -0.3853 -0.0408 -1.0998
   60MOL   H29718115   6.283   6.019   0.771  3.3903  2.4895 -0.0588
   60MOL   H29818116   6.379   6.046   0.917  1.0544 -0.6623  0.2253
   60MOL   H29918117   6.262   5.599   1.208 -0.1853  0.0884 -0.8556
   60MOL   H30018118   6.155   5.732   1.268 -0.2075 -0.8364  0.4327
   60MOL   H30118119   6.313   5.741   1.303 -3.1457 -0.6036  0.9364
   60MOL   H30218120   6.109   5.920   0.937  1.0198 -1.5259  0.7302
   61MOL     C118121   0.384   3.821   2.237  0.3604 -0.0455 -0.0330
   61MOL     C218122   0.529   3.867   2.211  0.6728  0.3112 -0.0780
   61MOL     C318123   0.612   3.749   2.216  0.1368 -0.1873 -0.5950
   61MOL     C418124   0.524   3.939   2.078 -0.4038  0.0700  0.6468
   61MOL     O518125   0.471   4.050   2.072  0.4837 -0.5552 -0.1810
   61MOL     O618126   0.570   3.863   1.973 -0.2411  0.1666  0.1265
   61MOL     C718127   0.571   3.917   1.851  0.0492  0.3508  0.5670
   61MOL     H818128   0.330   3.910   2.271  1.7166 -0.1019  2.3927
   61MOL     H918129   0.343   3.784   2.143  2.4081 -0.2254 -0.8869
   61MOL    H1018130   0.707   3.764   2.165 -0.5412  1.7650 -1.3409
   61MOL    H1118131   0.635   3.721   2.319 -1.8747 -0.3488 -0.1501
   61MOL    H1218132   0.583   3.669   2.148 -1.2787  1.3896 -1.9229
   61MOL    H1318133   0.574   3.830   1.785  0.5458  2.0377 -1.6654
   61MOL    H1418134   0.665   3.971   1.838 -1.1680  2.2430 -0.4735
   61MOL    H1518135   0.480   3.969   1.821 -1.8075 -2.8310  0.3624
   61MOL    H1618136   0.377   3.744   2.313  0.4610  0.2174  0.2473
   61MOL    C1718137   0.570   3.969   2.327 -0.8403  0.3691  0.4139
   61MOL    C1818138   0.718   4.025   2.343 -0.1227  0.4122  0.4859
   61MOL    C1918139   0.702   4.148   2.441 -0.1141 -0.0523  0.6216
   61MOL    C2018140   0.803   3.915   2.418 -0.0957 -0.1816 -0.7202
   61MOL    O2118141   0.882   3.844   2.356 -0.1048  0.5957 -0.3114
   61MOL    O2218142   0.779   3.903   2.554 -0.3946  0.3699 -0.4949
   61MOL    C2318143   0.851   3.797   2.627 -0.9221  0.4852 -0.1226
   61MOL    H2418144   0.547   3.920   2.421  1.3223 -0.0531  0.7518
   61MOL    H2518145   0.504   4.056   2.327 -1.8400 -0.2926 -3.1223
   61MOL    H2618146   0.800   4.178   2.478 -1.0065  0.8428  2.3210
   61MOL    H2718147   0.662   4.233   2.386 -1.5687 -1.9243 -1.2736
   61MOL    H2818148   0.652   4.127   2.536  1.0326 -1.1653  1.0036
   61MOL    H2918149   0.945   3.841   2.662 -1.2815 -0.5170  2.1662
   61MOL    H3018150   0.862   3.709   2.564 -2.2697  0.9851 -1.0750
   61MOL    H3118151   0.786   3.768   2.710 -2.5732 -0.5472 -1.7483
   61MOL    C3218152   0.782   4.065   2.211 -0.8465  0.2371  0.4403
   61MOL    C3318153   0.908   4.163   2.180 -0.7422  0.5707  0.1589
   61MOL    C3418154   0.866   4.307   2.226  0.0513  0.1590  0.1724
   61MOL    C3518155   1.039   4.116   2.255  0.6153  0.3826 -0.0665
   61MOL    O3618156   1.091   4.183   2.343 -0.2623 -0.0975 -0.2592
   61MOL    O3718157   1.086   3.999   2.206  0.0139  0.4299  0.9988
   61MOL    C3818158   1.181   3.925   2.281 -1.1440 -0.4538  0.4597
   61MOL    H3918159   0.701   4.122   2.165 -0.6885  1.0284  1.1362
   61MOL    H4018160   0.791   3.971   2.156 -3.4841 -0.0675  0.4550
   61MOL    H4118161   0.771   4.348   2.192  0.1535  0.5544  0.3639
   61MOL    H4218162   0.855   4.305   2.334 -0.9651 -0.6406  0.0599
   61MOL    H4318163   0.945   4.382   2.220 -0.5042  0.7934  0.7339
   61MOL    H4418164   1.277   3.976   2.281  0.4016 -3.2381  1.7672
   61MOL    H4518165   1.189   3.827   2.233  1.0464  0.0007 -0.1160
   61MOL    H4618166   1.145   3.918   2.384  0.0489  0.3306  0.9403
   61MOL    C4718167   0.925   4.156   2.019  0.5017  0.6795 -0.3431
   61MOL    C4818168   0.999   4.258   1.930 -0.3975  0.2952 -0.2693
   61MOL    C4918169   0.995   4.203   1.789 -0.0517 -0.5585  0.4582
   61MOL    C5018170   0.926   4.397   1.931  0.2462 -0.1832  0.1185
   61MOL    O5118171   0.973   4.498   1.978 -0.2572  0.3763 -0.5181
   61MOL    O5218172   0.805   4.381   1.875  0.0884 -0.3452 -0.2456
   61MOL    C5318173   0.733   4.503   1.855  0.3147  0.1757  0.1736
   61MOL    H5418174   0.828   4.148   1.970 -0.2743  1.5052  1.0316
   61MOL    H5518175   0.964   4.059   1.989 -0.0007  0.3059  0.1976
   61MOL    H5618176   1.020   4.270   1.706 -2.8699  0.7545  0.6314
   61MOL    H5718177   1.039   4.103   1.790 -0.6201 -0.7967  1.5571
   61MOL    H5818178   0.897   4.173   1.751 -0.0417 -0.7595  0.5926
   61MOL    H5918179   0.776   4.559   1.772 -1.8176  1.3453 -0.1750
   61MOL    H6018180   0.706   4.559   1.944 -2.1405 -2.2288  1.0097
   61MOL    H6118181   0.633   4.468   1.830 -0.2830  2.2385 -0.4105
   61MOL    C6218182   1.150   4.272   1.982 -0.4071 -0.0481 -0.6333
   61MOL    C6318183   1.276   4.323   1.896  0.6908 -0.1732  0.2452
   61MOL    C6418184   1.399   4.311   1.990  0.9813 -0.3418  0.7473
   61MOL    C6518185   1.286   4.234   1.774 -0.1190 -0.7736 -0.3478
   61MOL    O6618186   1.256   4.264   1.661  0.2861 -0.1497  0.0578
   61MOL    O6718187   1.338   4.123   1.808  0.1473  0.2183  0.2086
   61MOL    C6818188   1.333   4.013   1.718 -0.1221  0.1001  0.2116
   61MOL    H6918189   1.183   4.172   2.012  0.3931  0.7442  1.1332
   61MOL    H7018190   1.158   4.320   2.079 -3.4764 -1.6420  0.4701
   61MOL    H7118191   1.488   4.344   1.937  0.3424 -1.3221 -0.9956
   61MOL    H7218192   1.389   4.377   2.076  2.9893 -0.9786  1.4979
   61MOL    H7318193   1.419   4.212   2.031 -0.0695 -0.1733  1.6869
   61MOL    H7418194   1.240   4.018   1.661 -0.5210  0.6475  0.9051
   61MOL    H7518195   1.337   3.915   1.765 -0.9939  1.0864  2.4255
   61MOL    H7618196   1.403   4.030   1.636 -0.7079  0.5091 -0.2033
   61MOL    C7718197   1.252   4.476   1.857 -0.3382 -0.1306 -0.2771
   61MOL    C7818198   1.371   4.575   1.806  0.5760 -0.6522  0.0567
   61MOL    C7918199   1.466   4.613   1.924  0.2764  1.0173 -0.6089
   61MOL    C8018200   1.470   4.519   1.700  0.5781 -0.4410 -0.3670
   61MOL    O8118201   1.594   4.501   1.718  0.5310  0.2158 -0.1572
   61MOL    O8218202   1.408   4.490   1.585  0.1237 -0.1101 -0.3045
   61MOL    C8318203   1.473   4.440   1.471  0.0919 -0.1180 -0.7202
   61MOL    H8418204   1.210   4.527   1.944 -0.0727  0.0940 -0.2792
   61MOL    H8518205   1.175   4.487   1.781 -1.7459  2.0609  1.4128
   61MOL    H8618206   1.501   4.716   1.916  2.2773  0.2459 -2.3647
   61MOL    H8718207   1.414   4.615   2.020 -1.0919 -0.9258 -1.2918
   61MOL    H8818208   1.562   4.563   1.935 -1.3365 -2.0274  0.0960
   61MOL    H8918209   1.548   4.515   1.447  1.3783 -1.0814  0.2153
   61MOL    H9018210   1.408   4.424   1.385  1.8636  0.7191 -2.2342
   61MOL    H9118211   1.513   4.346   1.510 -1.0423 -0.5628 -0.6121
   61MOL    C9218212   1.312   4.705   1.740  0.2339 -0.6538 -0.3271
   61MOL    C9318213   1.230   4.817   1.819  0.8746 -0.4667  0.0721
   61MOL    C9418214   1.204   4.789   1.968  0.8629  0.1301 -0.5055
   61MOL    C9518215   1.315   4.949   1.809 -0.3368 -0.0647  0.2225
   61MOL    O9618216   1.337   5.016   1.910 -0.1870  0.3197  0.8988
   61MOL    O9718217   1.341   4.976   1.683  0.1516  0.2774 -0.4160
   61MOL    C9818218   1.387   5.110   1.650  0.2897  1.1882  0.0036
   61MOL    H9918219   1.247   4.667   1.662  0.9389 -2.1769 -0.1901
   61MOL   H10018220   1.379   4.749   1.666 -1.9873 -2.0515 -3.2408
   61MOL   H10118221   1.134   4.709   1.992 -0.1601  0.7637 -1.3565
   61MOL   H10218222   1.291   4.774   2.032  2.3379  1.4414 -2.1335
   61MOL   H10318223   1.163   4.885   2.000 -0.6371 -0.3564 -0.9376
   61MOL   H10418224   1.432   5.111   1.551 -0.5636 -0.0852 -0.4007
   61MOL   H10518225   1.470   5.137   1.715  1.9468  1.2859 -2.1285
   61MOL   H10618226   1.305   5.182   1.652 -2.3151 -1.6252 -1.1524
   61MOL   C10718227   1.092   4.822   1.735  0.0506  0.2686 -0.9506
   61MOL   C10818228   0.961   4.908   1.779 -0.2339 -0.3355 -0.0099
   61MOL   C10918229   0.897   4.858   1.914  0.5087 -0.1178  0.5662
   61MOL   C11018230   0.996   5.063   1.797  0.4500  0.1805 -0.1459
   61MOL   O11118231   0.977   5.142   1.703  0.3173  0.0992  0.3680
   61MOL   O11218232   1.043   5.102   1.916  0.3483  0.3395  0.3347
   61MOL   C11318233   1.081   5.237   1.935  0.1975 -0.2277  0.2603
   61MOL   H11418234   1.046   4.723   1.739 -2.2420  1.3378 -0.2177
   61MOL   H11518235   1.119   4.849   1.633  0.7373  1.0669 -0.5635
   61MOL   H11618236   0.948   4.877   2.008 -1.1867  0.9639  1.2920
   61MOL   H11718237   0.801   4.910   1.920 -0.0538 -1.2707  1.7168
   61MOL   H11818238   0.877   4.751   1.908  1.9140 -0.4286  1.1589
   61MOL   H11918239   1.141   5.235   2.026 -1.6465  1.7881  1.5739
   61MOL   H12018240   0.993   5.300   1.943 -0.9663 -1.7790 -0.2186
   61MOL   H12118241   1.145   5.271   1.853 -0.1006 -0.4689 -0.0740
   61MOL   C12218242   0.841   4.881   1.677  0.4242 -0.3854  0.2997
   61MOL   C12318243   0.848   4.865   1.520 -0.4335  0.2945 -0.0767
   61MOL   C12418244   0.896   4.990   1.449  0.0623  0.9761 -0.3619
   61MOL   C12518245   0.946   4.746   1.489  0.4514 -0.2438 -0.2934
   61MOL   O12618246   1.057   4.760   1.436  0.5141  0.6539  0.1988
   61MOL   O12718247   0.902   4.631   1.539 -0.2669  0.0761  0.2038
   61MOL   C12818248   0.986   4.520   1.527  0.4450  0.0101  0.1038
   61MOL   H12918249   0.761   4.954   1.691  0.3111 -0.3402 -0.5789
   61MOL   H13018250   0.783   4.801   1.723  1.0421  1.4577  4.5585
   61MOL   H13118251   0.914   4.969   1.343  1.3713 -1.3158  0.2666
   61MOL   H13218252   0.839   5.078   1.479  0.2089  1.4947 -1.5932
   61MOL   H13318253   0.996   5.018   1.482  0.5172 -1.6456  0.5916
   61MOL   H13418254   1.084   4.529   1.573  0.0931 -1.3272  1.1298
   61MOL   H13518255   0.992   4.504   1.419 -0.9165  0.1246  0.0017
   61MOL   H13618256   0.939   4.431   1.568  1.9978 -1.8030 -1.9269
   61MOL   C13718257   0.701   4.832   1.464 -0.5126  0.0187  1.4777
   61MOL   C13818258   0.657   4.851   1.314 -0.1092 -0.2310 -0.3964
   61MOL   C13918259   0.525   4.775   1.311 -0.3098  0.6235 -0.4930
   61MOL   C14018260   0.633   5.010   1.297 -0.7291  0.4002 -0.6985
   61MOL   O14118261   0.692   5.086   1.217 -0.3728  0.5637  0.7888
   61MOL   O14218262   0.537   5.057   1.378 -0.3273  0.5482 -0.0900
   61MOL   C14318263   0.539   5.187   1.416 -0.0979  0.6092 -0.2193
   61MOL   H14418264   0.631   4.883   1.531  0.4483  0.6637  1.9918
   61MOL   H14518265   0.682   4.728   1.491 -1.2243 -0.6215 -1.3656
   61MOL   H14618266   0.448   4.797   1.237  1.6823  0.3886 -2.6984
   61MOL   H14718267   0.538   4.667   1.307 -0.1477  0.7005 -3.3510
   61MOL   H14818268   0.471   4.800   1.402  1.1453  1.5706  0.1281
   61MOL   H14918269   0.453   5.186   1.482  1.0977  0.4030  1.3443
   61MOL   H15018270   0.517   5.250   1.329  0.7816  2.0716  0.5982
   61MOL   H15118271   0.633   5.222   1.460  0.4336  0.2629 -1.0624
   61MOL   C15218272   0.757   4.797   1.203  0.1400  0.3012  0.2313
   61MOL   C15318273   0.709   4.728   1.068 -0.6498  0.1847  0.0073
   61MOL   C15418274   0.661   4.584   1.104  0.0869 -0.1334  0.1867
   61MOL   C15518275   0.599   4.812   0.991  0.0539  0.4364 -0.0387
   61MOL   O15618276   0.487   4.765   0.978 -0.2013  0.0067  1.1830
   61MOL   O15718277   0.647   4.932   0.947  0.0141  0.7235  0.4064
   61MOL   C15818278   0.552   5.024   0.913  0.5473  0.0872 -0.1998
   61MOL   H15918279   0.819   4.724   1.254 -2.1789 -0.9754  1.3160
   61MOL   H16018280   0.826   4.879   1.183 -0.9090  1.3339  0.8110
   61MOL   H16118281   0.699   4.547   1.200  1.5799 -1.0529 -0.7435
   61MOL   H16218282   0.553   4.588   1.109  0.2176  3.5432  2.3578
   61MOL   H16318283   0.683   4.508   1.030 -1.4356  0.3151 -0.7454
   61MOL   H16418284   0.597   5.123   0.915  0.8327 -0.0500  0.2707
   61MOL   H16518285   0.469   5.017   0.984  2.5393 -0.3992  2.1388
   61MOL   H16618286   0.510   5.002   0.815  0.9591  4.0721 -1.3426
   61MOL   C16718287   0.831   4.712   0.964  0.0786  0.1372  0.4947
   61MOL   C16818288   0.976   4.641   0.993 -0.1529  0.0520  0.3011
   61MOL   C16918289   0.956   4.514   1.076 -0.1310 -0.2903 -1.4834
   61MOL   C17018290   1.037   4.603   0.860  0.9670 -1.0428 -0.0764
   61MOL   O17118291   1.095   4.495   0.847  0.0154 -0.1344  0.9065
   61MOL   O17218292   1.033   4.699   0.764  0.0694  0.5756 -0.1525
   61MOL   C17318293   1.074   4.680   0.628 -0.5580  0.1136  0.8388
   61MOL   H17418294   0.861   4.814   0.939  0.0112  0.3337  1.1930
   61MOL   H17518295   0.787   4.675   0.872  2.5706 -0.6087 -0.4543
   61MOL   H17618296   0.892   4.445   1.022 -0.8546 -0.7902  0.0069
   61MOL   H17718297   1.049   4.463   1.101  1.3549  2.8282 -0.2603
   61MOL   H17818298   0.916   4.531   1.175  0.4973  1.2649 -1.4760
   61MOL   H17918299   1.160   4.613   0.631  0.5792  1.5838  1.8328
   61MOL   H18018300   1.112   4.774   0.588 -0.0202 -0.8668 -1.0430
   61MOL   H18118301   0.985   4.647   0.574  0.8071 -2.5407  0.1134
   61MOL   C18218302   1.072   4.736   1.075  0.4076 -0.4324  0.2126
   61MOL   C18318303   1.156   4.865   1.028  0.1645  0.5770  0.3196
   61MOL   C18418304   1.285   4.812   0.959  0.3285  0.2684  0.2072
   61MOL   C18518305   1.083   4.962   0.934  0.9007  0.0907  0.4809
   61MOL   O18618306   1.104   4.983   0.813  0.7761  0.3814  0.5334
   61MOL   O18718307   0.982   5.027   0.997 -0.3555  0.3490  0.4181
   61MOL   C18818308   0.916   5.142   0.936 -0.0154  1.4882 -0.4299
   61MOL   H18918309   1.136   4.669   1.131 -0.1874 -2.6893 -1.7402
   61MOL   H19018310   1.009   4.779   1.154  0.6771 -0.5378  0.4880
   61MOL   H19118311   1.324   4.721   1.004  0.3457  0.1919  0.0366
   61MOL   H19218312   1.263   4.801   0.853 -1.3839 -0.5152  0.6241
   61MOL   H19318313   1.355   4.895   0.964 -1.5411  1.8424  1.7782
   61MOL   H19418314   0.921   5.154   0.828  0.6021 -3.2834 -1.0366
   61MOL   H19518315   0.969   5.225   0.981  1.1080  0.1725  0.7285
   61MOL   H19618316   0.810   5.150   0.960 -0.0562 -0.9074  0.3715
   61MOL   C19718317   1.183   4.943   1.162  0.6424  0.2857  0.2482
   61MOL   C19818318   1.300   5.046   1.190 -0.8347  0.0512  0.6597
   61MOL   C19918319   1.267   5.111   1.331  0.6852  0.4058 -0.8446
   61MOL   C20018320   1.434   4.975   1.209 -0.3057 -0.2872 -0.6834
   61MOL   O20118321   1.527   4.977   1.127 -0.3747 -0.0447 -0.1067
   61MOL   O20218322   1.441   4.902   1.327  0.5433  0.7114  0.2556
   61MOL   C20318323   1.524   4.793   1.345 -0.0920 -0.5264  0.1542
   61MOL   H20418324   1.200   4.868   1.239  0.3319  0.6818  0.7023
   61MOL   H20518325   1.089   4.978   1.205  0.5623  2.7225 -1.8521
   61MOL   H20618326   1.266   5.046   1.419  1.7418  1.9551  0.3389
   61MOL   H20718327   1.340   5.189   1.348  0.1387  0.7124  0.1416
   61MOL   H20818328   1.173   5.166   1.331  1.0644  1.0588 -1.2929
   61MOL   H20918329   1.457   4.707   1.345  0.6563 -1.1178  1.0239
   61MOL   H21018330   1.562   4.794   1.447 -0.2251  2.1467  0.2278
   61MOL   H21118331   1.607   4.783   1.275 -1.5028  1.5813 -1.9110
   61MOL   C21218332   1.302   5.162   1.073 -0.5227 -0.3779 -0.3386
   61MOL   C21318333   1.371   5.298   1.086  0.5903 -1.0717  0.2372
   61MOL   C21418334   1.516   5.286   1.154 -0.0803  0.8076  0.0155
   61MOL   C21518335   1.395   5.351   0.935  0.7635  0.8042 -0.3824
   61MOL   O21618336   1.511   5.355   0.886 -0.6310 -0.3220  0.0726
   61MOL   O21718337   1.279   5.375   0.857 -0.2555 -0.3918  0.2709
   61MOL   C21818338   1.290   5.425   0.729 -0.0986  0.1016  0.1930
   61MOL   H21918339   1.197   5.175   1.046 -0.4824  2.0984  0.5126
   61MOL   H22018340   1.347   5.106   0.992 -2.1375  0.6306 -1.9636
   61MOL   H22118341   1.521   5.241   1.253 -2.3882  0.6057  0.0752
   61MOL   H22218342   1.565   5.222   1.079  0.4067  2.0725 -0.7664
   61MOL   H22318343   1.566   5.383   1.149  1.7490 -0.2008 -2.2951
   61MOL   H22418344   1.347   5.518   0.721  2.2665 -1.3533 -0.2963
   61MOL   H22518345   1.190   5.437   0.688  0.6716 -0.0512 -1.7611
   61MOL   H22618346   1.352   5.358   0.669  0.8730  0.4182  0.8268
   61MOL   C22718347   1.267   5.397   1.158 -0.1518 -0.0478  0.7617
   61MOL   C22818348   1.308   5.519   1.246  0.4104  0.2832 -0.8663
   61MOL   C22918349   1.370   5.463   1.380  0.3449  1.0475  0.3219
   61MOL   C23018350   1.416   5.605   1.175 -0.3972 -0.3173 -0.2394
   61MOL   O23118351   1.430   5.616   1.051  0.3323  0.2293  0.1627
   61MOL   O23218352   1.504   5.662   1.263  0.7812 -0.2532  0.5179
   61MOL   C23318353   1.601   5.750   1.196  0.5060  0.2529  0.0987
   61MOL   H23418354   1.194   5.344   1.220  0.4405  0.7559  2.1841
   61MOL   H23518355   1.212   5.437   1.073  2.2720 -1.4588 -1.5211
   61MOL   H23618356   1.466   5.412   1.369  0.4110  1.2208  0.0853
   61MOL   H23718357   1.386   5.541   1.454  0.6265  0.2863  1.0725
   61MOL   H23818358   1.295   5.405   1.435  0.8893  0.2378  0.2265
   61MOL   H23918359   1.675   5.692   1.141 -0.1022 -0.3306 -0.1165
   61MOL   H24018360   1.661   5.804   1.269 -0.2405 -0.2866  1.1197
   61MOL   H24118361   1.563   5.819   1.122  1.6972  1.7303  0.8513
   61MOL   C24218362   1.185   5.609   1.291 -0.0544 -0.7152 -0.2080
   61MOL   C24318363   1.069   5.660   1.198  0.8063 -0.6728 -0.2692
   61MOL   C24418364   1.137   5.735   1.077  0.4671  0.0395  0.9423
   61MOL   C24518365   0.978   5.541   1.155 -0.3574  0.4167 -0.1937
   61MOL   O24618366   0.947   5.526   1.042 -0.7344  0.3916  0.5017
   61MOL   O24718367   0.935   5.463   1.256  0.2927 -0.2067  0.6526
   61MOL   C24818368   0.866   5.339   1.246  0.1256  0.1717  0.8452
   61MOL   H24918369   1.219   5.700   1.342 -1.0220 -0.5586  0.1550
   61MOL   H25018370   1.138   5.562   1.377 -0.5114  0.2413  0.0774
   61MOL   H25118371   1.225   5.793   1.103  1.3014  0.6931 -3.0880
   61MOL   H25218372   1.189   5.678   0.999  0.7212  0.2060  0.9915
   61MOL   H25318373   1.075   5.807   1.024  0.5343 -0.2306  0.4988
   61MOL   H25418374   0.947   5.267   1.236 -1.2478 -1.5364  1.6790
   61MOL   H25518375   0.806   5.344   1.156  2.0685  3.1835 -0.3430
   61MOL   H25618376   0.801   5.318   1.331 -0.9253  0.4443  0.1229
   61MOL   C25718377   0.977   5.761   1.280  0.2492 -0.3778 -0.1236
   61MOL   C25818378   0.838   5.818   1.238 -0.4477 -0.2448  0.4081
   61MOL   C25918379   0.827   5.857   1.088 -0.5027  0.0108  0.3760
   61MOL   C26018380   0.722   5.719   1.269 -0.5537 -0.1091  0.4381
   61MOL   O26118381   0.628   5.681   1.197  0.1999 -0.3476 -0.3358
   61MOL   O26218382   0.742   5.678   1.388 -0.0586 -0.2895 -0.2007
   61MOL   C26318383   0.641   5.606   1.455 -0.3865  0.2340  0.2750
   61MOL   H26418384   1.042   5.847   1.296 -1.9559  1.5122 -1.1453
   61MOL   H26518385   0.978   5.715   1.379 -1.4837  0.1956  0.1734
   61MOL   H26618386   0.848   5.766   1.033  4.5195  1.5658 -0.5722
   61MOL   H26718387   0.736   5.896   1.042 -0.3443 -2.1843 -1.8401
   61MOL   H26818388   0.892   5.941   1.064 -1.0533  0.5506  0.7361
   61MOL   H26918389   0.580   5.675   1.513 -0.3898 -0.1869  0.7694
   61MOL   H27018390   0.678   5.523   1.515  0.7198 -1.1711 -2.2604
   61MOL   H27118391   0.584   5.550   1.380 -0.8263  1.8621 -0.6391
   61MOL   C27218392   0.814   5.960   1.319 -0.6225 -0.6901 -0.2108
   61MOL   C27318393   0.682   6.034   1.345  0.7857  0.6001 -0.5329
   61MOL   C27418394   0.593   6.043   1.220  0.4233  0.0359 -1.1778
   61MOL   C27518395   0.604   5.975   1.466  0.9201 -0.3488  0.1799
   61MOL   O27618396   0.484   5.950   1.461  0.2567 -0.1384 -0.2614
   61MOL   O27718397   0.679   5.939   1.571 -0.1606 -0.2170  0.6190
   61MOL   C27818398   0.624   5.894   1.691  0.4820 -0.3954 -0.2431
   61MOL   H27918399   0.875   6.031   1.263 -0.9399 -1.9279 -2.2138
   61MOL   H28018400   0.866   5.953   1.414  0.2005  0.2300 -0.5872
   61MOL   H28118401   0.519   6.122   1.233 -0.6391 -1.1510  0.2529
   61MOL   H28218402   0.644   6.069   1.128  0.4152  2.7444 -0.4480
   61MOL   H28318403   0.529   5.955   1.207  0.6030 -0.3723  0.5386
   61MOL   H28418404   0.544   5.954   1.733  0.7490 -1.2835  1.5576
   61MOL   H28518405   0.689   5.887   1.778 -1.5582 -0.7591  1.2697
   61MOL   H28618406   0.593   5.791   1.673 -2.4380  0.1975  1.1586
   61MOL   C28718407   0.718   6.183   1.385  0.2996  0.9343  0.4441
   61MOL   C28818408   0.794   6.222   1.515  0.1151  0.1018 -0.0539
   61MOL   C28918409   0.929   6.291   1.489  0.3059 -0.5434  0.0775
   61MOL   C29018410   0.709   6.300   1.613 -0.0066  0.0060 -0.2790
   61MOL   O29118411   0.630   6.384   1.576  0.5390  0.2946 -0.2923
   61MOL   O29218412   0.737   6.256   1.739 -0.4495 -0.2104 -0.3987
   61MOL   C29318413   0.690   6.344   1.848  0.5727  0.1469  0.2212
   61MOL   H29418414   0.627   6.243   1.385  1.1018  2.1828  1.1864
   61MOL   H29518415   0.777   6.223   1.303 -2.2390  2.3081 -0.7714
   61MOL   H29618416   0.965   6.240   1.400  0.1251 -0.4936 -0.0241
   61MOL   H29718417   0.908   6.393   1.458 -0.9087 -0.3486  1.4463
   61MOL   H29818418   0.992   6.283   1.578 -0.6000  1.0386  0.8973
   61MOL   H29918419   0.766   6.315   1.921 -0.0102  1.4442  1.3600
   61MOL   H30018420   0.596   6.297   1.877  1.5989 -1.7710  0.5144
   61MOL   H30118421   0.697   6.448   1.818  0.5974  0.4181  1.1354
   61MOL   H30218422   0.836   6.133   1.562 -1.1023 -1.1604 -1.2840
   62MOL     C118423   1.915   5.060   1.960  0.6275 -0.3246  0.1980
   62MOL     C218424   1.784   5.130   1.933  0.5074 -0.2903  0.1505
   62MOL     C318425   1.801   5.280   1.907 -0.0837  0.5875  0.0711
   62MOL     C418426   1.733   5.068   1.798  0.2385 -0.2179 -0.8301
   62MOL     O518427   1.699   5.138   1.704  0.4548  0.0358 -0.1586
   62MOL     O618428   1.734   4.939   1.791  0.2094  0.0619  0.4438
   62MOL     C718429   1.705   4.883   1.663 -0.4365  0.2375 -0.1177
   62MOL     H818430   1.976   5.052   1.870  0.3006 -1.0514  0.0358
   62MOL     H918431   1.974   5.115   2.033  3.0241 -3.2057  0.5672
   62MOL    H1018432   1.877   5.321   1.973  1.2837 -0.3862 -0.8751
   62MOL    H1118433   1.855   5.290   1.813 -0.1965 -3.3189 -0.5132
   62MOL    H1218434   1.710   5.338   1.890 -0.4371  0.2534  0.7953
   62MOL    H1318435   1.728   4.777   1.668  1.2520  0.6411  1.2476
   62MOL    H1418436   1.764   4.921   1.579 -0.1077  0.9584  0.4339
   62MOL    H1518437   1.603   4.883   1.625 -0.0870  1.7490 -1.1238
   62MOL    H1618438   1.905   4.965   2.013  0.2677  0.1827  1.0386
   62MOL    C1718439   1.669   5.088   2.036 -0.1255 -0.7176  0.0659
   62MOL    C1818440   1.665   5.159   2.180  0.2426 -0.4956  0.2660
   62MOL    C1918441   1.567   5.073   2.264  0.6577  0.4504 -0.5247
   62MOL    C2018442   1.804   5.144   2.254  0.2286  0.4653 -0.0289
   62MOL    O2118443   1.864   5.246   2.301 -0.4064 -0.0740  0.4684
   62MOL    O2218444   1.834   5.015   2.281  0.4102  0.2955  0.2471
   62MOL    C2318445   1.919   4.987   2.393 -0.4127  0.7804  0.6387
   62MOL    H2418446   1.674   4.981   2.055  0.2558 -1.2320 -2.6402
   62MOL    H2518447   1.572   5.084   1.986 -0.6965 -1.7595  1.2343
   62MOL    H2618448   1.463   5.082   2.231  1.2570 -1.5215 -3.2151
   62MOL    H2718449   1.581   4.965   2.268 -0.6110  0.3223  0.8097
   62MOL    H2818450   1.555   5.103   2.368 -0.8574 -1.1092 -0.2135
   62MOL    H2918451   2.010   5.046   2.392 -0.7418  1.3950 -3.6545
   62MOL    H3018452   1.954   4.884   2.397 -0.7458  0.6043 -0.8287
   62MOL    H3118453   1.859   5.003   2.483 -0.4478 -0.6573  0.8740
   62MOL    C3218454   1.622   5.312   2.187  0.0067  0.2898  0.1922
   62MOL    C3318455   1.476   5.370   2.155 -1.0680 -0.1729  0.0293
   62MOL    C3418456   1.424   5.297   2.031 -0.4044  0.0454  0.3876
   62MOL    C3518457   1.379   5.345   2.269 -0.3128  0.3297  0.1060
   62MOL    O3618458   1.262   5.308   2.247 -0.1797  0.1574  0.2230
   62MOL    O3718459   1.419   5.373   2.399 -0.4941  0.3989  0.2476
   62MOL    C3818460   1.341   5.344   2.510 -0.3248  0.1466 -0.1658
   62MOL    H3918461   1.689   5.355   2.112 -0.3117 -2.2543 -1.6289
   62MOL    H4018462   1.646   5.348   2.287  0.8761  0.5436 -0.1001
   62MOL    H4118463   1.489   5.293   1.944 -1.1870 -1.6172 -0.1443
   62MOL    H4218464   1.389   5.196   2.056  1.6654 -0.4470  1.4151
   62MOL    H4318465   1.336   5.344   1.988  0.4580  0.1798 -1.2532
   62MOL    H4418466   1.240   5.384   2.518  0.0516  1.5397 -2.0679
   62MOL    H4518467   1.397   5.372   2.600  1.3744 -2.4147 -0.3580
   62MOL    H4618468   1.332   5.235   2.511 -2.5201  0.3141  0.3465
   62MOL    C4718469   1.491   5.522   2.117  0.1567 -0.0729 -0.6313
   62MOL    C4818470   1.414   5.614   2.008  0.0149 -0.3470  0.4444
   62MOL    C4918471   1.479   5.751   2.026 -0.3474 -0.2663  0.1304
   62MOL    C5018472   1.455   5.567   1.864 -0.4006  0.1182  0.1023
   62MOL    O5118473   1.374   5.517   1.790  0.1729  0.0691 -0.5537
   62MOL    O5218474   1.591   5.580   1.830  0.1943 -0.1628  0.3423
   62MOL    C5318475   1.636   5.527   1.703 -0.5567 -0.1468  0.9132
   62MOL    H5418476   1.599   5.536   2.108  0.3453  0.0673  1.6320
   62MOL    H5518477   1.488   5.579   2.210 -0.7097 -0.0033 -0.7042
   62MOL    H5618478   1.587   5.745   2.018 -0.2014  1.7578  0.3261
   62MOL    H5718479   1.439   5.829   1.962  0.3520  2.1416  2.5063
   62MOL    H5818480   1.457   5.789   2.126 -0.3422  1.3752 -0.4821
   62MOL    H5918481   1.745   5.525   1.711 -0.4361 -1.6556 -0.7054
   62MOL    H6018482   1.599   5.602   1.634 -1.3296 -2.8149 -1.6839
   62MOL    H6118483   1.590   5.429   1.691 -2.4545  0.8006  0.3116
   62MOL    C6218484   1.265   5.598   2.047  0.1870  0.2772  0.0660
   62MOL    C6318485   1.150   5.693   2.001 -0.1965 -0.1211  0.4734
   62MOL    C6418486   1.010   5.616   2.022 -0.3126 -0.8503 -0.3903
   62MOL    C6518487   1.147   5.808   2.102 -0.2780  0.7146 -0.2952
   62MOL    O6618488   1.170   5.922   2.070  0.2222 -0.1413 -0.0912
   62MOL    O6718489   1.131   5.768   2.231 -0.1249 -0.0791  0.1618
   62MOL    C6818490   1.111   5.857   2.337 -0.2687  0.0368 -0.5680
   62MOL    H6918491   1.255   5.571   2.152 -1.7856 -0.9587 -0.4078
   62MOL    H7018492   1.233   5.504   2.003  0.2232 -0.2699  1.2021
   62MOL    H7118493   0.990   5.542   1.945 -1.9885 -0.4872 -0.3235
   62MOL    H7218494   1.012   5.561   2.116 -2.5568 -0.0450  0.1567
   62MOL    H7318495   0.920   5.677   2.027  1.5161  1.8816  0.5354
   62MOL    H7418496   1.077   5.813   2.431 -1.1654  0.7721 -0.5366
   62MOL    H7518497   1.038   5.930   2.300 -1.9123 -1.0590  0.4143
   62MOL    H7618498   1.204   5.908   2.362 -0.7893  0.4831  0.5072
   62MOL    C7718499   1.166   5.750   1.850  0.3113 -0.1128  0.4095
   62MOL    C7818500   1.069   5.812   1.749 -0.0636 -1.2257 -0.2812
   62MOL    C7918501   0.952   5.709   1.718 -0.4466 -0.4104  0.6323
   62MOL    C8018502   0.999   5.934   1.805  0.1325 -0.1890  0.0023
   62MOL    O8118503   0.978   6.032   1.736 -0.1622 -0.1230  0.1577
   62MOL    O8218504   0.932   5.904   1.922  0.2027 -0.5983 -0.2675
   62MOL    C8318505   0.858   6.015   1.981  0.4315  0.2422 -1.0361
   62MOL    H8418506   1.189   5.653   1.804  1.1001 -1.2496  3.1320
   62MOL    H8518507   1.258   5.808   1.852 -0.3776  0.9364  2.1587
   62MOL    H8618508   0.982   5.609   1.688 -1.7569 -0.2491 -1.3357
   62MOL    H8718509   0.879   5.693   1.797  0.0487 -0.8742  0.9985
   62MOL    H8818510   0.881   5.730   1.638 -0.3206 -1.4399  0.2481
   62MOL    H8918511   0.787   5.968   2.050  2.2931 -0.1367  0.6667
   62MOL    H9018512   0.816   6.081   1.905  0.2092 -2.6443 -3.4781
   62MOL    H9118513   0.934   6.064   2.043  0.4497 -0.5148 -0.4573
   62MOL    C9218514   1.136   5.850   1.608 -0.5396 -0.2332  0.2824
   62MOL    C9318515   1.286   5.922   1.591  1.3369  0.4889  0.8297
   62MOL    C9418516   1.403   5.814   1.613  0.0153  0.1553  0.7018
   62MOL    C9518517   1.293   5.981   1.444 -0.1518 -0.5388  0.3014
   62MOL    O9618518   1.372   5.943   1.361  0.2168 -0.1696  0.4924
   62MOL    O9718519   1.200   6.069   1.412  0.6435  0.4969  0.0094
   62MOL    C9818520   1.182   6.100   1.269 -0.1275 -0.3018 -1.0624
   62MOL    H9918521   1.065   5.898   1.540 -0.2606 -0.4106 -0.1394
   62MOL   H10018522   1.150   5.759   1.550  0.5722  1.3097 -1.9548
   62MOL   H10118523   1.439   5.815   1.716 -0.3479  1.5236  0.8365
   62MOL   H10218524   1.367   5.713   1.595 -0.9952  0.3891  1.3573
   62MOL   H10318525   1.482   5.834   1.541  0.1066 -1.0991  0.4466
   62MOL   H10418526   1.224   6.027   1.199  0.0228  1.0025 -2.3626
   62MOL   H10518527   1.232   6.195   1.247  0.9180 -0.0415  2.1871
   62MOL   H10618528   1.077   6.107   1.241 -0.2021  0.7130 -0.5650
   62MOL   C10718529   1.306   6.036   1.705  0.2253 -0.8647  1.3879
   62MOL   C10818530   1.422   6.136   1.721 -0.4927  0.0097  0.5325
   62MOL   C10918531   1.352   6.239   1.822  0.2150  0.1262 -0.8076
   62MOL   C11018532   1.543   6.073   1.793  0.4627 -0.0469  0.5303
   62MOL   O11118533   1.551   6.086   1.914  0.0488 -0.3060 -0.1204
   62MOL   O11218534   1.625   5.999   1.711  0.5668 -0.3832 -0.0075
   62MOL   C11318535   1.700   5.895   1.775 -0.3039  0.2763  0.3635
   62MOL   H11418536   1.283   6.002   1.806  1.6256 -0.6511  1.7859
   62MOL   H11518537   1.218   6.094   1.678  1.5029 -0.0646 -1.2296
   62MOL   H11618538   1.270   6.293   1.775  0.4158  0.4610 -0.7778
   62MOL   H11718539   1.323   6.184   1.911 -1.7935  2.3345 -0.0337
   62MOL   H11818540   1.427   6.305   1.866  1.1256 -0.9885 -0.6624
   62MOL   H11918541   1.706   5.810   1.707 -0.2463 -0.4751  1.3008
   62MOL   H12018542   1.656   5.864   1.870  0.5222  0.2960  0.7628
   62MOL   H12118543   1.798   5.932   1.805 -0.8026  0.3432  1.9635
   62MOL   C12218544   1.459   6.209   1.591 -0.2738 -0.5830 -0.2331
   62MOL   C12318545   1.533   6.345   1.577  0.4961 -0.5259 -0.3749
   62MOL   C12418546   1.678   6.337   1.643  0.2473  0.0465 -0.0452
   62MOL   C12518547   1.558   6.361   1.431  0.1365 -0.3982  0.1191
   62MOL   O12618548   1.672   6.373   1.384 -0.4794  0.2111  0.2839
   62MOL   O12718549   1.444   6.364   1.359 -0.1392 -0.1374 -0.5600
   62MOL   C12818550   1.462   6.347   1.217 -0.3571 -0.1894 -0.1897
   62MOL   H12918551   1.355   6.228   1.564 -1.5621 -2.3302  3.1738
   62MOL   H13018552   1.501   6.134   1.524 -0.9499 -1.9621  0.8591
   62MOL   H13118553   1.665   6.344   1.751 -0.1503  0.9847 -0.1507
   62MOL   H13218554   1.713   6.241   1.605  1.6961  0.6435 -0.2522
   62MOL   H13318555   1.754   6.412   1.621  1.0013 -1.3518 -2.3996
   62MOL   H13418556   1.362   6.344   1.174 -0.4081  1.9196 -0.2769
   62MOL   H13518557   1.503   6.250   1.188 -1.6792 -0.1733 -2.1833
   62MOL   H13618558   1.521   6.433   1.185  0.1225 -1.3405 -2.5509
   62MOL   C13718559   1.449   6.467   1.632 -0.1315 -0.3719 -0.6849
   62MOL   C13818560   1.482   6.622   1.599  0.4237  0.7457 -0.1536
   62MOL   C13918561   1.390   6.702   1.695 -0.0210 -0.2271  0.2727
   62MOL   C14018562   1.625   6.660   1.640 -0.1106 -0.6800  1.0177
   62MOL   O14118563   1.647   6.699   1.756 -0.2704 -0.7164  0.5594
   62MOL   O14218564   1.710   6.662   1.540 -0.3683  0.4900  0.6173
   62MOL   C14318565   1.847   6.667   1.549 -0.2497 -0.5729 -0.2555
   62MOL   H14418566   1.459   6.457   1.740  2.7576  3.8394 -0.4491
   62MOL   H14518567   1.344   6.454   1.606 -0.4186  2.0265 -0.8401
   62MOL   H14618568   1.419   6.807   1.707 -1.9951  0.3143  0.5272
   62MOL   H14718569   1.287   6.712   1.661  0.2698 -1.5775 -1.0286
   62MOL   H14818570   1.396   6.657   1.794 -0.7446  0.7356  0.7674
   62MOL   H14918571   1.870   6.773   1.556 -1.2734 -0.3918  0.4082
   62MOL   H15018572   1.899   6.646   1.455  3.5028  1.4020  1.2463
   62MOL   H15118573   1.896   6.622   1.635 -3.0094  0.7799  2.0791
   62MOL   C15218574   1.439   6.658   1.450 -0.6440 -0.2736  0.4724
   62MOL   C15318575   1.396   6.807   1.396  0.1649  0.4547  0.0969
   62MOL   C15418576   1.239   6.821   1.414 -0.1185 -0.2029 -0.3062
   62MOL   C15518577   1.468   6.921   1.473 -0.8985 -0.0496 -0.5069
   62MOL   O15618578   1.405   7.007   1.536  0.5323  0.1317  0.2993
   62MOL   O15718579   1.603   6.917   1.461  0.2161 -0.2104 -0.5410
   62MOL   C15818580   1.685   7.013   1.522  0.3536 -0.9370 -0.6468
   62MOL   H15918581   1.356   6.590   1.435  0.4169 -1.1424 -1.5999
   62MOL   H16018582   1.512   6.611   1.385 -0.5332 -0.2458  0.5756
   62MOL   H16118583   1.188   6.895   1.352 -0.4878 -0.6684 -0.5579
   62MOL   H16218584   1.191   6.728   1.385 -1.2692  0.8849 -2.0213
   62MOL   H16318585   1.205   6.849   1.513 -0.4017 -0.6754 -0.2694
   62MOL   H16418586   1.788   6.976   1.515  0.1454 -1.7499  0.5483
   62MOL   H16518587   1.653   7.028   1.625  0.2552  1.9272 -1.0631
   62MOL   H16618588   1.668   7.109   1.474 -0.7401  0.2958  2.1365
   62MOL   C16718589   1.432   6.808   1.246 -0.8904  0.1392  0.0718
   62MOL   C16818590   1.383   6.917   1.135  0.1181 -0.7056 -0.3212
   62MOL   C16918591   1.373   7.060   1.192 -0.3317 -0.5906 -0.7035
   62MOL   C17018592   1.490   6.913   1.020 -0.0003 -0.3975 -0.0578
   62MOL   O17118593   1.545   7.016   0.983 -0.0354  0.0696 -0.0259
   62MOL   O17218594   1.510   6.799   0.960  0.6585 -0.5920  0.0600
   62MOL   C17318595   1.610   6.781   0.860  0.5610 -0.3027  0.3569
   62MOL   H17418596   1.413   6.710   1.204  0.2514  0.0367 -0.2260
   62MOL   H17518597   1.541   6.813   1.246 -0.9150  1.2306 -1.9643
   62MOL   H17618598   1.362   7.140   1.119  1.6241 -2.3683 -3.0326
   62MOL   H17718599   1.289   7.058   1.260  0.7709  0.1447  0.7129
   62MOL   H17818600   1.460   7.087   1.252 -0.2032  4.2164 -2.8178
   62MOL   H17918601   1.699   6.731   0.897  0.2775 -0.6080  0.6317
   62MOL   H18018602   1.641   6.879   0.823 -0.4450  0.6232  1.8777
   62MOL   H18118603   1.563   6.728   0.777 -0.4158  1.7665 -0.4644
   62MOL   C18218604   1.246   6.853   1.071  0.3238  0.0139  0.9203
   62MOL   C18318605   1.139   6.931   0.987  0.0425  0.0673 -0.0895
   62MOL   C18418606   1.069   7.033   1.077 -0.1443 -0.0981  0.4141
   62MOL   C18518607   1.204   7.011   0.870 -0.1536 -0.2037  0.1583
   62MOL   O18618608   1.173   7.127   0.842 -0.7219  0.3277 -0.4178
   62MOL   O18718609   1.284   6.942   0.798 -0.1616  0.4196  0.0159
   62MOL   C18818610   1.356   6.999   0.691 -0.5087  0.2767  0.3755
   62MOL   H18918611   1.187   6.818   1.155 -0.0348 -0.1698  0.5900
   62MOL   H19018612   1.271   6.769   1.008  2.5214  1.1069  0.2831
   62MOL   H19118613   1.016   6.986   1.160 -0.6058  1.2656  0.9159
   62MOL   H19218614   1.128   7.106   1.132  1.1440 -1.8329  1.3773
   62MOL   H19318615   1.000   7.095   1.020 -1.7181 -0.1345  2.2034
   62MOL   H19418616   1.427   7.067   0.738 -2.4932  1.5008  1.6687
   62MOL   H19518617   1.292   7.060   0.627 -1.9888 -1.2123  0.4013
   62MOL   H19618618   1.411   6.932   0.624 -2.0047 -1.7810  1.1641
   62MOL   C19718619   1.015   6.845   0.934 -0.2709  0.6159 -0.1099
   62MOL   C19818620   1.027   6.698   0.874  0.3503  0.0666 -0.1256
   62MOL   C19918621   1.118   6.708   0.748 -0.3146 -0.1075  0.2707
   62MOL   C20018622   1.079   6.590   0.983  0.4986 -0.3066 -0.2628
   62MOL   O20118623   1.173   6.516   0.956 -0.4759  0.1962 -0.0864
   62MOL   O20218624   1.003   6.594   1.099  0.2981 -0.3110  0.0358
   62MOL   C20318625   1.040   6.530   1.221  0.3150 -0.2167 -0.1407
   62MOL   H20418626   0.967   6.917   0.867  0.6855  1.2224 -0.1404
   62MOL   H20518627   0.936   6.839   1.010 -0.1619  1.3023  0.0588
   62MOL   H20618628   1.128   6.623   0.681  3.2343 -0.7948  1.5532
   62MOL   H20718629   1.091   6.797   0.691 -0.4830 -0.0738  0.4010
   62MOL   H20818630   1.219   6.716   0.787 -0.0347  1.6792 -0.7649
   62MOL   H20918631   1.005   6.427   1.211  2.7822 -0.8455 -2.9625
   62MOL   H21018632   0.994   6.578   1.308  2.2100  0.0792  0.7288
   62MOL   H21118633   1.148   6.523   1.227  0.4985  1.7041 -1.0020
   62MOL   C21218634   0.883   6.660   0.833 -0.2448  0.5797 -0.3784
   62MOL   C21318635   0.829   6.513   0.784 -0.4660  0.2227 -0.3382
   62MOL   C21418636   0.939   6.451   0.694  0.1479 -0.3489  0.0173
   62MOL   C21518637   0.810   6.428   0.910  0.0058 -1.0821  0.1779
   62MOL   O21618638   0.772   6.473   1.018 -0.3660 -0.3360 -0.1743
   62MOL   O21718639   0.847   6.304   0.903 -0.7330  0.3774  0.0360
   62MOL   C21818640   0.839   6.212   1.013  0.1914  0.4238 -0.4847
   62MOL   H21918641   0.860   6.731   0.753 -0.6005  1.8980  0.8826
   62MOL   H22018642   0.808   6.701   0.900  0.0825 -1.1924  1.1081
   62MOL   H22118643   0.954   6.519   0.610  1.3315 -0.0123  0.4964
   62MOL   H22218644   1.038   6.450   0.740 -0.2611  2.4569  1.0573
   62MOL   H22318645   0.927   6.346   0.668  0.6871 -0.3635 -0.1710
   62MOL   H22418646   0.923   6.144   1.021  0.8415  1.2747 -0.1003
   62MOL   H22518647   0.745   6.158   0.996  0.4277  0.3510 -1.5661
   62MOL   H22618648   0.829   6.265   1.108 -1.3055  0.0814 -0.4266
   62MOL   C22718649   0.693   6.527   0.708  1.0321  0.1018 -0.0731
   62MOL   C22818650   0.600   6.408   0.646  0.2920  0.5361 -0.3131
   62MOL   C22918651   0.678   6.315   0.554  0.0528  0.2518  0.2215
   62MOL   C23018652   0.543   6.322   0.762  0.3173  0.2140 -0.4122
   62MOL   O23118653   0.528   6.201   0.758  0.0879  0.5354 -0.6497
   62MOL   O23218654   0.490   6.400   0.860 -0.1089 -0.0803 -0.3678
   62MOL   C23318655   0.421   6.338   0.964 -0.7256  0.3522  0.6520
   62MOL   H23418656   0.732   6.585   0.624  2.0360  0.5017  0.6622
   62MOL   H23518657   0.628   6.600   0.756  0.3965 -0.3901 -0.1809
   62MOL   H23618658   0.733   6.381   0.487 -2.3512  0.6226 -1.4547
   62MOL   H23718659   0.754   6.257   0.608  1.5868  1.7976 -0.2218
   62MOL   H23818660   0.615   6.251   0.492  3.5688 -2.2179 -0.9979
   62MOL   H23918661   0.494   6.286   1.026  2.1629  1.2282 -1.8625
   62MOL   H24018662   0.344   6.270   0.928 -0.9909  0.7663  0.4210
   62MOL   H24118663   0.367   6.403   1.033 -1.5587 -0.3370  0.6499
   62MOL   C24218664   0.480   6.479   0.573  0.2689  0.0639  0.0715
   62MOL   C24318665   0.389   6.430   0.451  0.7005  0.2504 -0.3383
   62MOL   C24418666   0.466   6.442   0.321 -0.6352 -0.2675 -0.0298
   62MOL   C24518667   0.351   6.285   0.477  0.4055  0.3188  0.2933
   62MOL   O24618668   0.374   6.204   0.386 -0.4451  0.0128 -0.1907
   62MOL   O24718669   0.277   6.274   0.587  0.5104  0.4942 -0.6863
   62MOL   C24818670   0.219   6.149   0.605 -0.0689 -0.3756 -0.5664
   62MOL   H24918671   0.522   6.575   0.540 -3.6721  1.6746 -0.5526
   62MOL   H25018672   0.409   6.522   0.643  0.1408 -0.8239  0.4878
   62MOL   H25118673   0.421   6.404   0.229  0.1565 -1.5622  0.1062
   62MOL   H25218674   0.508   6.540   0.297  2.1135 -1.3456  0.1751
   62MOL   H25318675   0.552   6.375   0.327 -0.1176  0.3320 -0.7044
   62MOL   H25418676   0.136   6.138   0.535 -0.5968 -1.1071  0.1701
   62MOL   H25518677   0.164   6.148   0.699 -1.4753  0.9429 -1.3542
   62MOL   H25618678   0.275   6.056   0.590  1.1239  0.3746 -0.8251
   62MOL   C25718679   0.259   6.526   0.445 -0.1484  0.6771  0.4564
   62MOL   C25818680   0.161   6.530   0.324 -0.3668 -0.1109 -0.0756
   62MOL   C25918681   0.220   6.631   0.218  0.3392 -0.3644 -0.4620
   62MOL   C26018682   0.135   6.395   0.255  0.7617  0.0979 -0.6428
   62MOL   O26118683   0.180   6.371   0.146 -0.0403  0.7727  0.0800
   62MOL   O26218684   0.059   6.318   0.331  0.5607 -0.4524 -0.4525
   62MOL   C26318685   0.007   6.196   0.275  0.5770  0.5932 -0.3246
   62MOL   H26418686   0.301   6.626   0.440  0.9823  0.2838  1.6958
   62MOL   H26518687   0.205   6.515   0.539 -1.6977 -1.1124 -0.5866
   62MOL   H26618688   0.292   6.572   0.161  1.6655  0.5615  0.2262
   62MOL   H26718689   0.149   6.648   0.137  1.7988  1.2722 -1.4252
   62MOL   H26818690   0.283   6.715   0.246  0.2482 -1.2457  2.6633
   62MOL   H26918691   7.810   6.149   0.339 -0.0076 -0.5920 -1.8514
   62MOL   H27018692   0.077   6.119   0.245  1.0880  0.8654  0.1592
   62MOL   H27118693   7.833   6.224   0.183 -1.0364 -4.3599 -1.0742
   62MOL   C27218694   0.037   6.608   0.384  0.2701  0.1235 -0.3869
   62MOL   C27318695   7.782   6.657   0.305  0.3455 -0.1999 -0.1952
   62MOL   C27418696   7.756   6.577   0.173 -0.2250 -0.1673  0.5169
   62MOL   C27518697   7.653   6.647   0.396 -0.0242 -0.1760  0.2442
   62MOL   O27618698   7.669   6.629   0.517  0.0126  0.0353  0.3995
   62MOL   O27718699   7.538   6.647   0.326  0.0190 -0.1182  0.1112
   62MOL   C27818700   7.426   6.618   0.407 -0.8655  0.3870  0.9673
   62MOL   H27918701   0.068   6.693   0.444  1.2030 -1.0509  0.8328
   62MOL   H28018702   0.010   6.544   0.468  1.9980  0.3318  0.3487
   62MOL   H28118703   7.831   6.583   0.095  1.1197  0.5101  1.8409
   62MOL   H28218704   7.746   6.470   0.188  2.6608 -0.8142 -1.7560
   62MOL   H28318705   7.662   6.609   0.128 -0.0160 -0.0892  0.1324
   62MOL   H28418706   7.396   6.686   0.486 -2.8906  1.0920 -0.3747
   62MOL   H28518707   7.445   6.516   0.440  0.3400  0.0837 -0.5681
   62MOL   H28618708   7.335   6.595   0.352 -0.1616 -0.1836  0.0313
   62MOL   C28718709   7.803   6.806   0.259 -0.3428 -1.0020 -0.2855
   62MOL   C28818710   7.696   6.892   0.183  0.4142  0.2225 -0.6265
   62MOL   C28918711   7.703   7.035   0.245  0.0174 -0.2325 -0.2810
   62MOL   C29018712   7.732   6.896   0.030 -0.6964  0.0980  0.3710
   62MOL   O29118713   7.811   6.813   7.860 -0.0724  0.1135 -0.1907
   62MOL   O29218714   7.663   6.987   7.842 -0.2846 -0.2798  0.5701
   62MOL   C29318715   7.692   7.017   7.708 -0.0287  0.1937  0.1773
   62MOL   H29418716   0.023   6.824   0.215 -0.5715  1.4930  0.1764
   62MOL   H29518717   7.809   6.855   0.356 -0.0102 -2.0249  0.2155
   62MOL   H29618718   7.709   7.031   0.354  0.6581  1.9680 -0.2061
   62MOL   H29718719   7.791   7.089   0.209  2.1222 -1.0813  3.3265
   62MOL   H29818720   7.611   7.085   0.215 -0.0293 -0.2230 -0.1189
   62MOL   H29918721   7.655   7.118   7.694 -1.9606 -0.3988  0.9273
   62MOL   H30018722   7.634   6.949   7.646  0.2330  0.7343 -0.6560
   62MOL   H30118723   7.798   7.006   7.684  0.3077 -0.3633  1.8188
   62MOL   H30218724   7.597   6.859   0.212  0.1462  0.2663 -1.4983
   63MOL     C118725   6.928   6.248   6.160  0.0556  1.0348 -0.2702
   63MOL     C218726   6.794   6.217   6.214  0.2380  0.3770 -0.1486
   63MOL     C318727   6.694   6.228   6.095 -0.3071 -0.6493 -0.2710
   63MOL     C418728   6.791   6.069   6.257  0.3738  1.2775 -0.8522
   63MOL     O518729   6.882   5.993   6.218  0.3272 -0.5340  0.0070
   63MOL     O618730   6.675   6.033   6.319 -0.2320 -0.2591 -0.0395
   63MOL     C718731   6.665   5.898   6.367 -1.0134  0.6700 -0.1826
   63MOL     H818732   6.936   6.351   6.127 -0.1723  1.1684  0.0916
   63MOL     H918733   7.016   6.217   6.216  0.5795  3.2122  0.1558
   63MOL    H1018734   6.702   6.143   6.027  0.7332 -1.1456  0.4654
   63MOL    H1118735   6.592   6.226   6.134 -0.1473  1.2975  0.3386
   63MOL    H1218736   6.707   6.321   6.039  0.2864  0.7560  2.1295
   63MOL    H1318737   6.757   5.843   6.389 -1.5679  0.4232  1.5942
   63MOL    H1418738   6.594   5.842   6.307 -1.0189  0.1690  0.2901
   63MOL    H1518739   6.628   5.911   6.469  1.9799  0.2619  1.0364
   63MOL    H1618740   6.928   6.212   6.057 -2.0561 -0.9650  0.3850
   63MOL    C1718741   6.750   6.323   6.328  0.1417  0.6222  0.4117
   63MOL    C1818742   6.848   6.383   6.436 -0.3008 -0.2533 -0.1095
   63MOL    C1918743   6.755   6.466   6.529 -0.1435 -0.0609  0.2518
   63MOL    C2018744   6.915   6.265   6.509  0.2294  0.4426  0.3071
   63MOL    O2118745   7.030   6.236   6.473 -0.9374  0.4726 -0.4632
   63MOL    O2218746   6.828   6.203   6.585  0.4516 -0.5605  0.2265
   63MOL    C2318747   6.857   6.084   6.657  0.6668  0.1274 -0.5045
   63MOL    H2418748   6.663   6.273   6.372 -0.1019  1.6034  1.0470
   63MOL    H2518749   6.705   6.403   6.269 -1.3706 -1.3963 -1.2992
   63MOL    H2618750   6.748   6.564   6.483 -0.7507  0.0962  0.6775
   63MOL    H2718751   6.658   6.422   6.549 -0.7270 -0.0883 -2.4146
   63MOL    H2818752   6.812   6.481   6.620  2.0144  1.8501 -1.3575
   63MOL    H2918753   6.868   6.004   6.584 -1.7697 -0.2687 -0.4578
   63MOL    H3018754   6.779   6.057   6.728  0.5144  0.7774 -0.4154
   63MOL    H3118755   6.944   6.095   6.722 -1.2189  1.9226  1.7941
   63MOL    C3218756   6.960   6.476   6.370 -0.1466 -0.0541  0.2240
   63MOL    C3318757   7.047   6.583   6.450  0.0988  1.0968  0.3324
   63MOL    C3418758   7.170   6.630   6.364 -1.1549  0.1952  0.3931
   63MOL    C3518759   6.964   6.715   6.452  0.0361 -0.2502 -0.0942
   63MOL    O3618760   6.907   6.756   6.553 -0.6052 -0.0557 -0.0957
   63MOL    O3718761   6.946   6.772   6.335 -0.4693 -0.1052  0.1928
   63MOL    C3818762   6.887   6.901   6.329 -0.4003  0.9719  0.1742
   63MOL    H3918763   6.921   6.525   6.281  1.0524 -0.0146 -0.2853
   63MOL    H4018764   7.027   6.402   6.327  0.1718  1.3143 -1.6886
   63MOL    H4118765   7.222   6.718   6.402 -2.5447  2.1051 -1.9923
   63MOL    H4218766   7.253   6.561   6.350  0.4497  2.2063 -0.1985
   63MOL    H4318767   7.144   6.646   6.259 -0.8074 -0.6136  0.1803
   63MOL    H4418768   6.779   6.884   6.326 -0.1565 -0.4618 -0.8813
   63MOL    H4518769   6.933   6.955   6.246 -1.0909  0.9705 -0.2144
   63MOL    H4618770   6.915   6.952   6.421  1.0846  1.0736 -0.3269
   63MOL    C4718771   7.093   6.535   6.593 -0.1714 -0.2659  0.6462
   63MOL    C4818772   7.208   6.600   6.680 -0.5637 -0.4710 -0.0517
   63MOL    C4918773   7.157   6.573   6.829  0.9987  0.2453  0.0716
   63MOL    C5018774   7.335   6.512   6.665  0.0881 -0.2818  0.0728
   63MOL    O5118775   7.374   6.437   6.758 -0.7616  0.3466 -0.4244
   63MOL    O5218776   7.387   6.511   6.539 -0.3706  0.7997 -0.7287
   63MOL    C5318777   7.503   6.433   6.510  0.0074 -0.5420 -0.0032
   63MOL    H5418778   7.128   6.431   6.590  1.0551  0.1443  0.0302
   63MOL    H5518779   7.005   6.532   6.656  0.3905 -1.0329  1.4098
   63MOL    H5618780   7.226   6.590   6.912  0.6281  0.3563  0.3570
   63MOL    H5718781   7.065   6.625   6.854  0.5770 -1.5539  2.4751
   63MOL    H5818782   7.134   6.466   6.835  0.5726  0.1704 -2.2564
   63MOL    H5918783   7.591   6.490   6.539 -0.9773  0.9185  0.1859
   63MOL    H6018784   7.519   6.426   6.402 -1.7382 -2.3556 -0.1808
   63MOL    H6118785   7.502   6.328   6.540  1.4712 -0.8700 -1.0796
   63MOL    C6218786   7.244   6.747   6.649  0.0086  0.1627  0.2489
   63MOL    C6318787   7.278   6.862   6.759  0.4611  0.5143  1.1397
   63MOL    C6418788   7.149   6.892   6.841 -0.4205 -0.3707  0.0686
   63MOL    C6518789   7.393   6.825   6.860 -0.6500  0.4226 -0.5703
   63MOL    O6618790   7.469   6.727   6.844 -0.3422  0.2856  0.2620
   63MOL    O6718791   7.396   6.914   6.969  0.7156 -0.1028 -0.7335
   63MOL    C6818792   7.481   6.884   7.079  0.1106 -0.2380 -0.1264
   63MOL    H6918793   7.166   6.780   6.580 -0.0930  1.6754  1.0625
   63MOL    H7018794   7.332   6.736   6.585 -1.8641 -1.9786 -2.0679
   63MOL    H7118795   7.140   6.991   6.886 -1.0582 -0.7394  0.7612
   63MOL    H7218796   7.056   6.868   6.789  1.1242 -0.5150 -2.7410
   63MOL    H7318797   7.142   6.824   6.925 -1.9913  0.6583  0.8003
   63MOL    H7418798   7.422   6.838   7.158 -0.1964 -0.8107 -0.6781
   63MOL    H7518799   7.513   6.984   7.110 -1.3401  1.0049 -2.4541
   63MOL    H7618800   7.566   6.821   7.053  0.3794  0.3288 -0.6359
   63MOL    C7718801   7.321   6.983   6.677  0.5709 -0.0548  0.4833
   63MOL    C7818802   7.434   7.003   6.568  0.1231  0.8686  0.4556
   63MOL    C7918803   7.565   6.930   6.614 -0.1411  0.4232  0.5086
   63MOL    C8018804   7.396   6.939   6.435 -0.2752 -1.0612  0.1713
   63MOL    O8118805   7.462   6.856   6.376 -0.0693 -0.0895 -0.0171
   63MOL    O8218806   7.287   6.983   6.381 -0.3374 -0.1933  0.3070
   63MOL    C8318807   7.262   6.946   6.243  0.4201  0.0285 -0.7012
   63MOL    H8418808   7.338   7.051   6.760  5.0024 -1.9754  1.2988
   63MOL    H8518809   7.229   7.019   6.630  1.8959  1.0238 -1.3678
   63MOL    H8618810   7.651   6.955   6.552 -2.4424 -0.4095 -3.2674
   63MOL    H8718811   7.599   6.965   6.711  1.1179  0.7202 -0.0368
   63MOL    H8818812   7.562   6.822   6.607  1.5667  0.4343 -0.5909
   63MOL    H8918813   7.176   7.001   6.205  1.1532  2.0987  0.5861
   63MOL    H9018814   7.243   6.839   6.236  0.8165 -0.1308  0.6637
   63MOL    H9118815   7.349   6.975   6.183  0.7058  0.9988  0.1810
   63MOL    C9218816   7.462   7.160   6.557 -0.3161 -0.0321 -0.1660
   63MOL    C9318817   7.536   7.228   6.433  0.5191  0.3255  0.2571
   63MOL    C9418818   7.651   7.150   6.379  0.7785 -0.0138  0.1039
   63MOL    C9518819   7.436   7.263   6.316 -0.1202 -0.2422  0.4465
   63MOL    O9618820   7.316   7.281   6.332 -0.4598  0.0609 -0.5051
   63MOL    O9718821   7.498   7.290   6.203  0.2796  0.1414  0.1875
   63MOL    C9818822   7.434   7.324   6.086  0.3856  0.2401 -0.4768
   63MOL    H9918823   7.486   7.205   6.652  0.4339  1.0889 -0.8763
   63MOL   H10018824   7.359   7.192   6.547 -0.1524  0.2321 -1.1014
   63MOL   H10118825   7.725   7.130   6.456 -0.9787 -0.3755  1.7413
   63MOL   H10218826   7.623   7.049   6.350 -0.0714 -0.3592  2.0691
   63MOL   H10318827   7.703   7.194   6.294 -0.7247  1.1670 -0.2208
   63MOL   H10418828   7.499   7.377   6.017 -2.3105  3.6337 -0.5515
   63MOL   H10518829   7.331   7.360   6.093  0.5394  0.6317 -0.2470
   63MOL   H10618830   7.427   7.225   6.041 -3.3018  1.2546 -2.3720
   63MOL   C10718831   7.601   7.361   6.485 -0.1905  0.0004  0.4308
   63MOL   C10818832   7.531   7.505   6.506 -0.2786  0.7671 -0.6158
   63MOL   C10918833   7.536   7.589   6.376 -0.3751  0.7945  0.0389
   63MOL   C11018834   7.383   7.496   6.566  0.3435 -0.0734  0.2616
   63MOL   O11118835   7.282   7.526   6.496  0.3154 -0.1144  0.1468
   63MOL   O11218836   7.380   7.440   6.692  0.3287  0.4160  0.5461
   63MOL   C11318837   7.261   7.449   6.771 -0.0159 -0.2832  0.9327
   63MOL   H11418838   7.695   7.379   6.433  0.1254 -3.0489 -0.1162
   63MOL   H11518839   7.639   7.334   6.583  0.5663  1.0897  0.4437
   63MOL   H11618840   7.636   7.618   6.344 -0.2393 -0.9681 -1.2092
   63MOL   H11718841   7.486   7.544   6.290 -0.0642  0.6549 -0.0674
   63MOL   H11818842   7.483   7.684   6.382 -0.8958  0.6151 -1.5228
   63MOL   H11918843   7.182   7.509   6.725  0.3571 -0.1541  0.4650
   63MOL   H12018844   7.282   7.492   6.869 -2.1682  1.9021  0.4895
   63MOL   H12118845   7.218   7.350   6.786  1.8459 -1.0569  1.2640
   63MOL   C12218846   7.624   7.583   6.613 -1.1873 -0.1725  0.1518
   63MOL   C12318847   7.614   7.736   6.657  0.2255 -0.3836  0.1636
   63MOL   C12418848   7.741   7.760   6.745  0.0250 -0.1516 -0.5170
   63MOL   C12518849   7.641   7.837   6.543 -0.1716  0.5661 -0.0111
   63MOL   O12618850   7.570   0.058   6.518  0.4881  0.9610  0.2932
   63MOL   O12718851   7.762   7.812   6.467  0.2469  0.0438  0.1622
   63MOL   C12818852   7.803   0.026   6.370 -0.2357 -0.6081  1.1637
   63MOL   H12918853   7.723   7.571   6.569 -1.3335  2.6723 -1.0355
   63MOL   H13018854   7.615   7.520   6.702 -4.0568 -0.7225 -0.4837
   63MOL   H13118855   7.742   7.707   6.840 -0.8240 -0.8391 -0.8857
   63MOL   H13218856   7.831   7.740   6.686  0.5120  0.1097  0.1351
   63MOL   H13318857   7.752   7.863   6.778 -0.6780 -0.4361  0.6365
   63MOL   H13418858   0.028   0.005   6.337 -0.8496 -0.0233 -1.2262
   63MOL   H13518859   7.809   0.122   6.419  1.9573  0.6718 -1.4494
   63MOL   H13618860   7.746   0.032   6.277  0.1322 -0.2709  0.9562
   63MOL   C13718861   7.475   7.766   6.729  0.0759 -0.2108 -0.8479
   63MOL   C13818862   7.456   7.866   6.850 -0.6664 -0.5257  0.7044
   63MOL   C13918863   7.469   0.137   6.800  0.1949  0.3613  0.2291
   63MOL   C14018864   7.302   7.859   6.887  0.0133  0.0710  0.0844
   63MOL   O14118865   7.239   0.086   6.902  0.5884 -0.1723  0.0843
   63MOL   O14218866   7.254   7.733   6.877  0.2449  0.0739  0.4935
   63MOL   C14318867   7.123   7.711   6.926 -0.2192  0.3332  0.8547
   63MOL   H14418868   7.463   7.669   6.777  0.8408 -0.4787 -1.1919
   63MOL   H14518869   7.388   7.777   6.663 -1.7677 -0.8898  1.4103
   63MOL   H14618870   7.570   0.151   6.762  0.2321  1.7259  0.8147
   63MOL   H14718871   7.404   0.145   6.713 -1.5295 -0.0491  1.4518
   63MOL   H14818872   7.463   0.215   6.876 -0.8404  1.1196 -0.6195
   63MOL   H14918873   7.129   7.683   7.031 -1.4939  1.7667  1.3265
   63MOL   H15018874   7.087   7.631   6.862  0.2431  0.5690  0.2926
   63MOL   H15118875   7.055   7.796   6.923 -2.3453 -1.3618 -0.6280
   63MOL   C15218876   7.546   7.847   6.977  0.7122 -0.0295  0.2802
   63MOL   C15318877   7.497   7.862   7.130  0.9436  0.0965  0.5103
   63MOL   C15418878   7.424   0.122   7.154  0.3476  0.4429  0.1715
   63MOL   C15518879   7.399   7.749   7.178 -1.1678  0.3774  0.0573
   63MOL   O15618880   7.392   7.644   7.121  0.0403  0.1402  0.5371
   63MOL   O15718881   7.330   7.780   7.293 -0.7294  0.1031  0.2677
   63MOL   C15818882   7.242   7.682   7.345 -0.8978  0.0659 -0.3113
   63MOL   H15918883   7.645   0.013   6.963  0.9026 -1.4585 -3.3733
   63MOL   H16018884   7.585   7.745   6.978  3.9643  1.1528  1.3075
   63MOL   H16118885   7.457   0.215   7.107 -0.9334  0.9800  0.2992
   63MOL   H16218886   7.319   0.120   7.125  0.5067  0.3468 -0.4019
   63MOL   H16318887   7.419   0.144   7.261  0.0880 -1.3423  0.5351
   63MOL   H16418888   7.165   7.733   7.404  0.9234 -0.9599  3.0529
   63MOL   H16518889   7.283   7.606   7.411  2.6310 -0.7787 -3.2639
   63MOL   H16618890   7.190   7.630   7.265 -0.5171  1.4649 -1.4939
   63MOL   C16718891   7.630   7.847   7.209  0.2164 -0.5180  0.1834
   63MOL   C16818892   7.659   7.831   7.362  0.3162  0.0513  0.2121
   63MOL   C16918893   7.594   0.075   7.442  0.4128  0.3073 -0.2674
   63MOL   C17018894   7.601   7.700   7.422  0.1198  0.1609  1.4246
   63MOL   O17118895   7.530   7.711   7.522 -0.2043  0.2514  0.1893
   63MOL   O17218896   7.636   7.586   7.356 -0.1345  0.5437  0.0594
   63MOL   C17318897   7.598   7.453   7.406  0.0195  0.1158  0.2439
   63MOL   H17418898   7.687   0.057   7.176 -1.2394  0.6977  0.8475
   63MOL   H17518899   7.689   7.766   7.166  1.6229  0.5188  0.1298
   63MOL   H17618900   7.492   0.056   7.475  0.0212  2.1098 -0.3691
   63MOL   H17718901   7.650   0.076   7.535 -0.5670 -2.4611  0.4117
   63MOL   H17818902   7.600   0.175   7.400  0.4579  0.3233 -0.2227
   63MOL   H17918903   7.656   7.388   7.341 -0.2145 -0.7703  0.9178
   63MOL   H18018904   7.490   7.443   7.397  0.1972 -0.6571 -1.1035
   63MOL   H18118905   7.638   7.440   7.507 -0.6076 -1.5888  0.2917
   63MOL   C18218906   7.818   7.834   7.391  0.5021 -0.1311  0.2035
   63MOL   C18318907   0.069   7.768   7.326 -0.4849  0.3240  0.1472
   63MOL   C18418908   0.056   7.614   7.353 -0.7134  0.7631  0.4357
   63MOL   C18518909   0.083   7.792   7.173 -0.0544  0.6039  0.1954
   63MOL   O18618910   0.136   7.713   7.102 -0.2784 -0.2662  0.2476
   63MOL   O18718911   0.051   0.038   7.132 -0.4028  0.2110  0.2930
   63MOL   C18818912   0.087   0.086   7.000 -0.5574 -0.3678 -0.1856
   63MOL   H18918913   7.818   7.816   7.498 -1.9157 -2.8984 -0.1866
   63MOL   H19018914   7.829   0.064   7.376 -0.3394 -0.1397 -0.5059
   63MOL   H19118915   7.868   7.561   7.284 -1.2117 -1.5734  2.6253
   63MOL   H19218916   0.152   7.565   7.340 -0.4435  0.9756  1.5619
   63MOL   H19318917   0.031   7.592   7.457 -3.3819 -0.6478 -0.4524
   63MOL   H19418918   0.063   0.192   6.999  0.4707 -0.0619  2.3794
   63MOL   H19518919   0.031   0.035   6.921 -0.6805 -1.1948  0.4274
   63MOL   H19618920   0.194   0.073   6.986 -0.2575  1.0552  0.6165
   63MOL   C19718921   0.196   7.811   7.413  0.4510 -0.5692  0.4005
   63MOL   C19818922   0.225   0.077   7.460 -0.0359  0.0674 -0.2570
   63MOL   C19918923   0.198   0.180   7.350  0.4357  0.1739  0.6505
   63MOL   C20018924   0.141   0.099   7.592 -0.3578 -0.0555 -0.1461
   63MOL   O20118925   0.113   0.012   7.679 -0.0708 -0.3455 -0.1521
   63MOL   O20218926   0.098   0.228   7.599  0.5253  0.4601 -0.1817
   63MOL   C20318927   0.001   0.269   7.693  0.5106  0.5888 -0.2186
   63MOL   H20418928   0.283   7.768   7.363 -0.9592 -0.5019 -2.2443
   63MOL   H20518929   0.201   7.751   7.504  3.0731  0.2243  0.8128
   63MOL   H20618930   0.090   0.196   7.342  0.4521 -0.4085 -0.8716
   63MOL   H20718931   0.240   0.276   7.380  0.4350 -0.4428  2.7237
   63MOL   H20818932   0.244   0.149   7.257  1.5398  0.9223  0.9362
   63MOL   H20918933   7.825   0.355   7.652 -0.8382 -0.0212  0.2296
   63MOL   H21018934   0.053   0.310   7.780  0.4578  0.5291 -0.1586
   63MOL   H21118935   7.825   0.180   7.726 -1.8292  1.6975 -0.8688
   63MOL   C21218936   0.376   0.102   7.499 -0.1323 -0.4235  0.3822
   63MOL   C21318937   0.475   7.871   7.572  0.1557  0.1903  0.1359
   63MOL   C21418938   0.410   7.818   7.694  0.5784 -0.2178  0.3570
   63MOL   C21518939   0.514   7.756   7.474 -0.2940  0.0119  0.0851
   63MOL   O21618940   0.500   7.638   7.511  0.4047 -0.0292 -0.6500
   63MOL   O21718941   0.563   7.797   7.361 -0.3908  0.0279  0.2246
   63MOL   C21818942   0.595   7.713   7.254  0.2321 -0.3927 -0.1497
   63MOL   H21918943   0.383   0.200   7.546  1.3284 -0.2275 -0.1896
   63MOL   H22018944   0.436   0.124   7.411  0.3636 -0.8917  0.5959
   63MOL   H22118945   0.481   7.758   7.752  1.3465  1.2512  0.9698
   63MOL   H22218946   0.383   0.019   7.765  0.0659 -0.3455  0.3052
   63MOL   H22318947   0.328   7.748   7.681  1.0344 -0.6640 -0.1200
   63MOL   H22418948   0.621   7.783   7.175 -0.5653 -1.7827 -1.6795
   63MOL   H22518949   0.502   7.668   7.221  0.4767 -1.1296  0.1363
   63MOL   H22618950   0.677   7.641   7.264 -0.1007 -1.0079 -1.6588
   63MOL   C22718951   0.601   0.081   7.613 -0.7976 -0.5218 -0.1189
   63MOL   C22818952   0.713   0.037   7.717 -0.1964 -0.3239  0.5594
   63MOL   C22918953   0.672   0.081   7.861  0.0696 -0.2040  0.3550
   63MOL   C23018954   0.742   7.759   7.722 -1.0425  0.4406 -0.2673
   63MOL   O23118955   0.706   7.690   7.825 -0.4051  0.0138  0.3543
   63MOL   O23218956   0.804   7.709   7.611  0.1274 -0.6218  0.2469
   63MOL   C23318957   0.813   7.569   7.602  0.3269  0.2125 -0.0179
   63MOL   H23418958   0.559   0.170   7.658 -1.2713 -1.7455  1.9582
   63MOL   H23518959   0.642   0.118   7.520 -1.4834  0.9448  0.1574
   63MOL   H23618960   0.581   0.038   0.023  0.1250  0.1520  0.8760
   63MOL   H23718961   0.759   0.051   0.041  2.4135 -1.8185 -3.8054
   63MOL   H23818962   0.656   0.188   7.877  1.3677  0.0390  0.0711
   63MOL   H23918963   0.879   7.550   7.517 -0.7284 -0.7866 -0.6231
   63MOL   H24018964   0.715   7.535   7.568  0.2173 -0.1629  0.6774
   63MOL   H24118965   0.850   7.509   7.685 -0.7424 -2.6453 -1.5444
   63MOL   C24218966   0.853   0.097   7.681  0.4862  0.4819  0.0668
   63MOL   C24318967   0.900   0.245   7.705  0.0774  0.1132 -0.2626
   63MOL   C24418968   0.795   0.345   7.655  0.3814 -0.3008  0.5279
   63MOL   C24518969   0.928   0.279   7.854 -0.1868  0.3533 -0.0889
   63MOL   O24618970   0.908   0.391   0.015 -0.3521  0.4375 -0.1868
   63MOL   O24718971   0.962   0.176   0.058  0.2864  0.3719 -0.0487
   63MOL   C24818972   0.960   0.197   0.198 -0.4908 -0.0663 -0.1536
   63MOL   H24918973   0.864   0.068   7.577  0.3531  0.7169 -0.0152
   63MOL   H25018974   0.927   0.041   7.738 -0.5069 -0.8244  0.0720
   63MOL   H25118975   0.819   0.450   7.672  0.0763 -0.5108  2.3702
   63MOL   H25218976   0.775   0.334   7.549 -0.0393 -1.1269  0.6892
   63MOL   H25318977   0.711   0.323   7.721 -0.5957  0.3581 -0.4830
   63MOL   H25418978   0.967   0.101   0.250 -0.2363 -2.0228 -3.6862
   63MOL   H25518979   0.866   0.243   0.226 -1.6836 -2.5137 -0.0429
   63MOL   H25618980   1.047   0.257   0.227 -1.4135  0.5144  1.5059
   63MOL   C25718981   1.028   0.263   7.613 -0.4876 -0.7205  0.1507
   63MOL   C25818982   1.173   0.232   7.645 -0.0895 -0.3052 -0.0434
   63MOL   C25918983   1.237   0.325   7.753  0.0005  1.0556 -0.2155
   63MOL   C26018984   1.186   0.079   7.688  0.0985 -0.1576  0.1762
   63MOL   O26118985   1.212   0.053   7.800 -0.5440 -0.2037 -0.1085
   63MOL   O26218986   1.150   7.862   7.591 -0.7092 -0.0941  0.8162
   63MOL   C26318987   1.148   7.726   7.630 -0.4606 -0.4182  0.7361
   63MOL   H26418988   1.031   0.370   7.594 -1.8729 -0.4573  1.3204
   63MOL   H26518989   1.002   0.215   7.519 -0.5802 -0.9298  0.2840
   63MOL   H26618990   1.173   0.343   7.839 -0.3574  0.6884 -0.4040
   63MOL   H26718991   1.324   0.272   7.791 -0.6266  0.4447  0.3592
   63MOL   H26818992   1.259   0.427   7.720  0.1467  0.6032 -1.5430
   63MOL   H26918993   1.228   7.706   7.701  1.7924  0.3891 -1.5137
   63MOL   H27018994   1.163   7.668   7.539 -1.3756 -0.6479  0.7194
   63MOL   H27118995   1.051   7.697   7.671  0.8610 -2.9540  2.2524
   63MOL   C27218996   1.256   0.242   7.501  0.0352 -0.2024 -0.1942
   63MOL   C27318997   1.409   0.234   7.476 -0.3413  0.3017 -0.1044
   63MOL   C27418998   1.430   0.221   7.325  0.3295  0.3281  0.2988
   63MOL   C27518999   1.474   0.364   7.519  0.3556  0.3086 -0.2918
   63MOL   O27619000   1.557   0.361   7.608 -0.1440  0.1671  0.4040
   63MOL   O27719001   1.446   0.476   7.449  0.1784  0.0015 -0.1788
   63MOL   C27819002   1.501   0.597   7.492  0.4789  0.6845  0.7653
   63MOL   H27919003   1.226   0.331   7.446  0.2985  0.8646  1.3486
   63MOL   H28019004   1.201   0.175   7.436 -0.0779  0.0397 -0.3511
   63MOL   H28119005   1.397   0.127   7.280 -0.9457  0.2187  1.4200
   63MOL   H28219006   1.372   0.288   7.262 -0.7454 -0.0950  0.8173
   63MOL   H28319007   1.535   0.234   7.299  0.1991  2.6886  0.9084
   63MOL   H28419008   1.419   0.667   7.480 -1.4021 -1.6256 -0.3838
   63MOL   H28519009   1.591   0.625   7.438  0.0347 -1.2078 -1.0366
   63MOL   H28619010   1.525   0.593   7.598 -2.9314  0.3205  1.5619
   63MOL   C28719011   1.472   0.108   7.554  0.5305  0.3996 -0.0229
   63MOL   C28819012   1.628   0.073   7.555 -0.4270  0.4634  0.3193
   63MOL   C28919013   1.674   7.843   7.653  0.6126  0.5385  0.3930
   63MOL   C29019014   1.684   0.030   7.418  0.0080  0.0549 -0.0364
   63MOL   O29119015   1.787   0.081   7.378  0.0400  0.0182  0.2671
   63MOL   O29219016   1.610   7.825   7.347  0.4604 -0.0057  0.5805
   63MOL   C29319017   1.640   7.778   7.218 -0.5440  0.7846  0.0501
   63MOL   H29419018   1.421   0.016   7.523  1.6012 -0.1534 -0.1603
   63MOL   H29519019   1.446   0.131   7.657  0.6371 -0.8226  0.2819
   63MOL   H29619020   1.621   7.852   7.747 -0.6855  1.4844 -0.4129
   63MOL   H29719021   1.656   7.744   7.611  0.6869  0.9763 -0.6839
   63MOL   H29819022   1.782   7.849   7.672  0.6354  2.0625 -0.1503
   63MOL   H29919023   1.686   7.863   7.167 -1.2752  0.7246 -0.7215
   63MOL   H30019024   1.555   7.751   7.155 -1.1609 -0.7941  1.5473
   63MOL   H30119025   1.722   7.706   7.213  1.5147  3.1016 -1.1421
   63MOL   H30219026   1.680   0.163   7.588  0.6060  0.5337 -1.4246
   64MOL     C119027   5.890   2.802   7.680  0.0200 -0.0039 -0.6839
   64MOL     C219028   5.837   2.938   7.620 -0.0469  0.6002 -0.0544
   64MOL     C319029   5.910   3.046   7.703 -0.1895 -0.5343  0.3169
   64MOL     C419030   5.864   2.946   7.472 -0.3872 -0.1722 -0.7298
   64MOL     O519031   5.931   3.034   7.419 -0.2693 -0.5761  0.0376
   64MOL     O619032   5.810   2.848   7.406 -0.1304 -0.1736 -0.2169
   64MOL     C719033   5.825   2.841   7.263  0.2639  0.4140  0.0824
   64MOL     H819034   5.998   2.791   7.685 -0.1011 -0.7626  0.4453
   64MOL     H919035   5.862   2.800   7.785  0.4652  1.9622 -0.5023
   64MOL    H1019036   5.861   3.077   7.796 -1.9428  1.5759 -1.2514
   64MOL    H1119037   6.002   3.007   7.745  0.0081  3.1626  3.6314
   64MOL    H1219038   5.924   3.142   7.654 -0.5783 -0.1191  1.0029
   64MOL    H1319039   5.833   2.932   7.203 -3.0041 -0.1496 -1.2925
   64MOL    H1419040   5.732   2.799   7.226  0.2406  0.2906  0.2787
   64MOL    H1519041   5.910   2.779   7.234 -0.3531 -0.8101  0.8327
   64MOL    H1619042   5.848   2.708   7.645 -1.7806 -0.3747  2.3088
   64MOL    C1719043   5.675   2.940   7.635  0.0424 -0.2643 -0.4216
   64MOL    C1819044   5.585   3.068   7.611  0.1964 -0.9254 -0.5088
   64MOL    C1919045   5.614   3.171   7.726 -0.6947 -0.2629  0.4262
   64MOL    C2019046   5.614   3.155   7.485 -0.6208  1.1807 -0.1950
   64MOL    O2119047   5.637   3.277   7.485  0.9848 -0.4681 -0.2539
   64MOL    O2219048   5.601   3.083   7.384 -0.0887  0.1383 -0.0636
   64MOL    C2319049   5.614   3.150   7.255 -0.3493  0.4794 -0.4318
   64MOL    H2419050   5.659   2.907   7.738 -0.3523 -0.7891 -0.6530
   64MOL    H2519051   5.632   2.865   7.570  0.0473 -1.9894  1.5055
   64MOL    H2619052   5.718   3.205   7.721 -1.1106  0.8854 -0.5175
   64MOL    H2719053   5.543   3.253   7.719 -0.8204 -0.4443 -0.4985
   64MOL    H2819054   5.595   3.128   7.825 -0.9956  1.2599  1.0391
   64MOL    H2919055   5.610   3.069   7.182  0.5690  1.1265 -1.2111
   64MOL    H3019056   5.698   3.219   7.246 -1.9360  2.4504 -0.4805
   64MOL    H3119057   5.536   3.224   7.243  0.2154  0.7636 -2.5360
   64MOL    C3219058   5.423   3.030   7.600  0.8643  0.1067  0.6933
   64MOL    C3319059   5.332   2.967   7.708 -0.1341 -0.1564  0.4818
   64MOL    C3419060   5.359   3.038   7.843 -0.5155  0.1500  0.5358
   64MOL    C3519061   5.185   3.000   7.667 -0.1383  0.4591 -0.6688
   64MOL    O3619062   5.141   2.983   7.551 -0.0272  0.2063  0.3662
   64MOL    O3719063   5.100   3.037   7.773  0.2260  0.1432  0.1678
   64MOL    C3819064   4.961   3.050   7.744  0.1893 -0.3947 -0.4773
   64MOL    H3919065   5.397   2.981   7.506  2.0608 -0.2074  0.5180
   64MOL    H4019066   5.379   3.127   7.579  2.0045  0.8151  1.4573
   64MOL    H4119067   5.448   3.000   0.016 -1.7209 -2.2001  0.9645
   64MOL    H4219068   5.371   3.146   7.828 -1.1505  0.3889  1.6757
   64MOL    H4319069   5.282   3.044   0.042 -2.3664  2.3142 -1.3831
   64MOL    H4419070   4.919   2.981   7.671  0.6476 -1.7634  0.5483
   64MOL    H4519071   4.946   3.148   7.699  1.2080 -0.5089 -1.0838
   64MOL    H4619072   4.903   3.035   7.835  0.9061  0.6358  0.1517
   64MOL    C4719073   5.358   2.818   7.718  0.3141 -0.2751  0.0944
   64MOL    C4819074   5.265   2.702   7.767 -0.1107  0.9097 -0.6561
   64MOL    C4919075   5.130   2.686   7.693  0.1533  0.1564  0.5928
   64MOL    C5019076   5.342   2.568   7.736  0.4156  0.3318 -0.0294
   64MOL    O5119077   5.314   2.478   7.657  0.1114  0.1311 -0.5218
   64MOL    O5219078   5.453   2.555   7.816  0.1896 -0.0576  0.2198
   64MOL    C5319079   5.531   2.430   7.806 -0.2968 -0.1874 -0.9733
   64MOL    H5419080   5.462   2.799   7.744  0.5242  0.0540 -0.4932
   64MOL    H5519081   5.368   2.792   7.613 -0.4626  0.9293 -0.2942
   64MOL    H5619082   5.148   2.664   7.588  4.1313 -0.1694  1.2674
   64MOL    H5719083   5.071   2.600   7.727  1.6463 -0.1124  2.6152
   64MOL    H5819084   5.068   2.774   7.709 -1.0475 -0.5425 -0.1544
   64MOL    H5919085   5.474   2.350   7.760 -0.2690 -0.7899  0.0297
   64MOL    H6019086   5.547   2.402   0.032  0.2826 -0.8224 -1.2357
   64MOL    H6119087   5.627   2.450   7.757 -0.1758  2.3077  0.1763
   64MOL    C6219088   5.243   2.730   0.042 -0.3007 -0.4127  0.1966
   64MOL    C6319089   5.129   2.663   0.129  0.4344 -0.3335 -0.8222
   64MOL    C6419090   4.992   2.733   0.104 -0.4377  0.0925  0.3119
   64MOL    C6519091   5.114   2.509   0.109 -0.2886 -0.3904  0.3223
   64MOL    O6619092   5.005   2.461   0.086  0.1312 -0.4277 -0.1608
   64MOL    O6719093   5.233   2.441   0.112  0.2997  0.3395 -0.1477
   64MOL    C6819094   5.231   2.304   0.093 -0.5557  0.2969  0.6065
   64MOL    H6919095   5.222   2.834   0.065 -2.3589 -0.6173 -0.7241
   64MOL    H7019096   5.341   2.711   0.087 -0.0856  0.0445 -0.0786
   64MOL    H7119097   4.913   2.729   0.179  0.6863  0.2201  1.5185
   64MOL    H7219098   5.010   2.838   0.081  2.0657 -0.4763 -0.4338
   64MOL    H7319099   4.945   2.703   0.010 -1.0443  0.7384  0.3990
   64MOL    H7419100   5.174   2.277   0.005  0.0126  1.6272 -0.1796
   64MOL    H7519101   5.191   2.250   0.179  0.6196  2.0424  2.2917
   64MOL    H7619102   5.335   2.275   0.077 -0.4369  1.0387  0.0080
   64MOL    C7719103   5.166   2.703   0.280  0.2081  0.2200  0.1771
   64MOL    C7819104   5.114   2.637   0.409  0.4763  1.0059  0.3194
   64MOL    C7919105   4.952   2.627   0.405  0.3436 -0.4955 -0.2368
   64MOL    C8019106   5.165   2.496   0.430  0.7597 -0.4519 -0.2903
   64MOL    O8119107   5.264   2.457   0.375 -0.5818  0.6124  0.2022
   64MOL    O8219108   5.104   2.424   0.524 -0.1303 -0.1226 -0.3528
   64MOL    C8319109   5.157   2.300   0.572  0.6882  0.3977 -0.3581
   64MOL    H8419110   5.135   2.807   0.294 -1.8518 -0.2989 -0.4737
   64MOL    H8519111   5.274   2.708   0.297  0.3911 -0.9897 -0.5872
   64MOL    H8619112   4.911   2.594   0.500 -2.4118  0.5044 -1.0407
   64MOL    H8719113   4.914   2.729   0.396 -1.1582 -1.1483 -1.5765
   64MOL    H8819114   4.926   2.554   0.328 -1.1233  0.1988 -0.4208
   64MOL    H8919115   5.262   2.326   0.588  1.2271 -1.6578 -0.3449
   64MOL    H9019116   5.136   2.223   0.498 -0.8205  1.2287 -0.8088
   64MOL    H9119117   5.111   2.276   0.667 -1.6067  1.2991 -1.2212
   64MOL    C9219118   5.149   2.721   0.538  0.5461 -0.0099 -0.1415
   64MOL    C9319119   5.291   2.785   0.579  0.8495 -0.4928  0.0687
   64MOL    C9419120   5.398   2.678   0.554  0.3977  0.0845  0.2052
   64MOL    C9519121   5.324   2.894   0.477 -0.2775  0.1199  0.2431
   64MOL    O9619122   5.235   2.962   0.430 -0.0056  0.2508  0.1864
   64MOL    O9719123   5.458   2.914   0.468  0.9119  0.0845 -0.0567
   64MOL    C9819124   5.497   3.005   0.368 -0.4624 -0.0967  0.0085
   64MOL    H9919125   5.111   2.660   0.620 -0.1268 -0.1617 -0.5644
   64MOL   H10019126   5.078   2.803   0.537  0.5154 -0.0135  1.7333
   64MOL   H10119127   5.410   2.651   0.449  0.4582  0.2817  0.1612
   64MOL   H10219128   5.502   2.698   0.579  0.7774  0.9183 -1.9510
   64MOL   H10319129   5.371   2.588   0.609 -2.0951 -1.9154 -3.9942
   64MOL   H10419130   5.448   2.982   0.273 -0.4526 -1.9711  0.4440
   64MOL   H10519131   5.603   3.028   0.360 -0.2894 -1.2093 -0.9495
   64MOL   H10619132   5.457   3.103   0.396  0.9846  0.3219  0.6466
   64MOL   C10719133   5.292   2.843   0.728 -0.1734 -0.3061 -0.1608
   64MOL   C10819134   5.311   2.750   0.854 -0.2492 -0.2667 -0.4642
   64MOL   C10919135   5.212   2.635   0.847 -0.3371 -0.6693 -0.3517
   64MOL   C11019136   5.455   2.692   0.861 -0.0455 -0.4772  0.5246
   64MOL   O11119137   5.481   2.575   0.879  0.5726 -0.3771  0.3833
   64MOL   O11219138   5.548   2.786   0.850 -0.0768 -0.5310 -0.4337
   64MOL   C11319139   5.673   2.756   0.813 -0.1078  0.3340 -0.4917
   64MOL   H11419140   5.199   2.897   0.747  0.2891 -0.4828  2.8371
   64MOL   H11519141   5.363   2.926   0.727  1.3747 -1.5895  1.2606
   64MOL   H11619142   5.220   2.579   0.940  2.8127  2.0819  1.1555
   64MOL   H11719143   5.108   2.667   0.858 -0.0625  0.3297 -0.6194
   64MOL   H11819144   5.211   2.558   0.770  1.0659 -0.4482 -0.6029
   64MOL   H11919145   5.739   2.826   0.864 -0.8529  0.5235  0.2466
   64MOL   H12019146   5.666   2.782   0.708 -2.5963 -0.6591 -0.6146
   64MOL   H12119147   5.698   2.651   0.829  0.1998  0.5797  0.7321
   64MOL   C12219148   5.278   2.824   0.993 -0.2908  0.2998 -0.7515
   64MOL   C12319149   5.287   2.971   1.041 -0.0979  0.1721  0.6005
   64MOL   C12419150   5.423   3.031   1.005 -0.3136 -0.1193  0.4025
   64MOL   C12519151   5.174   3.049   0.973  0.4859 -0.5422  0.3619
   64MOL   O12619152   5.202   3.136   0.888 -0.6891  0.5443 -0.0785
   64MOL   O12719153   5.048   3.023   1.021  0.1685  0.3305 -0.1634
   64MOL   C12819154   4.935   3.088   0.972  0.5501 -0.1489  0.3596
   64MOL   H12919155   5.350   2.774   1.057  2.3373  0.1954 -3.6801
   64MOL   H13019156   5.181   2.792   1.032  1.2958 -2.0066  1.4588
   64MOL   H13119157   5.501   2.964   1.041  0.5741  1.8002  2.2435
   64MOL   H13219158   5.430   3.021   0.897 -0.2209  2.5527  0.1170
   64MOL   H13319159   5.448   3.135   1.027 -0.5958 -0.2069  1.1642
   64MOL   H13419160   4.840   3.056   1.016  0.7143  1.5288  2.0074
   64MOL   H13519161   4.937   3.076   0.864  0.1456 -0.0120  0.3376
   64MOL   H13619162   4.937   3.193   1.002  0.2854  0.1914 -0.7906
   64MOL   C13719163   5.266   2.964   1.199 -0.1954 -0.4208 -0.3306
   64MOL   C13819164   5.281   3.082   1.299 -0.0094 -0.1637 -0.0188
   64MOL   C13919165   5.441   3.095   1.327 -0.0354  0.4864 -0.6178
   64MOL   C14019166   5.219   3.207   1.248 -0.2344  0.6858  0.2985
   64MOL   O14119167   5.102   3.237   1.276 -0.3983 -0.1529 -0.4839
   64MOL   O14219168   5.307   3.277   1.175  0.1593  0.1992 -0.2563
   64MOL   C14319169   5.255   3.387   1.096  0.0114 -0.3793 -0.2125
   64MOL   H14419170   5.345   2.893   1.223  0.4107  0.1771 -0.5585
   64MOL   H14519171   5.173   2.914   1.227 -1.6251  0.4666 -3.2495
   64MOL   H14619172   5.469   3.002   1.376  0.9175  0.9451 -0.2888
   64MOL   H14719173   5.491   3.115   1.233  2.0368  2.1446  0.7933
   64MOL   H14819174   5.464   3.185   1.384 -0.0503  0.9973 -1.4180
   64MOL   H14919175   5.323   3.432   1.024  0.0553  0.4891  0.3660
   64MOL   H15019176   5.231   3.473   1.159  1.0714  0.3704 -0.8153
   64MOL   H15119177   5.166   3.363   1.039 -1.5562  0.9392  1.5899
   64MOL   C15219178   5.206   3.039   1.436 -0.3035 -0.0221  0.5830
   64MOL   C15319179   5.219   3.112   1.580 -0.0983 -0.8904  0.4380
   64MOL   C15419180   5.192   3.265   1.558 -0.3821 -0.2232  0.7702
   64MOL   C15519181   5.108   3.048   1.672 -0.3401  0.8290 -0.0215
   64MOL   O15619182   5.026   3.116   1.733 -0.1367 -0.0351  0.1049
   64MOL   O15719183   5.118   2.911   1.675  0.1915 -0.1167  0.7621
   64MOL   C15819184   5.019   2.838   1.737  0.4846 -0.1899 -0.0682
   64MOL   H15919185   5.235   2.936   1.453 -0.9513  0.0122  1.9158
   64MOL   H16019186   5.101   3.044   1.409 -0.0827 -0.8397 -0.4664
   64MOL   H16119187   5.090   3.284   1.526 -0.0135 -2.7850 -2.2253
   64MOL   H16219188   5.211   3.327   1.645  0.6306  0.2900  0.2006
   64MOL   H16319189   5.255   3.313   1.483 -0.5058 -2.0842 -0.5463
   64MOL   H16419190   5.010   2.869   1.841  2.2609  0.1608  0.0017
   64MOL   H16519191   5.046   2.732   1.730  0.7195 -0.0208 -1.8689
   64MOL   H16619192   4.924   2.843   1.683  0.2110 -2.0865  0.2057
   64MOL   C16719193   5.371   3.089   1.635 -0.3633  0.2334  0.0836
   64MOL   C16819194   5.416   3.097   1.791  0.6590  0.5844  0.5149
   64MOL   C16919195   5.374   2.969   1.867 -0.4538 -0.1944  0.3269
   64MOL   C17019196   5.574   3.112   1.793  0.3042  0.0660  0.0792
   64MOL   O17119197   5.646   3.033   1.853  0.0734 -0.0880 -0.0704
   64MOL   O17219198   5.620   3.205   1.709 -0.2785 -0.1262 -0.0847
   64MOL   C17319199   5.759   3.212   1.691 -0.0656 -0.0490 -0.8848
   64MOL   H17419200   5.420   3.173   1.587 -1.8572 -1.0635 -3.9479
   64MOL   H17519201   5.419   3.002   1.590 -1.4001 -0.1313 -0.3462
   64MOL   H17619202   5.272   2.984   1.902 -1.2017 -2.0927 -0.9796
   64MOL   H17719203   5.392   2.891   1.793  1.5195 -0.0206  0.5901
   64MOL   H17819204   5.439   2.956   1.954  2.5343  2.5403 -1.3719
   64MOL   H17919205   5.809   3.129   1.738 -0.2137  1.9560  2.9915
   64MOL   H18019206   5.805   3.302   1.732 -0.1314  0.3771 -1.7175
   64MOL   H18119207   5.780   3.215   1.584  0.9881 -0.7704 -0.6960
   64MOL   C18219208   5.358   3.235   1.855 -0.6129  0.6284 -0.1967
   64MOL   C18319209   5.354   3.264   2.015 -0.6245  0.4996  1.2051
   64MOL   C18419210   5.246   3.183   2.074 -0.1996 -0.0066 -0.1188
   64MOL   C18519211   5.490   3.232   2.074 -0.1706  0.1781  0.0074
   64MOL   O18619212   5.505   3.158   2.170 -0.0948 -0.0718  0.6862
   64MOL   O18719213   5.594   3.294   2.022  0.4304 -0.1428  0.2061
   64MOL   C18819214   5.732   3.270   2.068  1.2445  0.4651 -0.5455
   64MOL   H18919215   5.254   3.241   1.822 -1.8545 -0.3499  3.3943
   64MOL   H19019216   5.408   3.310   1.793 -0.9642 -0.9655 -2.4690
   64MOL   H19119217   5.269   3.082   2.107  0.1922  0.4797  1.1235
   64MOL   H19219218   5.207   3.236   2.161 -2.4961  1.9168 -2.2514
   64MOL   H19319219   5.161   3.170   2.007  0.3634  1.9978 -1.2370
   64MOL   H19419220   5.768   3.174   2.031  2.9485  1.0948 -0.5563
   64MOL   H19519221   5.724   3.260   2.176  1.8305 -1.4034 -0.6522
   64MOL   H19619222   5.802   3.350   2.044  1.2453  0.8550  0.7487
   64MOL   C19719223   5.331   3.417   2.022 -0.6238 -0.4235 -0.2795
   64MOL   C19819224   5.290   3.509   2.153 -0.1774  0.3125  0.1844
   64MOL   C19919225   5.350   3.441   2.282 -0.7353 -0.1480  0.8760
   64MOL   C20019226   5.363   3.646   2.141  0.5181 -0.3572 -0.5733
   64MOL   O20119227   5.472   3.667   2.095 -0.1091  0.3433 -0.2497
   64MOL   O20219228   5.297   3.740   2.205 -0.5599 -0.0963  0.2314
   64MOL   C20319229   5.358   3.869   2.224 -0.6330  0.0283  0.1450
   64MOL   H20419230   5.250   3.436   1.951 -1.9343  0.0144  1.2906
   64MOL   H20519231   5.413   3.472   1.976  0.6110 -1.2252  0.9156
   64MOL   H20619232   5.357   3.512   2.364 -1.1267  2.3707 -1.2092
   64MOL   H20719233   5.302   3.348   2.312  1.6117 -1.8022 -0.3521
   64MOL   H20819234   5.453   3.411   2.264  0.0277  2.2883  1.0059
   64MOL   H20919235   5.291   3.953   2.210  0.3950  0.9799  0.8218
   64MOL   H21019236   5.442   3.894   2.159 -0.2302 -0.3109  0.5313
   64MOL   H21119237   5.394   3.875   2.327  1.0326 -1.6991 -0.2927
   64MOL   C21219238   5.138   3.520   2.175 -0.3290  0.4105 -0.9526
   64MOL   C21319239   5.037   3.571   2.070 -0.2835  0.5378  0.2025
   64MOL   C21419240   5.104   3.670   1.980 -0.6668  0.1696 -0.7523
   64MOL   C21519241   4.975   3.456   1.987  0.3209 -0.1746 -0.0507
   64MOL   O21619242   4.992   3.336   2.021  0.1536 -0.1057  0.1516
   64MOL   O21719243   4.889   3.495   1.889  0.0877 -0.2714  0.0320
   64MOL   C21819244   4.818   3.393   1.817  0.6473 -0.9758  0.3644
   64MOL   H21919245   5.128   3.584   2.262 -0.5401 -0.7164 -0.1335
   64MOL   H22019246   5.089   3.434   2.220  0.2537  1.1553  1.1571
   64MOL   H22119247   5.134   3.759   2.037  1.6124 -1.6632  0.9913
   64MOL   H22219248   5.194   3.632   1.933 -0.6914 -0.4128 -0.3380
   64MOL   H22319249   5.040   3.715   1.904 -1.6101 -1.1524 -0.7443
   64MOL   H22419250   4.864   3.352   1.727 -0.7723  0.1034 -0.8682
   64MOL   H22519251   4.721   3.433   1.788  0.6991 -1.6472 -0.7508
   64MOL   H22619252   4.790   3.318   1.892  0.1959 -2.8157 -1.6002
   64MOL   C22719253   4.920   3.652   2.143 -0.8870 -0.8651 -0.5344
   64MOL   C22819254   4.820   3.585   2.249  0.6601  0.8291 -0.2296
   64MOL   C22919255   4.729   3.471   2.190  0.0130 -0.3153 -0.2174
   64MOL   C23019256   4.893   3.534   2.378  0.0572 -0.2721  0.5532
   64MOL   O23119257   4.890   3.414   2.415  0.3333  0.4091 -0.4671
   64MOL   O23219258   4.962   3.627   2.444  0.3132  0.1242 -0.2966
   64MOL   C23319259   5.027   3.601   2.569 -0.0897 -0.6845  0.4402
   64MOL   H23419260   4.864   3.687   2.056 -0.6449  0.2976 -0.2375
   64MOL   H23519261   4.962   3.744   2.183 -1.6012 -0.7978  0.0821
   64MOL   H23619262   4.645   3.443   2.252  1.4049 -2.6860  0.6627
   64MOL   H23719263   4.693   3.493   2.089 -0.0922 -1.7249 -0.4909
   64MOL   H23819264   4.783   3.378   2.175  1.4382  0.3269  0.8348
   64MOL   H23919265   5.087   3.511   2.564  0.8809  0.0746 -2.1293
   64MOL   H24019266   4.964   3.590   2.657 -0.3539  0.1777  0.3715
   64MOL   H24119267   5.098   3.680   2.592  1.9568 -2.0072 -1.1513
   64MOL   C24219268   4.726   3.691   2.318 -0.0509  0.0500  0.6879
   64MOL   C24319269   4.610   3.783   2.257 -0.0846  0.4728  0.6057
   64MOL   C24419270   4.644   3.828   2.114 -0.2797  0.6740 -0.3796
   64MOL   C24519271   4.471   3.704   2.248  0.4340 -0.4120  0.5173
   64MOL   O24619272   4.406   3.693   2.141 -0.2849  0.0716 -0.3320
   64MOL   O24719273   4.439   3.640   2.361 -0.6994 -0.1061 -0.0418
   64MOL   C24819274   4.312   3.569   2.367 -0.4045 -0.2271 -0.5174
   64MOL   H24919275   4.794   3.754   2.376  0.2283  0.1880  0.2147
   64MOL   H25019276   4.674   3.638   2.397 -0.8856  0.5272  0.4646
   64MOL   H25119277   4.645   3.740   2.049 -1.9671  0.4417 -0.1162
   64MOL   H25219278   4.571   3.904   2.087 -2.3647 -0.9285  0.5234
   64MOL   H25319279   4.739   3.881   2.112  0.2092 -0.1928 -0.9993
   64MOL   H25419280   4.339   3.465   2.346  1.1667  0.0214  0.1995
   64MOL   H25519281   4.231   3.606   2.303 -0.8519  0.7019  0.5823
   64MOL   H25619282   4.287   3.564   2.472 -0.5903  0.5794 -0.5241
   64MOL   C25719283   4.597   3.918   2.338 -0.4894 -0.6147 -0.0762
   64MOL   C25819284   4.558   3.946   2.485 -0.3489  0.1151 -0.2886
   64MOL   C25919285   4.635   4.069   2.520  0.0255  0.0077 -0.4568
   64MOL   C26019286   4.408   3.976   2.494  0.2757 -0.1963  0.3850
   64MOL   O26119287   4.364   4.088   2.495 -0.0983 -0.3687 -0.4476
   64MOL   O26219288   4.333   3.867   2.486 -0.3061  0.2326 -0.2133
   64MOL   C26319289   4.198   3.873   2.461  0.3948  0.6097  0.3412
   64MOL   H26419290   4.520   3.982   2.294 -0.0992  0.6002  0.9818
   64MOL   H26519291   4.692   3.959   2.306 -0.6047  0.3340  0.7757
   64MOL   H26619292   4.737   4.048   2.551  0.3952 -0.3911 -1.9491
   64MOL   H26719293   4.637   4.134   2.433  2.6179  0.4084 -0.1387
   64MOL   H26819294   4.590   4.131   2.598 -1.7705  1.2832 -2.4443
   64MOL   H26919295   4.152   3.774   2.464 -1.4838  1.4901  1.9047
   64MOL   H27019296   4.181   3.905   2.359 -1.7092  0.9561  0.7761
   64MOL   H27119297   4.148   3.940   2.531  0.9943 -0.4764  1.8333
   64MOL   C27219298   4.614   3.838   2.592 -0.0075 -0.2046  0.6833
   64MOL   C27319299   4.587   3.837   2.744  0.5729 -0.0702 -0.1123
   64MOL   C27419300   4.570   3.973   2.800 -0.3956 -0.0406  0.0470
   64MOL   C27519301   4.457   3.756   2.777  0.0932  0.5041 -0.3782
   64MOL   O27619302   4.352   3.807   2.815 -0.0928 -0.2717  0.0166
   64MOL   O27719303   4.455   3.626   2.751 -0.0840  0.4604 -0.3526
   64MOL   C27819304   4.329   3.558   2.746  0.3837 -0.7902  0.4116
   64MOL   H27919305   4.722   3.839   2.578 -0.3172  1.2509 -2.0417
   64MOL   H28019306   4.567   3.748   2.552  0.4279  0.5780 -1.6800
   64MOL   H28119307   4.526   3.961   2.899  0.1497 -0.6891  0.2141
   64MOL   H28219308   4.655   4.040   2.809 -0.6628  0.4049 -0.7025
   64MOL   H28319309   4.495   4.046   2.769 -0.3730  0.1934  0.5295
   64MOL   H28419310   4.280   3.564   2.843  0.0874 -1.9108  0.3364
   64MOL   H28519311   4.351   3.452   2.733 -1.3361 -0.9814 -1.1758
   64MOL   H28619312   4.262   3.599   2.671  2.7159 -0.0248 -1.3146
   64MOL   C28719313   4.717   3.770   2.806  0.0223 -0.5684  0.1844
   64MOL   C28819314   4.713   3.732   2.954 -0.0937  0.1127 -0.3265
   64MOL   C28919315   4.776   3.596   2.962  0.4401  0.2377  0.1023
   64MOL   C29019316   4.789   3.825   3.044 -0.3482 -0.5828 -0.3522
   64MOL   O29119317   4.851   3.922   2.999 -0.1816 -0.0535 -0.1293
   64MOL   O29219318   4.781   3.789   3.171  0.6511  0.3730  0.1519
   64MOL   C29319319   4.852   3.846   3.275 -0.1949 -0.2205 -0.2828
   64MOL   H29419320   4.796   3.837   2.774 -0.6092 -0.0744 -0.3520
   64MOL   H29519321   4.735   3.679   2.750  2.3822  0.5129 -0.8566
   64MOL   H29619322   4.881   3.603   2.934  0.3751 -0.3128 -0.2758
   64MOL   H29719323   4.775   3.581   3.070 -1.5610  0.3607  0.1142
   64MOL   H29819324   4.713   3.519   2.919 -0.8587  1.6164 -0.5309
   64MOL   H29919325   4.803   3.842   3.372  0.4545  1.7148  0.1636
   64MOL   H30019326   4.869   3.953   3.265  0.3657 -0.3393 -0.6361
   64MOL   H30119327   4.949   3.799   3.291 -0.4040 -0.5946 -0.1036
   64MOL   H30219328   4.609   3.743   2.985 -0.1005  1.9836 -0.9428
   65MOL     C119329   5.339   7.154   5.240  0.2013  0.6079 -0.7465
   65MOL     C219330   5.259   7.109   5.110  0.2066 -0.0763  0.3413
   65MOL     C319331   5.119   7.057   5.159 -0.1303  0.0664  0.2601
   65MOL     C419332   5.223   7.234   5.021 -0.4909 -0.4679  0.4517
   65MOL     O519333   5.239   7.350   5.057  0.1075 -0.8812 -0.1673
   65MOL     O619334   5.172   7.200   4.906 -0.8965 -0.5670 -0.4706
   65MOL     C719335   5.149   7.296   4.807 -0.0043  0.0833 -0.4802
   65MOL     H819336   5.356   7.064   5.299  2.2507  2.7871  2.1616
   65MOL     H919337   5.430   7.203   5.204  0.0112  1.2476 -0.3633
   65MOL    H1019338   5.057   7.020   5.078 -0.2680 -0.2825  0.5229
   65MOL    H1119339   5.136   6.975   5.229 -1.0424 -0.6236 -0.3237
   65MOL    H1219340   5.057   7.135   5.203 -1.7772  0.8208 -3.2305
   65MOL    H1319341   5.237   7.358   4.787  2.2517 -2.6014  0.7558
   65MOL    H1419342   5.069   7.362   4.840  1.3972  2.0816 -0.9383
   65MOL    H1519343   5.133   7.233   4.720 -1.8754 -1.0890  0.6822
   65MOL    H1619344   5.288   7.223   5.307  1.1734 -0.6055  1.3044
   65MOL    C1719345   5.321   6.989   5.036 -0.2089  0.4728  0.3119
   65MOL    C1819346   5.464   6.986   4.971 -0.1060 -0.1499  0.1592
   65MOL    C1919347   5.496   7.113   4.897 -0.2780  0.1481 -0.6914
   65MOL    C2019348   5.582   6.964   5.071 -0.6394  0.5619 -0.3534
   65MOL    O2119349   5.697   7.002   5.050 -0.4315 -0.4500  0.5130
   65MOL    O2219350   5.554   6.883   5.178 -0.8193 -0.9666  0.3483
   65MOL    C2319351   5.655   6.888   5.275 -0.5440 -0.0807  0.4582
   65MOL    H2419352   5.252   6.973   4.952 -1.0964  0.9690  0.9285
   65MOL    H2519353   5.309   6.904   5.102 -0.6890  0.5907  0.3828
   65MOL    H2619354   5.595   7.111   4.851  0.3974  0.8709  0.7032
   65MOL    H2719355   5.426   7.139   4.817 -1.5436  2.6991  1.1857
   65MOL    H2819356   5.504   7.197   4.965 -1.6882 -0.6553  0.4810
   65MOL    H2919357   5.662   6.979   5.336  1.1569 -0.8163  1.3743
   65MOL    H3019358   5.753   6.885   5.227 -0.8668 -2.1085 -0.0988
   65MOL    H3119359   5.659   6.792   5.327 -0.7335 -1.0716 -1.3402
   65MOL    C3219360   5.474   6.870   4.865 -0.2068 -0.7940 -0.2269
   65MOL    C3319361   5.426   6.722   4.867 -0.1186 -0.2072 -0.3038
   65MOL    C3419362   5.274   6.729   4.861 -0.0644 -0.2414  0.2842
   65MOL    C3519363   5.485   6.662   4.734  0.3595  0.3585  0.1520
   65MOL    O3619364   5.588   6.594   4.722 -0.3715  0.3254 -0.1691
   65MOL    O3719365   5.422   6.698   4.624  0.5017  0.1094  0.3258
   65MOL    C3819366   5.452   6.633   4.497  0.1350 -0.4330  1.3495
   65MOL    H3919367   5.579   6.862   4.840  0.1907 -0.5215  1.3087
   65MOL    H4019368   5.442   6.925   4.776  2.3079  1.5083  0.2331
   65MOL    H4119369   5.243   6.811   4.796  0.5313  0.2035  0.5615
   65MOL    H4219370   5.227   6.641   4.817 -4.3345  1.2944  1.5968
   65MOL    H4319371   5.233   6.743   4.961  3.1324  0.6912  1.5156
   65MOL    H4419372   5.363   6.618   4.436  0.4345 -0.9295  1.0314
   65MOL    H4519373   5.523   6.551   4.491  0.3440 -0.2441  1.2510
   65MOL    H4619374   5.481   6.706   4.422 -1.8515  0.5252  1.4859
   65MOL    C4719375   5.482   6.635   4.986 -0.3526  0.0632  0.4690
   65MOL    C4819376   5.422   6.493   5.042  0.1127  0.0205 -0.0882
   65MOL    C4919377   5.417   6.387   4.925 -0.3887 -0.0104 -0.0539
   65MOL    C5019378   5.531   6.437   5.145 -0.5063 -0.1144 -0.4258
   65MOL    O5119379   5.574   6.320   5.149 -0.0619  0.2109 -0.2101
   65MOL    O5219380   5.567   6.537   5.228 -0.5736  0.1351 -0.0032
   65MOL    C5319381   5.654   6.510   5.338  0.0342  0.0199 -0.0137
   65MOL    H5419382   5.466   6.703   5.070 -0.3384  0.3021  0.2781
   65MOL    H5519383   5.591   6.640   4.990 -0.2756  0.2762 -1.5947
   65MOL    H5619384   5.517   6.366   4.886 -0.3172  0.7050 -0.2679
   65MOL    H5719385   5.377   6.290   4.954 -0.4307  0.4864  1.5729
   65MOL    H5819386   5.355   6.433   4.847  0.9224 -1.5012 -2.0327
   65MOL    H5919387   5.626   6.418   5.389  1.2214 -1.4134 -1.8845
   65MOL    H6019388   5.653   6.588   5.414  1.2771  0.7749 -0.7517
   65MOL    H6119389   5.760   6.500   5.316  0.4152  1.5999  1.0574
   65MOL    C6219390   5.280   6.509   5.109  0.1792  0.4726  0.4638
   65MOL    C6319391   5.173   6.398   5.144  0.2780  0.0694  0.1181
   65MOL    C6419392   5.096   6.334   5.024 -0.1300  0.5318  0.5310
   65MOL    C6519393   5.238   6.286   5.223 -0.7514  0.7687  0.1769
   65MOL    O6619394   5.261   6.175   5.179  0.3035 -0.1259  1.1201
   65MOL    O6719395   5.278   6.328   5.351 -0.1561  0.1522 -0.0603
   65MOL    C6819396   5.359   6.244   5.439 -0.5470 -0.8157  0.4010
   65MOL    H6919397   5.212   6.574   5.053  0.6833 -0.4235 -1.2413
   65MOL    H7019398   5.304   6.562   5.201 -1.6966  2.1957 -0.0112
   65MOL    H7119399   5.035   6.406   4.969 -3.1616 -2.0014  0.4054
   65MOL    H7219400   5.170   6.293   4.956  1.0175 -0.7990  2.5084
   65MOL    H7319401   5.032   6.249   5.049  1.6232 -0.2876  2.3908
   65MOL    H7419402   5.460   6.280   5.458 -0.3028 -0.9963 -0.5628
   65MOL    H7519403   5.372   6.148   5.389 -0.1565 -0.0969 -0.8895
   65MOL    H7619404   5.305   6.223   5.532  0.3992  1.0075  1.3771
   65MOL    C7719405   5.056   6.467   5.231 -1.1287  0.0501 -0.1267
   65MOL    C7819406   4.907   6.421   5.267  0.8132  0.1978  0.3348
   65MOL    C7919407   4.825   6.437   5.138 -0.0849 -0.3957  0.4304
   65MOL    C8019408   4.889   6.275   5.322  0.1240  0.3100 -0.0645
   65MOL    O8119409   4.977   6.192   5.357  0.3162  0.4620  0.3549
   65MOL    O8219410   4.753   6.256   5.338  0.5214  0.1448  0.4661
   65MOL    C8319411   4.709   6.125   5.384 -0.1300 -0.0889  0.1215
   65MOL    H8419412   5.052   6.572   5.200  1.6284  0.4311  0.6941
   65MOL    H8519413   5.100   6.479   5.330  1.1780  1.4911 -1.2950
   65MOL    H8619414   4.718   6.432   5.157 -0.3796 -0.4952 -1.1492
   65MOL    H8719415   4.836   6.529   5.080 -0.1256 -1.4392 -1.2579
   65MOL    H8819416   4.843   6.360   5.063 -1.1360  2.5208 -2.9942
   65MOL    H8919417   4.604   6.115   5.354 -0.4483 -2.0278  1.7862
   65MOL    H9019418   4.734   6.110   5.489  1.7463  0.3227 -0.2532
   65MOL    H9119419   4.761   6.051   5.323  1.5399  0.0283  1.3884
   65MOL    C9219420   4.851   6.529   5.357  0.2373 -0.5234  0.2474
   65MOL    C9319421   4.907   6.578   5.497 -0.7070 -0.4196 -0.8507
   65MOL    C9419422   4.782   6.644   5.569 -0.1202  0.0202  0.5305
   65MOL    C9519423   4.953   6.459   5.583  0.4732  0.4909  0.7630
   65MOL    O9619424   5.068   6.431   5.612 -0.1245 -0.1439 -0.1792
   65MOL    O9719425   4.847   6.386   5.627 -0.2562  0.0705 -0.4089
   65MOL    C9819426   4.871   6.279   5.720  0.2786  0.0063 -0.5154
   65MOL    H9919427   4.747   6.498   5.371  0.2232  0.2749  2.0375
   65MOL   H10019428   4.848   6.616   5.292  0.6927 -0.7643 -0.1033
   65MOL   H10119429   4.791   6.699   5.662 -1.3232 -1.4154  1.5168
   65MOL   H10219430   4.729   6.709   5.498 -0.1716 -1.1084 -0.4899
   65MOL   H10319431   4.698   6.576   5.588 -0.4497  0.1001 -0.5658
   65MOL   H10419432   4.902   6.310   5.820  0.7843 -0.3104 -0.5744
   65MOL   H10519433   4.939   6.202   5.686 -0.0819 -1.6639  2.4216
   65MOL   H10619434   4.775   6.228   5.733 -1.8003  3.5185 -1.2905
   65MOL   C10719435   5.014   6.697   5.474 -0.1192  0.0401  0.6947
   65MOL   C10819436   5.104   6.764   5.585  0.1287 -0.2604 -0.0178
   65MOL   C10919437   5.142   6.901   5.536  0.1534 -0.1571  1.1640
   65MOL   C11019438   5.020   6.776   5.717 -0.3000  0.9341  0.1148
   65MOL   O11119439   5.026   6.697   5.808  0.2299  0.2363  0.3263
   65MOL   O11219440   4.928   6.880   5.725 -0.0027  0.2687  0.3809
   65MOL   C11319441   4.851   6.909   5.849 -0.8749 -0.0472  0.6412
   65MOL   H11419442   4.960   6.782   5.433  1.4243  0.8305  0.3057
   65MOL   H11519443   5.083   6.672   5.394  0.2006 -1.6481  1.4775
   65MOL   H11619444   5.055   6.967   5.535  0.6032  0.4793 -3.2700
   65MOL   H11719445   5.215   6.952   5.598  1.2712  1.3919 -1.3636
   65MOL   H11819446   5.195   6.899   5.441 -0.7837 -0.6084  0.6418
   65MOL   H11919447   4.799   7.004   5.833  1.2066  0.8117 -1.3616
   65MOL   H12019448   4.922   6.921   5.932  2.6574 -1.1027 -2.1160
   65MOL   H12119449   4.792   6.820   5.870  1.7792 -2.3269 -1.2409
   65MOL   C12219450   5.232   6.670   5.605  0.1866  0.1127 -0.6304
   65MOL   C12319451   5.370   6.719   5.654 -0.2973 -0.1171  0.4543
   65MOL   C12419452   5.439   6.801   5.545  0.1535  0.0428  0.0647
   65MOL   C12519453   5.358   6.793   5.793 -0.3230  0.3014 -0.3314
   65MOL   O12619454   5.416   6.900   5.816 -0.6961  0.1174  0.4712
   65MOL   O12719455   5.291   6.736   5.885  0.5171 -0.3588  0.2035
   65MOL   C12819456   5.278   6.775   6.022  0.4930 -0.6795 -0.0196
   65MOL   H12919457   5.250   6.595   5.528  0.3945 -2.0299  1.4590
   65MOL   H13019458   5.200   6.604   5.685 -0.1292  1.5889  0.4734
   65MOL   H13119459   5.402   6.764   5.449 -1.8916  0.6427  0.6024
   65MOL   H13219460   5.416   6.907   5.548  2.1217  0.4650  0.4308
   65MOL   H13319461   5.545   6.780   5.535  0.6051  1.3346  1.8900
   65MOL   H13419462   5.179   6.737   6.048  0.2591 -0.8015 -1.0650
   65MOL   H13519463   5.285   6.884   6.028  0.8663 -0.8276  2.8292
   65MOL   H13619464   5.354   6.731   6.086  1.1118  1.7410  0.9907
   65MOL   C13719465   5.469   6.588   5.675 -0.1635 -0.0929 -0.1923
   65MOL   C13819466   5.476   6.479   5.788 -0.1291 -0.2806 -0.1056
   65MOL   C13919467   5.333   6.427   5.812  0.3189  0.0766  1.0344
   65MOL   C14019468   5.551   6.355   5.733  0.6797  0.6423  0.0960
   65MOL   O14119469   5.598   6.359   5.624 -0.1327 -0.1694  0.1744
   65MOL   O14219470   5.546   6.249   5.811 -0.2315 -0.6131  0.5308
   65MOL   C14319471   5.607   6.126   5.769  0.4291  0.1536 -0.4426
   65MOL   H14419472   5.573   6.618   5.659  0.3944 -1.6399  0.3572
   65MOL   H14519473   5.451   6.530   5.584  3.0833 -0.4621 -0.6558
   65MOL   H14619474   5.253   6.497   5.836 -0.0107 -0.2313  0.8358
   65MOL   H14719475   5.298   6.378   5.721  0.5237  2.1263 -0.1904
   65MOL   H14819476   5.337   6.358   5.897  1.4882  1.0616  1.8003
   65MOL   H14919477   5.706   6.138   5.725 -0.0270  0.8317 -1.3037
   65MOL   H15019478   5.555   6.073   5.688  1.1939 -1.3842  0.0559
   65MOL   H15119479   5.611   6.064   5.858  1.3006 -0.2596 -0.7732
   65MOL   C15219480   5.537   6.521   5.935  0.5513 -0.5001  0.3324
   65MOL   C15319481   5.677   6.570   5.977 -0.3875 -0.4351  0.2671
   65MOL   C15419482   5.664   6.584   6.130  0.5470  0.3141 -0.0997
   65MOL   C15519483   5.780   6.460   5.938 -0.5463 -0.7196  0.2488
   65MOL   O15619484   5.803   6.369   6.015  0.4310 -0.5587 -0.5840
   65MOL   O15719485   5.837   6.479   5.812 -0.0572  0.3492  0.2307
   65MOL   C15819486   5.911   6.379   5.751  0.0619 -0.5392 -0.4374
   65MOL   H15919487   5.521   6.437   6.002  1.9759  0.1536  1.5196
   65MOL   H16019488   5.470   6.597   5.974  2.3340  0.5067  1.4780
   65MOL   H16119489   5.761   6.618   6.167 -0.6817  1.1594  2.4658
   65MOL   H16219490   5.587   6.654   6.163  1.0276  1.1267 -0.6926
   65MOL   H16319491   5.641   6.491   6.181  0.9243 -0.1511 -0.7742
   65MOL   H16419492   5.860   6.283   5.754  1.5557 -1.3986 -1.7488
   65MOL   H16519493   5.996   6.363   5.818  0.0820  2.5588  0.3464
   65MOL   H16619494   5.934   6.394   5.645  1.0993 -0.4655 -0.2116
   65MOL   C16719495   5.706   6.703   5.910  0.0442 -0.1025 -0.7751
   65MOL   C16819496   5.819   6.808   5.950  0.6100  0.0595  0.6870
   65MOL   C16919497   5.850   6.877   5.817 -0.5861 -0.5346 -0.1129
   65MOL   C17019498   5.757   6.913   6.052 -0.3639  0.2878 -0.2325
   65MOL   O17119499   5.765   7.033   6.027 -0.3402 -0.1562  0.4666
   65MOL   O17219500   5.714   6.863   6.166  0.1457 -0.6518 -0.0476
   65MOL   C17319501   5.664   6.959   6.269 -0.4503 -0.4699  0.4623
   65MOL   H17419502   5.612   6.757   5.903 -0.5495 -1.2069 -1.6217
   65MOL   H17519503   5.716   6.682   5.803  0.5826  1.8353 -1.1157
   65MOL   H17619504   5.766   6.899   5.752 -0.8479  3.6784  1.4704
   65MOL   H17719505   5.903   6.972   5.818  0.7682 -1.2866  0.3151
   65MOL   H17819506   5.911   6.812   5.755 -0.0813  0.1260 -0.3045
   65MOL   H17919507   5.653   6.911   6.366 -1.3195  0.5528  0.8696
   65MOL   H18019508   5.582   7.020   6.231 -0.8802 -2.4682 -1.9936
   65MOL   H18119509   5.742   7.030   6.292 -0.8021 -0.2957  1.1162
   65MOL   C18219510   5.948   6.742   6.006  0.0948 -0.2421  0.7134
   65MOL   C18319511   6.082   6.821   6.043  0.4987  0.2570 -0.3563
   65MOL   C18419512   6.115   6.930   5.945 -0.2921  0.2326  0.2876
   65MOL   C18519513   6.083   6.885   6.186 -0.4546 -0.2793 -0.2398
   65MOL   O18619514   5.989   6.884   6.263 -0.5908 -0.1255  0.6517
   65MOL   O18719515   6.207   6.935   6.222 -0.4207  0.2151 -0.6414
   65MOL   C18819516   6.201   7.012   6.343 -0.1739 -0.4853  0.2949
   65MOL   H18919517   5.987   6.683   5.923  0.4421  1.5378 -0.4108
   65MOL   H19019518   5.928   6.683   6.096 -3.4152  0.3617  0.3943
   65MOL   H19119519   6.222   6.944   5.964 -0.4364  1.7657  0.0293
   65MOL   H19219520   6.118   6.896   5.841 -1.0209  2.7065 -0.5800
   65MOL   H19319521   6.063   7.024   5.963  0.8878  0.1880  4.4739
   65MOL   H19419522   6.141   7.103   6.339 -0.3565 -0.5563  1.3382
   65MOL   H19519523   6.305   7.040   6.356 -0.0126 -0.5847 -0.6935
   65MOL   H19619524   6.168   6.950   6.427 -1.3369 -0.1503  0.0978
   65MOL   C19719525   6.207   6.722   6.042  0.3328  0.4273  0.5395
   65MOL   C19819526   6.231   6.579   6.106 -0.0203 -0.4163 -0.6635
   65MOL   C19919527   6.157   6.468   6.024  0.2360  0.8597 -0.9681
   65MOL   C20019528   6.386   6.556   6.103  0.3886 -0.1254 -0.5780
   65MOL   O20119529   6.440   6.489   6.020 -0.2142 -0.2651  0.0542
   65MOL   O20219530   6.451   6.639   6.191  0.8137  0.1669 -0.6234
   65MOL   C20319531   6.592   6.651   6.195  0.1990 -0.6263  0.0536
   65MOL   H20419532   6.293   6.782   6.072  1.3465 -0.2297 -0.9897
   65MOL   H20519533   6.222   6.699   5.937 -1.1536 -0.1868  0.4507
   65MOL   H20619534   6.179   6.480   5.918 -1.2396 -1.6974 -1.6100
   65MOL   H20719535   6.184   6.366   6.051  0.2250  0.6436 -1.7605
   65MOL   H20819536   6.050   6.483   6.040  0.6230  0.0560  2.7274
   65MOL   H20919537   6.644   6.577   6.133 -1.4498  0.1836 -2.4113
   65MOL   H21019538   6.624   6.662   6.298 -0.2118  2.2574 -0.0869
   65MOL   H21119539   6.622   6.747   6.154 -0.1538 -0.4365  0.2444
   65MOL   C21219540   6.192   6.584   6.261  0.4332 -0.3075 -0.8628
   65MOL   C21319541   6.201   6.457   6.363 -1.0979 -0.2683 -0.2228
   65MOL   C21419542   6.346   6.400   6.379 -0.4941 -0.8239 -0.4147
   65MOL   C21519543   6.149   6.523   6.497  0.0954  0.3654 -0.0522
   65MOL   O21619544   6.215   6.533   6.606  0.1935 -0.4049 -0.0691
   65MOL   O21719545   6.020   6.569   6.487 -0.9812 -0.3818  0.4587
   65MOL   C21819546   5.964   6.646   6.589 -0.3208  0.6671  0.2044
   65MOL   H21919547   6.089   6.618   6.257  0.6414  0.3411 -0.7729
   65MOL   H22019548   6.242   6.664   6.316  0.6826 -0.4618 -0.8652
   65MOL   H22119549   6.375   6.326   6.305 -0.2517 -2.2206  1.0697
   65MOL   H22219550   6.429   6.470   6.369 -0.6152 -0.6928 -0.5049
   65MOL   H22319551   6.353   6.334   6.465  0.8686 -0.0069  0.1269
   65MOL   H22419552   5.856   6.642   6.577 -0.6635  1.2119  2.7831
   65MOL   H22519553   5.999   6.749   6.590 -3.5832  1.8392  1.3695
   65MOL   H22619554   5.982   6.595   6.684  1.6069  2.0111  0.5920
   65MOL   C22719555   6.110   6.331   6.321  0.0146  0.2368 -0.2513
   65MOL   C22819556   6.035   6.228   6.418 -0.0504  0.9727 -0.4354
   65MOL   C22919557   5.899   6.294   6.459  0.1847 -0.0573 -0.1173
   65MOL   C23019558   6.007   6.108   6.329 -0.5480  0.1428  0.5958
   65MOL   O23119559   6.079   6.007   6.333  0.1587  0.0484 -0.6095
   65MOL   O23219560   5.898   6.118   6.258  0.0823  0.2491  0.1357
   65MOL   C23319561   5.865   6.015   6.164  0.3017  0.1398  0.0906
   65MOL   H23419562   6.170   6.276   6.249  0.6159 -1.6711  1.6495
   65MOL   H23519563   6.037   6.386   6.261  0.9329  1.2293 -0.4881
   65MOL   H23619564   5.822   6.218   6.477 -0.9371  1.3004  0.8936
   65MOL   H23719565   5.886   6.367   6.539 -1.8510 -0.1626 -0.3298
   65MOL   H23819566   5.859   6.341   6.370 -1.0219 -1.7454 -0.4968
   65MOL   H23919567   5.922   6.019   6.071 -0.0674 -0.0288 -0.1464
   65MOL   H24019568   5.762   6.046   6.143  1.2877  3.0801 -0.6728
   65MOL   H24119569   5.863   5.913   6.202 -0.6878 -0.8594 -2.5200
   65MOL   C24219570   6.128   6.195   6.536  0.0786  0.0842 -0.2803
   65MOL   C24319571   6.084   6.115   6.663 -0.3822 -0.1442  0.1397
   65MOL   C24419572   5.983   6.006   6.639  0.2601  0.0092  0.5698
   65MOL   C24519573   6.218   6.058   6.718 -0.8951  0.6965 -0.0165
   65MOL   O24619574   6.226   5.949   6.781 -0.1901 -0.6399 -0.5950
   65MOL   O24719575   6.333   6.134   6.711  0.5190 -0.9359 -0.0837
   65MOL   C24819576   6.458   6.091   6.751  0.2480 -0.1450 -0.4133
   65MOL   H24919577   6.175   6.286   6.575  1.2926 -0.9882  0.8458
   65MOL   H25019578   6.210   6.151   6.480  0.0350  0.4843 -0.6658
   65MOL   H25119579   5.963   5.942   6.724 -1.5292  0.7970  0.7525
   65MOL   H25219580   5.893   6.054   6.600 -0.8266 -1.0248  1.7947
   65MOL   H25319581   6.015   5.946   6.553 -0.8206  0.0274  0.1514
   65MOL   H25419582   6.529   6.147   6.692  1.8480 -0.3600  1.2471
   65MOL   H25519583   6.463   5.983   6.739 -0.3742 -0.3349  0.8878
   65MOL   H25619584   6.465   6.117   6.857  0.3784  0.4678 -0.5734
   65MOL   C25719585   6.030   6.221   6.764  0.1991 -0.0828  0.4765
   65MOL   C25819586   5.978   6.194   6.907  0.5057  0.3669  0.3123
   65MOL   C25919587   5.835   6.152   6.907  0.0867 -0.3726  0.0374
   65MOL   C26019588   6.056   6.088   6.995 -0.0856  0.0790 -0.1659
   65MOL   O26119589   6.009   5.985   7.024  0.5881  0.0905 -0.3640
   65MOL   O26219590   6.173   6.124   7.034  0.6583  0.0531 -0.2457
   65MOL   C26319591   6.245   6.037   7.122  0.2874  0.5077 -0.0011
   65MOL   H26419592   5.948   6.278   6.719  0.8131  0.3886 -0.0667
   65MOL   H26519593   6.104   6.301   6.768  0.3497 -0.2505  1.1302
   65MOL   H26619594   5.811   6.077   6.831  0.4566 -0.4283 -0.0282
   65MOL   H26719595   5.801   6.121   7.006  2.3766  2.2877  1.7420
   65MOL   H26819596   5.772   6.237   6.881  1.2772  0.0504 -1.6050
   65MOL   H26919597   6.336   6.081   7.162  0.6340 -1.1874  1.1410
   65MOL   H27019598   6.262   5.938   7.080  1.9416  1.1946 -1.0278
   65MOL   H27119599   6.189   6.024   7.214 -0.8286 -0.0953 -0.7530
   65MOL   C27219600   6.000   6.333   6.984  0.3651 -0.5118  0.0835
   65MOL   C27319601   5.923   6.386   7.117  0.1866 -0.0711 -0.2242
   65MOL   C27419602   6.018   6.493   7.181  0.5792 -0.6015  0.2061
   65MOL   C27519603   5.791   6.452   7.080  0.6393 -0.5555 -0.4670
   65MOL   O27619604   5.685   6.406   7.117  0.3843  0.4107 -0.5325
   65MOL   O27719605   5.805   6.563   7.011  0.1513 -0.4759 -0.1939
   65MOL   C27819606   5.681   6.627   6.972 -0.4011  0.7769 -0.1611
   65MOL   H27919607   5.988   6.419   6.918 -1.7021 -0.3440  0.6576
   65MOL   H28019608   6.108   6.344   7.000  0.5515 -1.0886 -0.7592
   65MOL   H28119609   5.968   6.556   7.254 -0.1316 -0.0703 -0.7373
   65MOL   H28219610   6.113   6.457   7.221  0.2429 -0.7096  0.9179
   65MOL   H28319611   6.049   6.558   7.100 -1.1769 -0.1600 -0.1290
   65MOL   H28419612   5.604   6.572   6.918  0.2888  1.5990 -2.0239
   65MOL   H28519613   5.696   6.697   6.890 -0.1587 -0.2247 -0.9910
   65MOL   H28619614   5.624   6.679   7.049 -2.2702  0.2168 -1.1400
   65MOL   C28719615   5.906   6.268   7.228 -0.2080 -0.3115  0.4600
   65MOL   C28819616   5.858   6.304   7.375  0.6010 -0.0754 -0.5121
   65MOL   C28919617   5.784   6.187   7.438 -0.1661 -0.5260 -0.1671
   65MOL   C29019618   5.965   6.363   7.473 -0.0923  0.3153 -0.0653
   65MOL   O29119619   5.943   6.472   7.528  0.7476  0.5528  0.5690
   65MOL   O29219620   6.082   6.295   7.487 -0.1246 -0.7207 -0.0971
   65MOL   C29319621   6.173   6.346   7.580 -0.3425 -0.0830 -0.0495
   65MOL   H29419622   6.004   6.220   7.234 -0.0472 -0.0973 -0.4347
   65MOL   H29519623   5.839   6.192   7.187 -1.6872  1.5685 -0.6762
   65MOL   H29619624   5.849   6.100   7.432  1.0963  0.4341 -0.5168
   65MOL   H29719625   5.764   6.213   7.542 -0.2469  0.9130 -0.5312
   65MOL   H29819626   5.692   6.153   7.388 -0.2092 -0.0854 -0.3894
   65MOL   H29919627   6.201   6.448   7.556  0.5512 -0.0759  0.9699
   65MOL   H30019628   6.255   6.277   7.561  0.1949  1.0866 -2.0462
   65MOL   H30119629   6.123   6.333   7.676 -0.4465  0.5569 -0.0128
   65MOL   H30219630   5.788   6.387   7.365 -0.1599 -0.7717 -1.0334
   66MOL     C119631   1.666   6.835   0.447  0.2060  0.0131  0.8407
   66MOL     C219632   1.614   6.740   0.335  0.3893  0.9922  0.5076
   66MOL     C319633   1.745   6.675   0.270  0.4137 -0.0076 -1.3134
   66MOL     C419634   1.530   6.623   0.396  0.7953  0.0426  0.2230
   66MOL     O519635   1.505   6.516   0.344 -0.1473 -0.4518  0.4170
   66MOL     O619636   1.477   6.668   0.515 -0.6742 -0.2846 -0.3417
   66MOL     C719637   1.377   6.588   0.568 -0.0585 -0.1992  1.3558
   66MOL     H819638   1.736   6.904   0.400  0.5527  0.2650  1.7165
   66MOL     H919639   1.588   6.890   0.500 -1.2545 -2.8654  1.7917
   66MOL    H1019640   1.828   6.746   0.264  1.9696 -1.3865  2.2916
   66MOL    H1119641   1.783   6.595   0.334  1.0401  1.1687 -0.2026
   66MOL    H1219642   1.730   6.628   0.173  1.3597  2.3692 -2.6449
   66MOL    H1319643   1.404   6.483   0.584  0.1903  0.0802  2.8151
   66MOL    H1419644   1.284   6.598   0.512  1.1903  0.0066 -0.7339
   66MOL    H1519645   1.349   6.612   0.670  0.4651  1.1187  1.1983
   66MOL    H1619646   1.729   6.785   0.520 -0.8033 -1.4825  0.7119
   66MOL    C1719647   1.547   6.823   0.224 -0.4229 -0.7037  0.7881
   66MOL    C1819648   1.429   6.928   0.239 -0.0202 -0.2871  0.0272
   66MOL    C1919649   1.314   6.865   0.327  0.4301  0.1911 -0.0320
   66MOL    C2019650   1.485   7.060   0.309 -0.5673  0.1160  0.2758
   66MOL    O2119651   1.451   7.099   0.422 -0.2103  0.2414 -0.1372
   66MOL    O2219652   1.566   7.130   0.232  0.3405  0.4051 -0.1833
   66MOL    C2319653   1.609   7.259   0.268  0.1657  0.2446 -0.9076
   66MOL    H2419654   1.515   6.747   0.153 -0.1663  1.0367 -1.2217
   66MOL    H2519655   1.630   6.878   0.180 -1.3617 -1.5748 -2.1314
   66MOL    H2619656   1.230   6.935   0.337  2.7257  2.9767  0.2978
   66MOL    H2719657   1.279   6.763   0.310 -1.6026  0.8342  0.1163
   66MOL    H2819658   1.360   6.855   0.425  0.2347 -1.8553 -0.1369
   66MOL    H2919659   1.528   7.331   0.277  1.0195  1.0502  0.6077
   66MOL    H3019660   1.674   7.301   0.191  0.5664  0.9165 -0.2154
   66MOL    H3119661   1.668   7.245   0.358 -1.6206  0.0017  0.2486
   66MOL    C3219662   1.364   6.971   0.106 -0.0482 -0.2676  0.4425
   66MOL    C3319663   1.375   6.905   7.845  0.5042 -0.0409  0.0077
   66MOL    C3419664   1.524   6.906   7.789 -0.0989 -0.4841 -0.0161
   66MOL    C3519665   1.344   6.757   7.851 -1.0657 -0.0886 -0.6474
   66MOL    O3619666   1.258   6.709   0.045 -0.3467  0.3436  0.0652
   66MOL    O3719667   1.411   6.675   7.760  0.5288  0.5226 -0.2712
   66MOL    C3819668   1.414   6.533   7.777 -0.3306 -0.1557 -0.0801
   66MOL    H3919669   1.370   7.079   0.091  1.7070 -0.3176  0.6483
   66MOL    H4019670   1.260   6.958   0.134  0.1740  1.7512  2.2786
   66MOL    H4119671   1.577   7.000   7.807  0.2425 -0.8314  0.8209
   66MOL    H4219672   1.594   6.834   7.832 -0.5372  0.2500  1.9917
   66MOL    H4319673   1.525   6.904   7.680  0.0211 -0.4027 -0.0173
   66MOL    H4419674   1.313   6.491   7.779 -0.4408 -0.2554 -3.7590
   66MOL    H4519675   1.480   6.496   7.855 -1.3384 -0.0947  0.8086
   66MOL    H4619676   1.456   6.490   7.686  1.7732  0.5872  0.5106
   66MOL    C4719677   1.274   6.957   7.738 -0.1212 -0.0875  0.2505
   66MOL    C4819678   1.248   7.110   7.693 -0.2381  0.3359 -0.4128
   66MOL    C4919679   1.137   7.164   7.784 -0.4203  0.0266 -1.0281
   66MOL    C5019680   1.378   7.192   7.719  0.1114  0.0475 -0.1280
   66MOL    O5119681   1.380   7.281   7.803  0.4952 -0.5089  0.1425
   66MOL    O5219682   1.483   7.162   7.636 -0.0964  0.1848 -0.1014
   66MOL    C5319683   1.610   7.227   7.661  0.1503 -0.0788  0.3158
   66MOL    H5419684   1.174   6.920   7.757 -0.9377  2.2473  0.6500
   66MOL    H5519685   1.300   6.910   7.643  1.3604  2.9832 -0.9133
   66MOL    H5619686   1.041   7.115   7.765  0.4375 -2.9930  1.8345
   66MOL    H5719687   1.163   7.144   0.010  1.4536  0.5532 -1.3806
   66MOL    H5819688   1.129   7.272   7.770  2.3883  0.5918  1.3678
   66MOL    H5919689   1.679   7.193   7.584  1.8234 -0.7049  2.0763
   66MOL    H6019690   1.644   7.218   7.764  2.2517 -1.0541 -0.4327
   66MOL    H6119691   1.600   7.335   7.650 -0.7793 -0.1877  0.0432
   66MOL    C6219692   1.193   7.104   7.546  0.1569  0.2711 -0.4518
   66MOL    C6319693   1.126   7.217   7.465  0.0768  0.4878  0.2728
   66MOL    C6419694   0.975   7.210   7.493 -0.4562 -0.1080  0.2562
   66MOL    C6519695   1.190   7.354   7.508  0.1693 -0.1964  0.8407
   66MOL    O6619696   1.125   7.436   7.560  0.0052 -0.3760 -0.1713
   66MOL    O6719697   1.320   7.363   7.461 -0.5341  0.4919 -0.7609
   66MOL    C6819698   1.399   7.477   7.478 -0.0029 -0.2439  0.0578
   66MOL    H6919699   1.135   7.013   7.529 -0.7156  0.9818 -1.3427
   66MOL    H7019700   1.283   7.076   7.490 -0.5093  0.6428 -1.7379
   66MOL    H7119701   0.949   7.226   7.597  0.9060  2.0477  0.2901
   66MOL    H7219702   0.914   7.282   7.437  2.2851 -0.1398 -2.9326
   66MOL    H7319703   0.955   7.106   7.467  1.4323 -0.5628  0.5579
   66MOL    H7419704   1.496   7.481   7.430 -0.8637  1.6105 -1.5877
   66MOL    H7519705   1.420   7.471   7.585  0.9243  0.2680 -0.0944
   66MOL    H7619706   1.349   7.571   7.453  0.5679 -0.4588 -1.9190
   66MOL    C7719707   1.158   7.178   7.310 -0.6842  0.0947  0.0208
   66MOL    C7819708   1.123   7.278   7.191  0.3960 -0.2546  0.6428
   66MOL    C7919709   1.170   7.202   7.067  0.0186  0.5638 -0.5237
   66MOL    C8019710   0.971   7.275   7.183 -0.0026  0.1324  0.7542
   66MOL    O8119711   0.910   7.383   7.202 -0.1422  0.0982 -0.0428
   66MOL    O8219712   0.924   7.171   7.139 -0.4341  0.4997  0.4513
   66MOL    C8319713   0.787   7.166   7.093  0.3536 -0.2710  0.0381
   66MOL    H8419714   1.125   7.076   7.291  0.7348 -0.4631  0.4586
   66MOL    H8519715   1.267   7.171   7.307 -0.6350  0.2362  1.2223
   66MOL    H8619716   1.279   7.195   7.066 -0.0481 -0.5848  0.0277
   66MOL    H8719717   1.134   7.100   7.066 -1.6014  1.0541  2.1121
   66MOL    H8819718   1.130   7.239   6.973  0.9725  2.4871 -0.2122
   66MOL    H8919719   0.762   7.064   7.064 -1.5141  0.2240 -0.1617
   66MOL    H9019720   0.769   7.242   7.018  0.7848  1.1044  1.3000
   66MOL    H9119721   0.729   7.184   7.183  2.2232 -1.8001  1.5893
   66MOL    C9219722   1.186   7.418   7.195  0.0076 -0.0049 -0.5548
   66MOL    C9319723   1.210   7.512   7.070  0.3439  0.6255  0.6705
   66MOL    C9419724   1.252   7.652   7.127 -1.3737  0.1747  0.1882
   66MOL    C9519725   1.337   7.463   6.996  0.0022 -0.7756  0.0827
   66MOL    O9619726   1.328   7.396   6.895 -0.2824  0.4754 -0.1691
   66MOL    O9719727   1.457   7.484   7.063  0.3068  0.2824 -0.1949
   66MOL    C9819728   1.573   7.450   6.996  0.6201  0.0186 -0.3534
   66MOL    H9919729   1.286   7.407   7.237  0.1012 -1.1336 -1.0603
   66MOL   H10019730   1.139   7.473   7.277  0.2358 -1.1749  0.3758
   66MOL   H10119731   1.315   7.654   7.215 -1.7282 -0.8560  0.4655
   66MOL   H10219732   1.309   7.728   7.072 -1.5098 -1.2867 -2.0468
   66MOL   H10319733   1.164   7.704   7.166 -1.8407  1.2956 -2.2144
   66MOL   H10419734   1.588   7.347   7.029  1.1578 -0.2643 -1.4420
   66MOL   H10519735   1.658   7.512   7.026  0.0577  0.3360  0.5766
   66MOL   H10619736   1.562   7.461   6.888 -0.3531  0.6774 -0.1882
   66MOL   C10719737   1.080   7.522   6.979 -0.3857 -0.2279  0.3221
   66MOL   C10819738   1.060   7.642   6.876 -0.0506 -0.1593 -0.5948
   66MOL   C10919739   1.032   7.771   6.951 -0.3146 -0.6216  0.3240
   66MOL   C11019740   1.181   7.662   6.777  0.1481  0.0529  0.1341
   66MOL   O11119741   1.245   7.764   6.784  0.0860  0.6489 -0.0700
   66MOL   O11219742   1.197   7.561   6.684  0.3207 -0.1832  0.2995
   66MOL   C11319743   1.279   7.584   6.572 -0.1850  0.8611 -0.8505
   66MOL   H11419744   0.999   7.541   7.050 -0.0989 -0.3317  0.6764
   66MOL   H11519745   1.060   7.427   6.930  0.1442 -0.4396  0.5100
   66MOL   H11619746   0.995   7.855   6.892  0.2945 -0.3567  0.3185
   66MOL   H11719747   0.976   7.759   7.044 -0.3544 -2.1530  0.1147
   66MOL   H11819748   1.128   7.806   6.989 -0.3033 -0.5726  0.2494
   66MOL   H11919749   1.229   7.651   6.502 -1.1844 -0.8466 -1.8189
   66MOL   H12019750   1.292   7.483   6.533 -2.6521  0.2247 -0.0843
   66MOL   H12119751   1.379   7.620   6.598  0.7197 -1.1623 -1.4101
   66MOL   C12219752   0.943   7.611   6.774  0.0252  0.0823 -0.5744
   66MOL   C12319753   0.780   7.629   6.792 -0.2635  0.0865  1.0684
   66MOL   C12419754   0.745   7.548   6.914  0.2187  0.0619 -0.3416
   66MOL   C12519755   0.762   7.776   6.816  0.2709  0.2010  0.1200
   66MOL   O12619756   0.717   7.818   6.922  0.0100  0.1073  0.2826
   66MOL   O12719757   0.801   7.848   6.716 -0.3821  0.7008  0.0273
   66MOL   C12819758   0.820   0.106   6.726  0.0157 -0.3224  0.4732
   66MOL   H12919759   0.961   7.506   6.753 -2.0374  0.0026 -2.1354
   66MOL   H13019760   0.968   7.660   6.680 -1.2649  0.5441 -0.6895
   66MOL   H13119761   0.791   7.572   7.009 -0.8232 -0.1023  0.2068
   66MOL   H13219762   0.643   7.581   6.933  1.0203  2.0391  0.6627
   66MOL   H13319763   0.745   7.441   6.896  1.6211  0.3506 -2.2368
   66MOL   H13419764   0.833   0.151   6.825  0.4125  1.4046 -0.3416
   66MOL   H13519765   0.738   0.164   6.682  0.4026 -0.3885 -0.3379
   66MOL   H13619766   0.915   0.134   6.680  0.0902  0.0351  0.8377
   66MOL   C13719767   0.704   7.572   6.670 -0.1380 -0.2230 -0.1233
   66MOL   C13819768   0.552   7.547   6.647 -0.3078  0.1701 -0.4708
   66MOL   C13919769   0.507   7.433   6.740  0.6114 -0.4526  0.1834
   66MOL   C14019770   0.479   7.676   6.669 -0.0479 -0.7067 -0.6325
   66MOL   O14119771   0.491   7.768   6.593 -0.0545 -0.1549 -0.3659
   66MOL   O14219772   0.403   7.682   6.781 -0.2167 -0.0924  0.0652
   66MOL   C14319773   0.346   7.805   6.825  0.3174 -0.6351 -0.1911
   66MOL   H14419774   0.759   7.484   6.634 -0.9360 -0.9998  0.5223
   66MOL   H14519775   0.736   7.626   6.581  1.1782 -0.0269  0.4563
   66MOL   H14619776   0.559   7.339   6.723  1.3970  0.0523 -0.2033
   66MOL   H14719777   0.500   7.445   6.848  1.9820 -1.2296  0.3664
   66MOL   H14819778   0.403   7.408   6.716  1.0218 -1.4941 -0.5536
   66MOL   H14919779   0.280   7.846   6.748  1.3520  1.3285 -0.0886
   66MOL   H15019780   0.415   0.002   6.865  0.5177 -0.9371  0.0278
   66MOL   H15119781   0.274   7.774   6.900  1.3357 -0.6284  0.7893
   66MOL   C15219782   0.549   7.499   6.494  0.2010 -0.2382 -0.1484
   66MOL   C15319783   0.420   7.427   6.421  0.1004  0.4004  0.1849
   66MOL   C15419784   0.420   7.274   6.463 -0.4051  0.4887  0.3270
   66MOL   C15519785   0.284   7.488   6.468 -0.6622 -0.9041 -0.3454
   66MOL   O15619786   0.191   7.421   6.512  0.5136  0.2753  0.3964
   66MOL   O15719787   0.278   7.624   6.452 -0.2796  0.2732 -0.5094
   66MOL   C15819788   0.165   7.690   6.497  0.0060 -0.1919 -1.2656
   66MOL   H15919789   0.632   7.436   6.465 -0.0390 -0.3477 -0.6096
   66MOL   H16019790   0.580   7.587   6.438  0.3262  0.6003  1.2159
   66MOL   H16119791   0.445   7.247   6.565 -0.5870  2.7706  0.9984
   66MOL   H16219792   0.330   7.222   6.431 -0.4834 -0.2730  1.7644
   66MOL   H16319793   0.501   7.221   6.412  0.7080 -0.7052  3.2119
   66MOL   H16419794   0.147   7.662   6.601  2.5723 -2.6260 -1.4111
   66MOL   H16519795   0.084   7.659   6.430 -0.8676  0.2089 -0.4028
   66MOL   H16619796   0.189   7.795   6.483  0.9461 -0.4761 -1.9058
   66MOL   C16719797   0.447   7.445   6.267  0.2389 -0.1350  0.0776
   66MOL   C16819798   0.364   7.388   6.140  0.8515  0.1078 -0.4465
   66MOL   C16919799   0.395   7.242   6.115 -0.4885 -0.9194 -0.5713
   66MOL   C17019800   0.211   7.400   6.162  0.1408  0.1297 -0.2495
   66MOL   O17119801   0.134   7.303   6.170  0.0941 -0.3775 -0.0063
   66MOL   O17219802   0.163   7.526   6.173  0.1698 -0.0770 -0.2976
   66MOL   C17319803   0.024   7.552   6.183 -0.7939 -0.4446  0.4858
   66MOL   H17419804   0.554   7.425   6.258  0.3391 -0.6503  2.3253
   66MOL   H17519805   0.441   7.553   6.257  0.0527  0.1135  2.6719
   66MOL   H17619806   0.501   7.217   6.112 -0.4268 -0.6489 -0.6777
   66MOL   H17719807   0.332   7.174   6.173  1.4728 -2.2706  0.0101
   66MOL   H17819808   0.352   7.211   6.019  1.0115  1.4486 -2.0579
   66MOL   H17919809   7.840   7.482   6.241 -1.3197 -2.9046 -2.8760
   66MOL   H18019810   7.860   7.549   6.082 -0.1780 -1.4576  0.2502
   66MOL   H18119811   0.003   7.650   6.225 -1.6091 -1.1661  1.8243
   66MOL   C18219812   0.421   7.480   6.026 -0.4592  0.2714  0.4433
   66MOL   C18319813   0.388   7.461   5.868  0.2142  0.3816 -0.4992
   66MOL   C18419814   0.461   7.581   5.794  0.0502 -0.6421  0.3269
   66MOL   C18519815   0.462   7.333   5.820  0.1276  1.5539 -0.2311
   66MOL   O18619816   0.399   7.229   5.789  0.0369 -0.1264  0.5239
   66MOL   O18719817   0.602   7.353   5.824 -0.3434  0.1812  0.1452
   66MOL   C18819818   0.687   7.240   5.825 -0.0450 -0.1858  0.1443
   66MOL   H18919819   0.529   7.482   6.043 -0.4932 -3.3783  1.4286
   66MOL   H19019820   0.376   7.577   6.049 -0.3951  0.0857  1.3459
   66MOL   H19119821   0.484   7.553   5.692 -2.1848  0.2674 -0.4780
   66MOL   H19219822   0.397   7.670   5.790  0.6142 -0.3160 -1.9243
   66MOL   H19319823   0.557   7.599   5.841 -0.7012 -2.9680  2.8798
   66MOL   H19419824   0.691   7.197   5.925 -1.9557  1.6611  1.0498
   66MOL   H19519825   0.790   7.258   5.794  0.3758 -0.2769  1.4887
   66MOL   H19619826   0.644   7.163   5.760  0.5116 -1.1669  0.9334
   66MOL   C19719827   0.234   7.460   5.842 -0.8184  0.7664 -0.0334
   66MOL   C19819828   0.158   7.462   5.696 -0.3804  0.2184  0.5013
   66MOL   C19919829   0.226   7.361   5.595 -0.0568  0.0930 -0.4625
   66MOL   C20019830   0.016   7.415   5.724 -0.4334 -0.1648 -0.0604
   66MOL   O20119831   7.851   7.308   5.686  0.2494  0.1038  0.6117
   66MOL   O20219832   7.829   7.494   5.816 -0.0503  0.4707 -0.2879
   66MOL   C20319833   7.700   7.471   5.855 -0.4820 -0.1017  0.5166
   66MOL   H20419834   0.196   7.544   5.900 -1.2405  1.2310 -0.9745
   66MOL   H20519835   0.189   7.368   5.881 -2.0264  1.3530 -0.0228
   66MOL   H20619836   0.170   7.364   5.503  0.9159  0.9000 -1.0421
   66MOL   H20719837   0.331   7.389   5.585  0.9587 -1.7381  3.6191
   66MOL   H20819838   0.212   7.262   5.639  1.7692 -0.8879 -2.0188
   66MOL   H20919839   7.670   7.381   5.908  0.9402 -0.6560  0.4195
   66MOL   H21019840   7.630   7.466   5.772 -0.0761  0.0665  0.1632
   66MOL   H21119841   7.673   7.550   5.925 -2.6917 -1.2259  0.9670
   66MOL   C21219842   0.151   7.604   5.630 -0.3757 -0.3272  0.1415
   66MOL   C21319843   0.134   7.646   5.481 -0.2664  0.2369 -0.1112
   66MOL   C21419844   0.261   7.621   5.403 -0.1091 -0.1318  0.3042
   66MOL   C21519845   0.016   7.571   5.423  0.4135 -0.7531 -0.4174
   66MOL   O21619846   0.022   7.519   5.310  0.0922  0.8284  0.0078
   66MOL   O21719847   7.784   7.578   5.495 -0.5061 -0.5852 -0.0616
   66MOL   C21819848   7.673   7.506   5.468  0.4120  0.2117 -0.0065
   66MOL   H21919849   0.238   7.654   5.672  0.5125 -2.0954  0.4097
   66MOL   H22019850   0.074   7.655   5.688 -0.4910 -1.0144  0.6009
   66MOL   H22119851   0.353   7.673   5.432  0.2159  0.3363 -1.5050
   66MOL   H22219852   0.299   7.519   5.396  1.1612  0.4241 -1.1072
   66MOL   H22319853   0.240   7.645   5.299 -1.6357 -1.4335  0.2881
   66MOL   H22419854   7.658   7.481   5.363 -1.4844  1.5490 -0.0763
   66MOL   H22519855   7.597   7.581   5.491 -0.6462 -0.6368 -0.6799
   66MOL   H22619856   7.673   7.415   5.528 -0.2310  0.5815  0.5562
   66MOL   C22719857   0.100   7.801   5.485 -0.1064  0.3120 -0.5037
   66MOL   C22819858   0.108   0.026   5.368 -0.4367 -0.4371 -0.0625
   66MOL   C22919859   0.260   0.053   5.332 -0.3620 -0.1118 -0.0485
   66MOL   C23019860   0.026   7.854   5.250 -0.8456  0.4359  0.1009
   66MOL   O23119861   7.789   7.822   5.259  0.2947 -0.0367  0.6355
   66MOL   O23219862   0.091   7.862   5.132  0.1302 -1.0518 -0.5772
   66MOL   C23319863   0.014   7.820   5.020  0.3068  0.0430 -0.5764
   66MOL   H23419864   0.163   7.843   5.563  0.3558 -0.5623 -0.3900
   66MOL   H23519865   0.003   7.799   5.533 -0.1360 -0.7148 -0.5797
   66MOL   H23619866   0.319   7.845   5.301 -0.8578 -0.9891  1.3810
   66MOL   H23719867   0.264   0.131   5.256 -0.6763 -1.4149 -1.4209
   66MOL   H23819868   0.311   0.099   5.416  1.5284  0.0117 -1.2327
   66MOL   H23919869   0.013   7.711   5.018  1.0574  0.0339 -0.5511
   66MOL   H24019870   0.058   7.865   4.931 -2.5170  0.5638 -1.7601
   66MOL   H24119871   7.789   7.855   5.012  0.4993  1.2249  1.6394
   66MOL   C24219872   0.037   0.158   5.420 -0.7734 -0.5238 -0.1574
   66MOL   C24319873   0.041   0.306   5.359 -0.1448  0.3240  0.3843
   66MOL   C24419874   7.812   0.379   5.444 -0.0528 -0.4682 -0.4837
   66MOL   C24519875   0.182   0.377   5.375 -0.2777 -0.1938 -0.5412
   66MOL   O24619876   0.259   0.384   5.276  0.1722 -0.1224  0.6783
   66MOL   O24719877   0.219   0.411   5.498 -0.5182 -0.3517 -0.3334
   66MOL   C24819878   0.325   0.502   5.521 -0.4224 -0.3875 -0.2418
   66MOL   H24919879   0.069   0.177   5.522 -1.0298 -0.5593 -0.0696
   66MOL   H25019880   7.807   0.142   5.429 -0.7027 -0.5076  0.7939
   66MOL   H25119881   7.844   0.394   5.547  0.4475  0.6381 -0.7908
   66MOL   H25219882   7.778   0.475   5.403 -1.1338 -0.9060 -0.6384
   66MOL   H25319883   7.722   0.318   5.446  1.8121 -3.3180 -0.3772
   66MOL   H25419884   0.358   0.513   5.624 -1.7093 -1.1970  0.2801
   66MOL   H25519885   0.278   0.593   5.484  0.5816  0.3455  0.2705
   66MOL   H25619886   0.414   0.492   5.460  1.0352 -1.4363  2.0067
   66MOL   C25719887   0.003   0.295   5.205  0.1260  0.0556 -0.0727
   66MOL   C25819888   7.828   0.411   5.109  0.0883  0.8267 -0.3135
   66MOL   C25919889   7.670   0.415   5.130  0.4173 -0.2258 -0.0347
   66MOL   C26019890   0.013   0.550   5.145 -0.6049 -0.2780 -0.7472
   66MOL   O26119891   7.828   0.627   5.218 -0.2566 -0.2442 -0.3789
   66MOL   O26219892   0.141   0.574   5.102 -0.2169 -0.3856  0.6446
   66MOL   C26319893   0.214   0.685   5.153  0.4371  0.3438  0.7126
   66MOL   H26419894   7.801   0.221   5.195 -0.3588  0.5494  0.1257
   66MOL   H26519895   0.090   0.249   5.157  0.6762  1.5458 -0.5263
   66MOL   H26619896   7.631   0.516   5.137 -2.6512 -1.2178 -1.9059
   66MOL   H26719897   7.610   0.366   5.054  0.7294  0.7411 -0.9097
   66MOL   H26819898   7.637   0.364   5.220 -2.7271  0.2947 -0.8346
   66MOL   H26919899   0.319   0.662   5.132  0.4592  2.3185 -1.5750
   66MOL   H27019900   0.191   0.688   5.259  0.6184  1.3372  0.7327
   66MOL   H27119901   0.189   0.781   5.107  0.2147 -0.0481  0.0059
   66MOL   C27219902   7.860   0.374   4.958 -0.2115  0.0494  0.4792
   66MOL   C27319903   7.832   0.474   4.839 -0.4539  1.1103  0.0897
   66MOL   C27419904   7.720   0.576   4.866  0.6531  0.2092  0.0468
   66MOL   C27519905   0.086   0.552   4.796 -0.2667  0.0915  0.6768
   66MOL   O27619906   0.097   0.672   4.799  0.7077 -0.1341  0.2098
   66MOL   O27719907   0.175   0.472   4.745 -0.3411 -0.5035 -0.6586
   66MOL   C27819908   0.293   0.519   4.687  0.1506  0.0684 -0.0610
   66MOL   H27919909   7.798   0.286   4.942  1.1556 -0.4808 -2.0782
   66MOL   H28019910   0.083   0.333   4.950 -0.1081  0.4350 -0.2003
   66MOL   H28119911   7.625   0.527   4.885  0.5389  0.4050 -0.0147
   66MOL   H28219912   7.736   0.637   4.955 -1.3827 -2.2450  2.1742
   66MOL   H28319913   7.692   0.641   4.783 -0.3455  3.7133  3.0239
   66MOL   H28419914   0.309   0.625   4.669  2.2446  0.5156  3.9890
   66MOL   H28519915   0.306   0.470   4.590 -1.8938 -0.3819 -0.1295
   66MOL   H28619916   0.382   0.485   4.738 -0.6288 -1.0971  0.5558
   66MOL   C28719917   7.790   0.386   4.712 -0.7436 -0.2324 -0.7288
   66MOL   C28819918   7.776   0.449   4.573  0.4905 -0.3301  0.4209
   66MOL   C28919919   7.835   0.363   4.458  0.2814  0.6072  0.7662
   66MOL   C29019920   7.638   0.503   4.539 -0.1499 -0.0713  0.5827
   66MOL   O29119921   7.541   0.482   4.612 -0.1960  0.4362  0.4873
   66MOL   O29219922   7.624   0.592   4.438 -0.0307  0.1844  0.0109
   66MOL   C29319923   7.517   0.678   4.434  0.2574  0.4610 -0.1943
   66MOL   H29419924   7.698   0.333   4.737  0.0449 -0.1607  2.4749
   66MOL   H29519925   7.853   0.297   4.717 -0.5744 -0.0162  1.3708
   66MOL   H29619926   7.851   0.430   4.374  0.1561  2.4225  2.1519
   66MOL   H29719927   0.054   0.315   4.471  0.3099 -0.5687 -3.0975
   66MOL   H29819928   7.765   0.288   4.420  0.6877  1.3532 -1.5027
   66MOL   H29919929   7.536   0.753   4.358 -0.6114 -0.7697 -1.6583
   66MOL   H30019930   7.493   0.731   4.527  1.6754 -0.1147  0.5132
   66MOL   H30119931   7.426   0.625   4.405  0.7580 -1.3508  1.3778
   66MOL   H30219932   7.833   0.541   4.565  0.7216 -0.6823 -2.6300
   67MOL     C119933   6.772   3.057   1.143  0.3627 -0.5628 -0.1110
   67MOL     C219934   6.835   2.976   1.033  0.1374 -0.1448 -0.9850
   67MOL     C319935   6.909   2.858   1.103 -0.2794 -0.1308  0.1593
   67MOL     C419936   6.720   2.923   0.943  0.2759  0.6610 -0.2757
   67MOL     O519937   6.612   2.985   0.936 -0.0201 -0.3696  0.1638
   67MOL     O619938   6.760   2.804   0.882  0.5093  0.2042  0.9696
   67MOL     C719939   6.651   2.730   0.820  0.3151 -0.5066  0.3534
   67MOL     H819940   6.698   2.995   1.194 -1.5070  2.0971  0.5179
   67MOL     H919941   6.847   3.086   1.217  3.6367 -1.0329 -3.1138
   67MOL    H1019942   6.986   2.873   1.179  1.1729  0.1661 -1.3373
   67MOL    H1119943   6.842   2.794   1.159  0.8027 -1.2824  0.1612
   67MOL    H1219944   6.945   2.790   1.027 -0.9195 -1.2744  0.8728
   67MOL    H1319945   6.689   2.658   0.748  0.3030  0.7120 -0.8917
   67MOL    H1419946   6.587   2.803   0.771 -1.6377  0.1005  3.6037
   67MOL    H1519947   6.605   2.685   0.908 -0.6719  0.4428  0.3338
   67MOL    H1619948   6.714   3.146   1.116 -0.8904 -1.6513 -1.0316
   67MOL    C1719949   6.930   3.078   0.953 -0.1250  0.0580  0.1201
   67MOL    C1819950   7.078   3.121   0.992 -1.0508 -0.0476  0.5308
   67MOL    C1919951   7.077   3.172   1.139 -0.1041  0.1449  0.9567
   67MOL    C2019952   7.176   3.001   0.986 -0.1721  0.5175 -0.0797
   67MOL    O2119953   7.271   2.977   1.066  0.4913  0.2316 -0.2161
   67MOL    O2219954   7.150   2.931   0.870  0.2782 -0.3032 -0.4879
   67MOL    C2319955   7.239   2.817   0.841 -0.7225  0.1116  0.1365
   67MOL    H2419956   6.867   3.166   0.943  0.5121  0.4910 -0.1045
   67MOL    H2519957   6.924   3.052   0.848 -0.1030 -0.3396  0.2160
   67MOL    H2619958   6.991   3.235   1.159 -1.0854 -1.2438  1.2100
   67MOL    H2719959   7.066   3.097   1.218  1.5343 -0.5641  0.5269
   67MOL    H2819960   7.163   3.231   1.168 -0.3085 -0.9558  3.9457
   67MOL    H2919961   7.201   2.782   0.745  0.3131 -0.9601  0.1178
   67MOL    H3019962   7.218   2.740   0.915 -2.2639 -1.2523 -1.6709
   67MOL    H3119963   7.341   2.856   0.840  0.4423 -2.7893  0.7896
   67MOL    C3219964   7.112   3.241   0.886  0.2171  0.2524 -0.0724
   67MOL    C3319965   7.238   3.334   0.903  0.8397 -0.2309  0.5720
   67MOL    C3419966   7.243   3.421   0.779  0.4533  0.8154 -0.1182
   67MOL    C3519967   7.201   3.431   1.027 -0.2910  0.2863  0.5635
   67MOL    O3619968   7.261   3.436   1.132 -0.5792  0.3373 -0.3471
   67MOL    O3719969   7.094   3.505   0.995 -0.5398  0.1390  0.1218
   67MOL    C3819970   7.046   3.592   1.094  0.3080  0.2895 -0.1183
   67MOL    H3919971   7.018   3.295   0.898 -0.4115 -0.9766  0.7480
   67MOL    H4019972   7.107   3.193   0.789 -0.8172 -1.6429  0.8754
   67MOL    H4119973   7.141   3.434   0.741 -0.0005  0.9826  1.1566
   67MOL    H4219974   7.293   3.518   0.785 -1.3606  1.8361 -0.8341
   67MOL    H4319975   7.292   3.369   0.696 -1.9347 -0.0601 -1.0471
   67MOL    H4419976   7.115   3.674   1.115  0.6878 -0.3894  1.3625
   67MOL    H4519977   7.023   3.539   1.186  1.2007  4.7417  2.8270
   67MOL    H4619978   6.951   3.625   1.052 -1.5057 -2.8713  1.3569
   67MOL    C4719979   7.374   3.252   0.911 -0.8976 -0.4366  0.5658
   67MOL    C4819980   7.523   3.310   0.903 -0.7465 -0.2874  0.0717
   67MOL    C4919981   7.552   3.382   0.766 -0.7165  0.7385  0.6084
   67MOL    C5019982   7.551   3.407   1.023 -0.3439 -0.1873 -0.3454
   67MOL    O5119983   7.585   3.523   0.997  0.5871 -0.9140  0.8199
   67MOL    O5219984   7.541   3.353   1.145  0.2383 -0.8788 -0.5937
   67MOL    C5319985   7.565   3.430   1.260 -0.8779 -0.5571 -0.1673
   67MOL    H5419986   7.369   3.178   0.831 -2.4187 -0.9213  1.0990
   67MOL    H5519987   7.369   3.194   1.002  2.1179  0.3446  1.2944
   67MOL    H5619988   7.657   3.413   0.763 -0.3658 -0.4140  0.5940
   67MOL    H5719989   7.542   3.322   0.675  1.2046  0.5386  0.5067
   67MOL    H5819990   7.493   3.472   0.752 -0.0124  0.8537 -1.9141
   67MOL    H5919991   7.484   3.502   1.270  0.2444  0.5151  1.4066
   67MOL    H6019992   7.651   3.496   1.261  0.6785 -2.5442  0.8984
   67MOL    H6119993   7.580   3.370   1.350  0.5974  1.3444  0.8900
   67MOL    C6219994   7.626   3.189   0.913  0.5591  0.6099 -0.2114
   67MOL    C6319995   7.777   3.176   0.887  0.6443 -0.4428 -0.8116
   67MOL    C6419996   7.851   3.296   0.958  0.1924  0.8897 -0.0605
   67MOL    C6519997   7.805   3.037   0.956 -0.1018 -0.4124  0.9962
   67MOL    O6619998   7.841   3.029   1.077 -0.5152 -0.5684  0.5140
   67MOL    O6719999   7.762   2.935   0.879  0.0935  0.6134  0.1525
   67MOL    C6820000   7.737   2.809   0.944 -0.2320 -0.4137 -0.6647
   67MOL    H6920001   7.583   3.112   0.849  1.5839  0.2153 -0.4254
   67MOL    H7020002   7.616   3.148   1.014 -0.5448  0.0572 -0.5297
   67MOL    H7120003   7.826   3.304   1.064  1.4851 -2.3844  0.5438
   67MOL    H7220004   0.081   3.281   0.955  0.0435 -0.0126 -1.2819
   67MOL    H7320005   7.831   3.391   0.908 -0.3248  0.8750  0.1194
   67MOL    H7420006   7.642   2.802   0.998 -0.1172  1.2733 -0.2048
   67MOL    H7520007   7.818   2.798   1.016  0.9247  0.1224 -1.8692
   67MOL    H7620008   7.743   2.718   0.883  0.1929  0.2502 -1.6320
   67MOL    C7720009   7.798   3.173   0.733  0.5660  0.6969  0.3083
   67MOL    C7820010   0.061   3.152   0.662  1.5672  0.3877  0.7765
   67MOL    C7920011   0.144   3.051   0.734 -0.6295  0.5463  0.7709
   67MOL    C8020012   0.035   3.074   0.527 -0.0493  0.1016 -0.0858
   67MOL    O8120013   0.098   3.100   0.428 -0.8803  0.3274  0.0848
   67MOL    O8220014   7.831   2.968   0.542 -0.2008 -0.1925 -0.4067
   67MOL    C8320015   7.804   2.879   0.432  0.5669 -0.0961  0.9420
   67MOL    H8420016   7.762   3.264   0.685  0.5928 -1.0163 -3.1706
   67MOL    H8520017   7.729   3.100   0.691  0.9587  0.1855  0.5534
   67MOL    H8620018   0.102   2.952   0.743  0.9641 -0.1148  1.1967
   67MOL    H8720019   0.236   3.025   0.681 -0.1117  0.0026  1.9368
   67MOL    H8820020   0.177   3.084   0.832 -1.8858 -0.7856  1.6538
   67MOL    H8920021   7.742   2.934   0.361 -2.7682  0.9799  4.5447
   67MOL    H9020022   7.742   2.792   0.457 -1.4474  1.8416  2.9234
   67MOL    H9120023   0.025   2.858   0.391  1.2561 -0.4316  2.7276
   67MOL    C9220024   0.145   3.285   0.644 -0.3450 -0.6668  0.4900
   67MOL    C9320025   0.106   3.412   0.554 -0.2220 -0.1094 -0.4782
   67MOL    C9420026   0.027   3.373   0.429  0.3910  0.1594 -0.3651
   67MOL    C9520027   0.020   3.506   0.638  0.1518  0.0368 -0.2926
   67MOL    O9620028   7.787   3.551   0.598 -0.0893 -0.5640 -0.2717
   67MOL    O9720029   0.079   3.537   0.753 -0.4518 -0.3040 -0.6550
   67MOL    C9820030   0.023   3.630   0.839 -0.1790  0.1581 -0.4170
   67MOL    H9920031   0.244   3.256   0.610 -0.2454 -0.0523  0.2428
   67MOL   H10020032   0.169   3.318   0.745  1.4110 -1.0744  0.2250
   67MOL   H10120033   7.822   3.311   0.465  0.4109  2.1545  3.4183
   67MOL   H10220034   7.859   3.457   0.376 -0.0206  0.3669  0.3134
   67MOL   H10320035   0.090   3.329   0.352  0.5368  0.4906 -0.4384
   67MOL   H10420036   0.051   3.600   0.940  0.0058 -1.1063 -0.8355
   67MOL   H10520037   7.792   3.623   0.834 -0.4170  2.3034  1.3412
   67MOL   H10620038   0.043   3.736   0.827  0.1731  0.1946  0.4623
   67MOL   C10720039   0.235   3.499   0.516  0.4757 -0.1786  0.1364
   67MOL   C10820040   0.327   3.479   0.388 -0.3475  0.3736  0.2634
   67MOL   C10920041   0.363   3.327   0.391 -0.0545  0.2706  0.0610
   67MOL   C11020042   0.260   3.522   0.254  0.0702  0.3301  0.6335
   67MOL   O11120043   0.162   3.595   0.253 -0.0961  0.7035 -0.5152
   67MOL   O11220044   0.322   3.474   0.146 -0.4998  0.1810  0.4432
   67MOL   C11320045   0.247   3.472   0.029  0.3574 -0.4638  1.0417
   67MOL   H11420046   0.310   3.482   0.593  1.1224 -1.8487 -0.8339
   67MOL   H11520047   0.206   3.604   0.522 -1.2578 -0.5093 -1.7691
   67MOL   H11620048   0.426   3.303   0.477 -0.3204  1.8630  0.7227
   67MOL   H11720049   0.280   3.257   0.402  0.4365 -0.2122  0.7076
   67MOL   H11820050   0.423   3.298   0.305  0.4752 -0.5097  0.6891
   67MOL   H11920051   0.176   3.390   0.034  0.8119 -1.3173 -3.6872
   67MOL   H12020052   0.307   3.447   7.818  1.8905  0.7054  1.7254
   67MOL   H12120053   0.191   3.564   0.012  1.8954  0.1535 -1.0323
   67MOL   C12220054   0.461   3.562   0.409 -0.1296 -0.4934 -0.2809
   67MOL   C12320055   0.471   3.718   0.447  0.9390  0.2449  0.4579
   67MOL   C12420056   0.371   3.792   0.354 -1.2259  0.5804 -0.1539
   67MOL   C12520057   0.427   3.741   0.592 -0.1170  0.5197 -0.4640
   67MOL   O12620058   0.329   3.809   0.616  0.0582  0.6867  0.2908
   67MOL   O12720059   0.508   3.682   0.690  0.3413 -0.7047  0.2642
   67MOL   C12820060   0.504   3.738   0.823  0.7919  0.0121 -0.6213
   67MOL   H12920061   0.519   3.549   0.317 -1.4279  0.3357 -1.2355
   67MOL   H13020062   0.516   3.513   0.489  1.3470  0.9713 -0.3833
   67MOL   H13120063   0.360   3.899   0.369 -1.6010  0.7991 -1.8153
   67MOL   H13220064   0.385   3.761   0.250  1.6920 -0.9735  0.6434
   67MOL   H13320065   0.267   3.765   0.368 -0.7185 -1.7384 -0.5166
   67MOL   H13420066   0.601   3.743   0.873 -0.1992 -1.6508  1.5475
   67MOL   H13520067   0.432   3.680   0.881  1.6267 -0.5811 -0.1628
   67MOL   H13620068   0.462   3.838   0.813  1.4024  0.2703 -0.6631
   67MOL   C13720069   0.621   3.761   0.424  0.1750 -0.5558 -0.1251
   67MOL   C13820070   0.661   3.915   0.421 -0.0380 -0.0361  1.1282
   67MOL   C13920071   0.823   3.903   0.418 -0.2385  1.0089  0.5290
   67MOL   C14020072   0.622   3.973   0.286  0.2127  0.7778  0.1485
   67MOL   O14120073   0.535   4.059   0.267  0.1359  0.0084  0.5416
   67MOL   O14220074   0.692   3.921   0.185 -0.0917  0.6538 -0.2621
   67MOL   C14320075   0.690   3.987   0.065 -1.1309 -0.6353 -0.5032
   67MOL   H14420076   0.660   3.707   0.338  1.6908  0.3756 -0.0551
   67MOL   H14520077   0.686   3.715   0.498  2.3110  1.4188 -0.7018
   67MOL   H14620078   0.865   3.861   0.509 -2.2750 -0.6148  0.7604
   67MOL   H14720079   0.864   3.843   0.336 -0.4750  1.0836  0.3556
   67MOL   H14820080   0.874   3.999   0.416 -0.3477  1.1423  2.9779
   67MOL   H14920081   0.720   4.091   0.082 -1.7967 -0.4670 -0.3436
   67MOL   H15020082   0.591   3.994   0.021 -0.7729  0.4182 -1.1732
   67MOL   H15120083   0.757   3.934   7.875  0.3344 -1.6160  1.6542
   67MOL   C15220084   0.601   4.005   0.540  0.1161 -0.9011 -0.3896
   67MOL   C15320085   0.655   4.144   0.588  0.1591  0.0955 -0.3759
   67MOL   C15420086   0.790   4.127   0.663  0.4234 -0.1890 -0.8245
   67MOL   C15520087   0.683   4.248   0.477  0.1650  0.2308 -0.1597
   67MOL   O15620088   0.796   4.261   0.425 -0.3238 -0.2686  0.5409
   67MOL   O15720089   0.577   4.299   0.425  0.3401 -0.3263  0.4930
   67MOL   C15820090   0.573   4.382   0.309  0.3953  0.2034 -0.4366
   67MOL   H15920091   0.611   3.942   0.629  0.1237  1.1590  1.1120
   67MOL   H16020092   0.494   4.002   0.525 -0.1702 -1.8985  1.7246
   67MOL   H16120093   0.771   4.063   0.749  1.5851  1.0863  0.3841
   67MOL   H16220094   0.867   4.081   0.601 -0.8351  0.0163 -2.6037
   67MOL   H16320095   0.833   4.221   0.697 -0.8693  0.4214 -0.8430
   67MOL   H16420096   0.475   4.418   0.276  0.1977 -0.8895 -1.0551
   67MOL   H16520097   0.618   4.348   0.216  1.9190  1.3491 -0.1516
   67MOL   H16620098   0.639   4.468   0.325 -0.3140  0.4752  1.1512
   67MOL   C16720099   0.541   4.194   0.682  0.0495  0.2009 -1.0376
   67MOL   C16820100   0.546   4.315   0.785  0.4594  0.6731 -0.4274
   67MOL   C16920101   0.616   4.257   0.916  0.2502 -0.1088  0.3082
   67MOL   C17020102   0.630   4.434   0.723  0.5545 -1.1423 -0.5522
   67MOL   O17120103   0.745   4.468   0.760  0.0367 -0.2259 -0.1347
   67MOL   O17220104   0.565   4.505   0.618 -0.4127  0.2494  0.0208
   67MOL   C17320105   0.630   4.620   0.567  0.1436  0.4746 -0.2612
   67MOL   H17420106   0.524   4.105   0.742 -0.3647  1.9883  1.5812
   67MOL   H17520107   0.451   4.200   0.622 -0.4061  1.6206 -0.2412
   67MOL   H17620108   0.725   4.255   0.916  0.2330 -1.1608  0.7091
   67MOL   H17720109   0.602   4.313   1.009 -1.2215 -0.4779  0.3207
   67MOL   H17820110   0.598   4.150   0.927  0.9100 -0.6777 -3.5932
   67MOL   H17920111   0.668   4.691   0.640 -0.5851  1.2439 -0.6306
   67MOL   H18020112   0.562   4.663   0.494  0.1052  1.0816  0.1324
   67MOL   H18120113   0.718   4.583   0.514  1.1143  1.2215  0.8053
   67MOL   C18220114   0.401   4.365   0.813  0.8977  0.4716  0.1752
   67MOL   C18320115   0.288   4.294   0.900  0.1740  1.2983 -0.6799
   67MOL   C18420116   0.170   4.386   0.863  1.4451 -0.3039 -0.2904
   67MOL   C18520117   0.263   4.145   0.857 -0.1420 -0.7753  0.2058
   67MOL   O18620118   0.327   4.053   0.907 -0.6395  0.5834 -0.1925
   67MOL   O18720119   0.163   4.133   0.770  0.2739 -0.1553  0.6987
   67MOL   C18820120   0.113   3.998   0.743  0.2400  0.3597  0.0086
   67MOL   H18920121   0.355   4.385   0.716 -1.2014  1.0679  1.2888
   67MOL   H19020122   0.424   4.461   0.861 -0.1594  0.9806 -0.3202
   67MOL   H19120123   0.183   4.493   0.879 -0.4746 -0.2333  0.9431
   67MOL   H19220124   0.151   4.381   0.756 -0.3629  0.2287 -0.0070
   67MOL   H19320125   0.075   4.351   0.905  1.9329 -0.5727  0.5989
   67MOL   H19420126   0.050   3.989   0.654  0.5291  0.9533 -0.2594
   67MOL   H19520127   0.049   3.978   0.829  1.7633 -1.3687  0.7654
   67MOL   H19620128   0.192   3.923   0.741 -1.2830 -1.3531  2.1240
   67MOL   C19720129   0.322   4.298   1.057 -1.2633 -0.8462 -0.7862
   67MOL   C19820130   0.210   4.300   1.177 -0.1751  0.4952  0.1498
   67MOL   C19920131   0.149   4.446   1.194 -0.1951 -0.3623 -0.1087
   67MOL   C20020132   0.090   4.203   1.147  0.0136 -0.1426  0.1251
   67MOL   O20120133   7.851   4.236   1.160 -0.3475 -0.4058  0.0443
   67MOL   O20220134   0.135   4.074   1.129  0.0193 -0.5492 -0.2630
   67MOL   C20320135   0.037   3.977   1.135  0.2419 -0.0926  0.7520
   67MOL   H20420136   0.399   4.371   1.082 -1.8820 -0.7110  0.7800
   67MOL   H20520137   0.389   4.211   1.066  0.5438  0.5603 -0.3238
   67MOL   H20620138   0.134   4.480   1.297 -1.2163  1.2166 -0.7570
   67MOL   H20720139   0.211   4.525   1.151  1.5038 -1.3206  0.5308
   67MOL   H20820140   0.062   4.475   1.135 -0.3024 -0.8658 -0.1996
   67MOL   H20920141   0.067   3.874   1.118 -0.1184 -0.2810  1.2453
   67MOL   H21020142   7.836   3.987   1.060  0.9913 -0.1723 -0.0472
   67MOL   H21120143   7.877   3.977   1.237  2.3781  0.5417  1.5716
   67MOL   C21220144   0.255   4.249   1.322  0.4387 -0.1769 -0.4240
   67MOL   C21320145   0.391   4.301   1.392  0.2604 -0.0630 -0.0570
   67MOL   C21420146   0.384   4.457   1.399 -0.2134 -0.4782 -0.3449
   67MOL   C21520147   0.383   4.241   1.544 -0.8123  0.3101  0.9549
   67MOL   O21620148   0.342   4.124   1.563  0.0502 -0.0396  0.1953
   67MOL   O21720149   0.433   4.322   1.642  0.3080  0.4386  0.4066
   67MOL   C21820150   0.459   4.270   1.772 -0.0086 -0.4201  0.2254
   67MOL   H21920151   0.257   4.140   1.332 -0.1433 -0.1982 -0.5418
   67MOL   H22020152   0.171   4.265   1.389  0.2968  2.8391 -1.2396
   67MOL   H22120153   0.316   4.493   1.477  1.0945 -1.1793  1.1510
   67MOL   H22220154   0.479   4.497   1.434 -0.1874  1.0209 -2.0932
   67MOL   H22320155   0.372   4.497   1.298  2.6814 -1.0977 -0.9828
   67MOL   H22420156   0.420   4.170   1.786  1.6618 -1.0677  0.3227
   67MOL   H22520157   0.442   4.333   1.860  0.3464  0.0437 -0.0344
   67MOL   H22620158   0.565   4.243   1.767  0.0925 -0.1153  0.6848
   67MOL   C22720159   0.520   4.250   1.316  0.9338  0.3274 -0.3493
   67MOL   C22820160   0.655   4.212   1.379  0.6097 -0.0422  0.1781
   67MOL   C22920161   0.717   4.333   1.458 -0.5137  0.3272  0.2483
   67MOL   C23020162   0.650   4.097   1.474 -0.4937  0.4501 -0.9238
   67MOL   O23120163   0.685   4.104   1.593 -0.2139 -0.1227 -0.4076
   67MOL   O23220164   0.594   3.993   1.421  0.2440  0.3035 -0.1347
   67MOL   C23320165   0.578   3.877   1.500 -0.7189 -0.5220 -0.7156
   67MOL   H23420166   0.542   4.321   1.236  3.2882  0.1660  0.1306
   67MOL   H23520167   0.483   4.157   1.274  4.1070 -0.8256 -0.6558
   67MOL   H23620168   0.751   4.423   1.408 -1.6179  0.2683 -0.6343
   67MOL   H23720169   0.642   4.372   1.527  0.5986  2.0149  0.5214
   67MOL   H23820170   0.800   4.309   1.524 -0.5689  1.3743  0.6966
   67MOL   H23920171   0.669   3.825   1.528  1.0109  3.0221  0.4578
   67MOL   H24020172   0.512   3.809   1.445  0.6526 -0.4973 -2.4122
   67MOL   H24120173   0.525   3.914   1.588  0.9336 -2.4558  1.1647
   67MOL   C24220174   0.756   4.172   1.256  0.7736  0.2500  0.0019
   67MOL   C24320175   0.909   4.129   1.265  0.5239 -1.1722 -0.4000
   67MOL   C24420176   0.989   4.234   1.350  0.6477 -0.5423  0.4797
   67MOL   C24520177   0.918   3.994   1.333  0.1632 -0.2426  0.2744
   67MOL   O24620178   0.991   3.972   1.432  0.0764  0.1750  0.9819
   67MOL   O24720179   0.840   3.904   1.274 -0.0567  0.3455  0.4920
   67MOL   C24820180   0.850   3.772   1.325 -0.8025  0.1592  0.3303
   67MOL   H24920181   0.763   4.263   1.195  1.1801  0.6407  0.6218
   67MOL   H25020182   0.708   4.102   1.188  1.2634  0.4223 -0.5258
   67MOL   H25120183   0.989   4.225   1.459  0.7521 -3.6294  0.2713
   67MOL   H25220184   1.097   4.220   1.341  0.7910 -0.0918  1.5013
   67MOL   H25320185   0.975   4.334   1.311  0.2736  0.2678  2.6482
   67MOL   H25420186   0.767   3.709   1.293 -1.9773  0.8491  1.9953
   67MOL   H25520187   0.849   3.773   1.434  1.1536 -1.1069  0.3986
   67MOL   H25620188   0.940   3.719   1.294 -0.7633  1.1935 -1.4177
   67MOL   C25720189   0.963   4.130   1.114 -0.7430  0.2686 -0.5305
   67MOL   C25820190   1.106   4.055   1.068 -0.3492 -0.0167  0.1926
   67MOL   C25920191   1.219   4.078   1.170 -0.4362 -0.3115  0.2923
   67MOL   C26020192   1.071   3.907   1.044  0.2869  0.5132 -0.6650
   67MOL   O26120193   1.136   3.811   1.090  0.3584  0.0916  0.2397
   67MOL   O26220194   0.967   3.877   0.960 -0.0037 -0.0778  0.4344
   67MOL   C26320195   0.919   3.753   0.940 -0.4854  0.5080  0.4957
   67MOL   H26420196   0.974   4.238   1.099  1.9813 -0.1905 -2.1268
   67MOL   H26520197   0.882   4.107   1.045 -1.0573  1.2371 -0.5036
   67MOL   H26620198   1.229   4.186   1.178 -1.2161  0.1037 -3.3851
   67MOL   H26720199   1.191   4.016   1.256 -0.0118 -1.8652 -0.6720
   67MOL   H26820200   1.313   4.038   1.134 -1.6249 -2.0153 -0.9719
   67MOL   H26920201   0.870   3.715   1.029 -0.1615 -0.5688  0.2197
   67MOL   H27020202   0.996   3.687   0.900  0.3795  1.8629 -0.1276
   67MOL   H27120203   0.840   3.764   0.866 -1.1625  1.2334  1.3241
   67MOL   C27220204   1.140   4.114   0.927  0.9777 -1.3312 -0.5712
   67MOL   C27320205   1.227   4.054   0.806 -0.1500  0.9714 -0.7196
   67MOL   C27420206   1.157   3.931   0.734  0.5025 -0.5060  0.3158
   67MOL   C27520207   1.233   4.168   0.699 -0.1160 -0.0674  0.0918
   67MOL   O27620208   1.330   4.238   0.687 -0.3668  0.1922  0.6216
   67MOL   O27720209   1.119   4.185   0.625  0.0616  0.1412  0.0154
   67MOL   C27820210   1.116   4.290   0.535 -0.3759  0.1411 -0.8935
   67MOL   H27920211   1.167   4.218   0.945 -2.6364 -0.7297  2.0500
   67MOL   H28020212   1.041   4.124   0.882  0.3810  2.4561  1.3108
   67MOL   H28120213   1.210   3.886   0.650  1.5887 -2.4486  1.9969
   67MOL   H28220214   1.158   3.837   0.788 -0.4279 -0.8320 -0.2332
   67MOL   H28320215   1.052   3.938   0.707  1.0037 -1.9809 -2.1890
   67MOL   H28420216   1.009   4.305   0.516 -1.2369 -4.4068 -0.3217
   67MOL   H28520217   1.160   4.242   0.448  0.3610 -0.2032 -0.3328
   67MOL   H28620218   1.170   4.377   0.571  0.4132 -1.0144  0.7957
   67MOL   C28720219   1.376   4.017   0.856  0.1427  0.2179  0.8919
   67MOL   C28820220   1.491   3.978   0.752  0.5305  0.2123  0.3458
   67MOL   C28920221   1.643   3.997   0.800  0.1256 -0.3260 -0.4540
   67MOL   C29020222   1.473   3.838   0.698  0.1203 -0.0959 -0.1678
   67MOL   O29120223   1.441   3.816   0.584  0.1741 -0.0427 -0.4309
   67MOL   O29220224   1.470   3.748   0.796  0.2584  0.1773 -1.1915
   67MOL   C29320225   1.438   3.608   0.778 -0.3904 -0.4909  0.8549
   67MOL   H29420226   1.376   3.940   0.934  0.7787  1.1673  1.8342
   67MOL   H29520227   1.410   4.103   0.914  0.9107  0.1727  0.5052
   67MOL   H29620228   1.718   3.968   0.726  1.7257 -1.8601  1.7079
   67MOL   H29720229   1.660   4.092   0.851  0.8801  0.1120 -1.5015
   67MOL   H29820230   1.653   3.934   0.889  0.9420  1.1344  0.5160
   67MOL   H29920231   1.524   3.549   0.744 -1.6921 -1.7952 -0.2360
   67MOL   H30020232   1.361   3.611   0.701  2.1333  2.4670 -1.6919
   67MOL   H30120233   1.393   3.568   0.869 -0.9547 -1.2933  0.2260
   67MOL   H30220234   1.470   4.046   0.670  0.3700  1.3114  1.2898
   68MOL     C120235   1.812   2.626   2.901  0.1728  0.7790 -0.3712
   68MOL     C220236   1.907   2.562   3.004 -0.0573  0.3176 -0.2855
   68MOL     C320237   1.836   2.564   3.139  0.6646  0.6588  0.7615
   68MOL     C420238   1.929   2.411   2.975 -0.0080 -0.6311 -0.2480
   68MOL     O520239   1.873   2.357   2.884 -0.2064  0.0261  0.8725
   68MOL     O620240   2.023   2.359   3.049 -0.2363 -0.5286 -0.8941
   68MOL     C720241   2.080   2.237   3.019  0.3061  0.0358 -0.0679
   68MOL     H820242   1.824   2.584   2.801 -2.8939 -5.0657  1.4872
   68MOL     H920243   1.708   2.604   2.925 -0.1780  1.9848 -0.7098
   68MOL    H1020244   1.906   2.544   3.221 -0.1898 -0.5453  1.1976
   68MOL    H1120245   1.791   2.660   3.163  3.4648  1.7528  1.9748
   68MOL    H1220246   1.758   2.489   3.150 -0.4319  1.5988 -0.5372
   68MOL    H1320247   2.170   2.217   3.077  0.8736 -0.1675 -1.0029
   68MOL    H1420248   2.095   2.231   2.911 -1.2200  1.2894 -0.3745
   68MOL    H1520249   2.013   2.154   3.041 -0.1335  0.6003  0.7295
   68MOL    H1620250   1.819   2.735   2.890  0.2153  0.8594  0.4696
   68MOL    C1720251   2.037   2.651   3.013 -0.1644  0.7064 -0.0448
   68MOL    C1820252   2.135   2.687   2.893 -0.1447 -0.2164  0.1057
   68MOL    C1920253   2.070   2.778   2.784 -0.9272  0.2867  0.1085
   68MOL    C2020254   2.252   2.774   2.957  0.0225 -0.4287 -0.4551
   68MOL    O2120255   2.276   2.891   2.919  0.7878 -0.1730  0.6226
   68MOL    O2220256   2.322   2.705   3.053  0.2638 -0.2655 -0.0388
   68MOL    C2320257   2.438   2.759   3.118  0.4329 -0.3562  0.2491
   68MOL    H2420258   2.101   2.616   3.094  0.9621  4.4749  0.7629
   68MOL    H2520259   1.993   2.742   3.053 -1.3014 -0.4380  1.3851
   68MOL    H2620260   2.019   2.866   2.825  2.1038  2.0912  0.1804
   68MOL    H2720261   2.150   2.824   2.727  0.1811  0.1962  1.5693
   68MOL    H2820262   2.000   2.735   2.712  2.1802 -2.0009 -1.6310
   68MOL    H2920263   2.412   2.851   3.169 -1.4771 -1.0081  0.4996
   68MOL    H3020264   2.518   2.788   3.050 -0.5544  2.1446  0.1234
   68MOL    H3120265   2.482   2.691   3.191  0.4462  0.8757  1.4013
   68MOL    C3220266   2.197   2.554   2.832  0.0574 -0.0810 -0.7022
   68MOL    C3320267   2.302   2.539   2.714  0.3283  0.0865 -0.2582
   68MOL    C3420268   2.234   2.555   2.572  0.6083  0.1301  0.2312
   68MOL    C3520269   2.416   2.650   2.721 -0.1911  0.0886  0.3109
   68MOL    O3620270   2.494   2.650   2.819  0.6248  0.2743 -0.0543
   68MOL    O3720271   2.408   2.746   2.624  0.3040 -0.4128  0.5562
   68MOL    C3820272   2.458   2.877   2.629 -0.6053 -0.0789 -0.5490
   68MOL    H3920273   2.115   2.488   2.803  0.4889  0.3365 -3.0211
   68MOL    H4020274   2.242   2.506   2.918 -0.4835 -0.1604 -0.4621
   68MOL    H4120275   2.318   2.566   2.503  1.9118 -0.5308  1.6654
   68MOL    H4220276   2.169   2.470   2.550 -1.5058  1.6901  0.3880
   68MOL    H4320277   2.173   2.645   2.566 -0.1560 -0.1927  2.5446
   68MOL    H4420278   2.462   2.916   2.527  1.3616  0.6047 -0.2145
   68MOL    H4520279   2.563   2.884   2.657  0.1077 -0.4226 -2.9937
   68MOL    H4620280   2.397   2.928   2.704  1.4038  1.6098 -0.0110
   68MOL    C4720281   2.370   2.399   2.728 -0.4111 -0.1971 -0.6852
   68MOL    C4820282   2.473   2.330   2.632  0.1784 -1.4227 -1.0348
   68MOL    C4920283   2.571   2.436   2.579  0.2312 -0.1737 -0.2582
   68MOL    C5020284   2.551   2.216   2.712 -0.1415 -0.4393  0.1682
   68MOL    O5120285   2.524   2.181   2.830  0.1212 -0.1394 -0.1530
   68MOL    O5220286   2.659   2.178   2.644  0.2956 -0.2851 -0.6128
   68MOL    C5320287   2.748   2.089   2.705  0.3360 -0.1782  0.3294
   68MOL    H5420288   2.296   2.328   2.766  0.5683  0.1338  1.9600
   68MOL    H5520289   2.429   2.420   2.817 -0.0635  1.5883 -1.3274
   68MOL    H5620290   2.523   2.509   2.515 -1.5194 -0.8144  0.2978
   68MOL    H5720291   2.625   2.482   2.662  1.5217  2.5680 -2.5105
   68MOL    H5820292   2.655   2.388   2.529 -0.0092  0.2139 -1.0345
   68MOL    H5920293   2.707   1.989   2.691  3.2354 -1.2512 -0.8584
   68MOL    H6020294   2.759   2.122   2.808 -0.8887 -0.4550  0.5551
   68MOL    H6120295   2.835   2.091   2.639 -1.6903 -1.1142 -2.4841
   68MOL    C6220296   2.410   2.266   2.507  0.0060  0.6791  0.0799
   68MOL    C6320297   2.350   2.122   2.480 -0.6917 -0.4364 -0.6086
   68MOL    C6420298   2.443   2.007   2.528  0.4041  0.2821 -0.2674
   68MOL    C6520299   2.214   2.111   2.557  0.1868 -0.4235 -0.5604
   68MOL    O6620300   2.187   2.007   2.619  0.5490  0.6052  0.7339
   68MOL    O6720301   2.129   2.217   2.539  0.4020 -0.0622  0.2940
   68MOL    C6820302   1.996   2.225   2.590  0.5310  0.0392  0.4503
   68MOL    H6920303   2.495   2.265   2.439  1.0749 -1.3981  1.3855
   68MOL    H7020304   2.344   2.336   2.455  1.9676  1.6011 -1.1955
   68MOL    H7120305   2.468   1.998   2.634  0.8911  0.4382 -0.3665
   68MOL    H7220306   2.394   1.912   2.507  1.1314  0.0129 -0.7919
   68MOL    H7320307   2.536   2.014   2.470  0.3757  0.6503 -0.2682
   68MOL    H7420308   1.923   2.209   2.510  2.2660 -1.8455 -0.8017
   68MOL    H7520309   1.992   2.319   2.644  2.1450  0.5694 -0.3191
   68MOL    H7620310   1.982   2.145   2.663 -2.5134  0.8864  0.8699
   68MOL    C7720311   2.327   2.115   2.319  0.0412 -0.1703  0.2275
   68MOL    C7820312   2.221   2.019   2.245 -0.5335 -1.2271  0.6130
   68MOL    C7920313   2.213   1.879   2.304  0.5390  0.4780 -0.7474
   68MOL    C8020314   2.076   2.084   2.247 -0.1004 -0.0214  0.2238
   68MOL    O8120315   1.970   2.020   2.275  0.5316 -0.4463  0.0855
   68MOL    O8220316   2.074   2.213   2.206  0.2455  0.1072 -0.1907
   68MOL    C8320317   1.951   2.280   2.186 -0.3495  0.5231 -0.4844
   68MOL    H8420318   2.421   2.071   2.285  0.1097  0.5845 -0.5874
   68MOL    H8520319   2.304   2.212   2.276 -0.1965 -0.8294 -1.1375
   68MOL    H8620320   2.185   1.890   2.409  0.6020  0.1359 -0.6949
   68MOL    H8720321   2.135   1.822   2.253  0.4325 -0.9631  0.9599
   68MOL    H8820322   2.314   1.839   2.301  0.4872  0.0686  1.5959
   68MOL    H8920323   1.962   2.388   2.173  0.9463  0.4848  0.1900
   68MOL    H9020324   1.902   2.265   2.282 -0.6769  0.9130 -0.5889
   68MOL    H9120325   1.891   2.222   2.116  0.7165 -0.8236 -0.3044
   68MOL    C9220326   2.270   2.009   2.096 -0.5337  0.0501  0.3066
   68MOL    C9320327   2.195   1.942   1.975  0.4600 -0.4131 -0.6196
   68MOL    C9420328   2.145   1.803   2.010 -0.4831 -0.2458  0.2673
   68MOL    C9520329   2.082   2.040   1.929 -0.5294  0.5880 -0.8369
   68MOL    O9620330   2.110   2.156   1.901  0.1779  0.5231 -0.6978
   68MOL    O9720331   1.958   1.996   1.928  0.5063  0.8056 -0.5231
   68MOL    C9820332   1.850   2.067   1.868 -0.0502  0.1386 -0.1069
   68MOL    H9920333   2.363   1.952   2.101  0.3101  1.4925  1.2924
   68MOL   H10020334   2.307   2.108   2.069 -1.7987 -0.0262 -1.8859
   68MOL   H10120335   2.049   1.816   2.060 -0.0521 -0.5285  1.1843
   68MOL   H10220336   2.108   1.741   1.929  0.0158  0.0518 -0.1928
   68MOL   H10320337   2.211   1.735   2.064 -1.8021 -0.4856  1.5962
   68MOL   H10420338   1.766   2.068   1.938 -0.2074 -1.7061 -0.2417
   68MOL   H10520339   1.826   2.013   1.777 -0.2508  2.3939 -1.4219
   68MOL   H10620340   1.872   2.170   1.840  0.4745 -0.3171 -1.4224
   68MOL   C10720341   2.305   1.934   1.860 -0.4108  0.6319  0.3030
   68MOL   C10820342   2.268   1.917   1.708  0.0813  0.4946  0.0317
   68MOL   C10920343   2.150   1.822   1.669 -1.2473 -0.3454  0.2456
   68MOL   C11020344   2.237   2.057   1.638  0.6883 -0.6248  0.6930
   68MOL   O11120345   2.323   2.136   1.607 -0.7683  0.7141  0.1486
   68MOL   O11220346   2.109   2.077   1.599 -0.1956 -0.0163 -0.1531
   68MOL   C11320347   2.068   2.200   1.537  0.3015 -0.7214 -0.0109
   68MOL   H11420348   2.369   1.849   1.884  3.5533  2.9283 -1.5797
   68MOL   H11520349   2.378   2.014   1.868  0.0400  0.3036 -0.4518
   68MOL   H11620350   2.164   1.725   1.716  1.8810  0.0224  0.1857
   68MOL   H11720351   2.056   1.864   1.705 -1.8485 -0.5279 -1.0802
   68MOL   H11820352   2.129   1.804   1.563 -0.4944  0.0930  0.0168
   68MOL   H11920353   1.973   2.174   1.491  1.5343 -1.2232 -2.3734
   68MOL   H12020354   2.145   2.255   1.483  0.3129 -0.4433  0.2869
   68MOL   H12120355   2.044   2.267   1.619 -0.7894  0.0631 -0.9635
   68MOL   C12220356   2.392   1.867   1.621 -1.2228  0.5721 -0.0389
   68MOL   C12320357   2.460   1.725   1.623 -0.3021 -0.2821  0.6587
   68MOL   C12420358   2.476   1.664   1.765  0.0383 -0.2272  0.8269
   68MOL   C12520359   2.375   1.619   1.544  0.2617 -0.3814  0.2338
   68MOL   O12620360   2.345   1.507   1.593 -0.2475  0.6844  0.2512
   68MOL   O12720361   2.348   1.656   1.420 -0.0319  0.4716  0.4044
   68MOL   C12820362   2.263   1.583   1.340 -0.5906 -0.0141 -0.1212
   68MOL   H12920363   2.472   1.927   1.663 -0.3956 -0.3858 -0.2408
   68MOL   H13020364   2.384   1.900   1.518 -0.9458  0.6974 -0.0196
   68MOL   H13120365   2.523   1.740   1.828 -1.0007  0.7925  0.3990
   68MOL   H13220366   2.376   1.645   1.803 -1.3172  0.0671 -2.3715
   68MOL   H13320367   2.526   1.567   1.761 -1.3057 -0.9831  1.9627
   68MOL   H13420368   2.284   1.476   1.349 -1.2594 -0.2696 -1.3846
   68MOL   H13520369   2.275   1.599   1.233  0.1710 -0.9709 -0.1865
   68MOL   H13620370   2.160   1.595   1.375  0.2936  2.7546  1.6736
   68MOL   C13720371   2.599   1.743   1.544 -0.1234 -0.5942  0.1915
   68MOL   C13820372   2.715   1.638   1.523  0.1024  1.1025 -0.0924
   68MOL   C13920373   2.818   1.649   1.637 -0.4919  0.5668 -0.2511
   68MOL   C14020374   2.661   1.491   1.518 -0.3692  0.2760 -0.5800
   68MOL   O14120375   2.691   1.412   1.610  0.2224  0.3440  0.4483
   68MOL   O14220376   2.588   1.464   1.410 -0.1931 -0.2342 -0.4258
   68MOL   C14320377   2.543   1.332   1.385  0.4461 -0.5368 -0.2974
   68MOL   H14420378   2.648   1.829   1.590  0.2507 -0.7945  0.1709
   68MOL   H14520379   2.575   1.783   1.445 -0.8834  0.0029  0.6095
   68MOL   H14620380   2.755   1.659   1.725 -0.5343 -0.5677 -0.1538
   68MOL   H14720381   2.891   1.571   1.657 -1.2644  0.2786  1.4995
   68MOL   H14820382   2.880   1.732   1.602 -2.0932  1.2647 -1.5181
   68MOL   H14920383   2.505   1.326   1.283 -0.4416  1.9659 -0.1602
   68MOL   H15020384   2.468   1.298   1.455  0.4312 -0.3528 -0.2244
   68MOL   H15120385   2.632   1.272   1.405  1.6477  0.7366 -1.7131
   68MOL   C15220386   2.779   1.675   1.384  0.2239  0.0520 -0.0547
   68MOL   C15320387   2.908   1.617   1.324 -0.5624 -0.3170 -0.8707
   68MOL   C15420388   2.875   1.654   1.179 -0.8534 -0.6399  0.3340
   68MOL   C15520389   3.033   1.691   1.390  0.0930  0.8248 -0.1721
   68MOL   O15620390   3.096   1.637   1.476  0.2437  0.2643  0.0939
   68MOL   O15720391   3.041   1.820   1.357 -0.4402  0.0459 -0.3504
   68MOL   C15820392   3.138   1.907   1.415 -0.2850 -0.2740  0.8750
   68MOL   H15920393   2.786   1.783   1.374 -0.5870  0.1338  0.2355
   68MOL   H16020394   2.698   1.666   1.311  0.5893  1.1250 -0.5970
   68MOL   H16120395   2.829   1.753   1.173 -2.9937 -1.5651  1.2211
   68MOL   H16220396   2.964   1.682   1.122 -0.1506  0.1421  1.7835
   68MOL   H16320397   2.817   1.587   1.116 -0.2552 -1.1876  0.3613
   68MOL   H16420398   3.236   1.903   1.369 -1.1593  0.0073 -1.0566
   68MOL   H16520399   3.150   1.879   1.520  1.9533 -2.5998  0.0681
   68MOL   H16620400   3.110   2.012   1.422  1.6921  0.3571 -0.2346
   68MOL   C16720401   2.921   1.456   1.331 -0.7631 -0.3806 -0.4706
   68MOL   C16820402   3.023   1.357   1.268 -0.2284 -0.1708 -0.9312
   68MOL   C16920403   3.028   1.378   1.113 -0.0903 -0.2187  0.6202
   68MOL   C17020404   3.169   1.384   1.322 -0.4232  0.1953 -0.4415
   68MOL   O17120405   3.260   1.413   1.242 -0.3056  0.2447 -0.2480
   68MOL   O17220406   3.181   1.356   1.453  0.5577 -0.0988  0.1367
   68MOL   C17320407   3.302   1.380   1.524  0.0590  0.7594  0.1042
   68MOL   H17420408   2.823   1.416   1.307 -2.4919  1.6354  2.8428
   68MOL   H17520409   2.923   1.434   1.438 -2.0971  0.0373 -0.3538
   68MOL   H17620410   2.924   1.381   1.083  0.1134  0.1090 -0.0655
   68MOL   H17720411   3.080   1.465   1.072 -0.1959 -1.1690 -1.5973
   68MOL   H17820412   3.096   1.302   1.072  0.6686 -0.8223  2.9208
   68MOL   H17920413   3.373   1.444   1.471  0.2042  1.6109  1.3073
   68MOL   H18020414   3.340   1.279   1.538  1.3225  0.7974 -2.7430
   68MOL   H18120415   3.283   1.438   1.614  1.6887  1.7520 -0.1659
   68MOL   C18220416   2.973   1.211   1.308  0.6873 -0.4357  0.2522
   68MOL   C18320417   2.961   1.089   1.211 -0.1148  0.0530 -0.1202
   68MOL   C18420418   2.869   1.128   1.094  0.1405  0.4808 -0.0319
   68MOL   C18520419   3.102   1.053   1.162  0.8540  0.0385  0.4356
   68MOL   O18620420   3.116   1.004   1.049  0.0770  0.2095 -0.4820
   68MOL   O18720421   3.203   1.082   1.253 -0.3555 -0.2565  0.2598
   68MOL   C18820422   3.341   1.089   1.208  0.1442 -0.0369 -0.1574
   68MOL   H18920423   2.875   1.211   1.354  0.6824  0.0661  0.2380
   68MOL   H19020424   3.024   1.189   1.402  1.9722  1.6344  0.0633
   68MOL   H19120425   2.816   1.043   1.051  0.4200  1.0305 -1.4785
   68MOL   H19220426   2.795   1.205   1.114 -0.1337  0.7007 -1.8314
   68MOL   H19320427   2.925   1.178   1.016  3.1343 -1.3841  0.8160
   68MOL   H19420428   3.390   0.992   1.209 -2.2288 -1.2986  3.1335
   68MOL   H19520429   3.391   1.155   1.279  1.0643 -1.0590  0.1542
   68MOL   H19620430   3.352   1.126   1.106  0.8320  0.8988  0.2540
   68MOL   C19720431   2.891   0.961   1.292 -0.5939 -0.2612  0.0146
   68MOL   C19820432   2.965   0.856   1.381  0.0487  0.3911  0.5734
   68MOL   C19920433   2.842   0.769   1.429  0.0023 -0.4782 -0.6668
   68MOL   C20020434   3.060   0.760   1.300 -0.7139 -0.0328  0.5162
   68MOL   O20120435   3.179   0.766   1.321 -0.2100  0.4114  0.4637
   68MOL   O20220436   2.997   0.691   1.201  0.2231 -0.3205  0.6677
   68MOL   C20320437   3.069   0.587   1.136  0.5431  0.5062  0.4624
   68MOL   H20420438   2.832   0.905   1.220  0.2259  1.6482 -2.2011
   68MOL   H20520439   2.817   1.008   1.356 -1.3714  0.6774 -1.5468
   68MOL   H20620440   2.790   0.716   1.349  1.9042 -0.5848 -1.8454
   68MOL   H20720441   2.878   0.691   1.496  0.0522 -0.5530 -0.7817
   68MOL   H20820442   2.764   0.822   1.483  0.3559  0.2519 -0.8749
   68MOL   H20920443   3.006   0.500   1.115 -1.0278  1.9199 -0.7802
   68MOL   H21020444   3.155   0.550   1.191 -0.2400 -0.0616  1.3262
   68MOL   H21120445   3.113   0.623   1.043 -2.0831  1.1755 -0.5879
   68MOL   C21220446   3.033   0.922   1.507  0.1592 -0.6322  0.0163
   68MOL   C21320447   3.076   0.863   1.642  0.3425 -0.5473  0.1910
   68MOL   C21420448   3.158   0.732   1.624 -0.6378  0.1879  0.3093
   68MOL   C21520449   3.170   0.973   1.708  0.3252  0.1119 -0.3787
   68MOL   O21620450   3.284   0.942   1.740 -0.0783  0.3071 -0.3318
   68MOL   O21720451   3.110   1.085   1.734  0.2881  0.3986  0.0646
   68MOL   C21820452   3.185   1.192   1.794 -0.5483  0.0531 -0.1563
   68MOL   H21920453   2.981   1.018   1.515  1.5894  0.2964 -1.5045
   68MOL   H22020454   3.128   0.941   1.458 -0.1011  3.4778  0.8764
   68MOL   H22120455   3.188   0.698   1.723  0.9602  0.1789 -0.1764
   68MOL   H22220456   3.110   0.655   1.564 -1.5562  0.3748  0.7927
   68MOL   H22320457   3.251   0.749   1.570 -0.8215  1.0432  0.2546
   68MOL   H22420458   3.287   1.194   1.754 -1.2161 -2.4550 -2.1416
   68MOL   H22520459   3.181   1.171   1.900  0.8430  1.5169  0.2152
   68MOL   H22620460   3.136   1.288   1.780 -0.5178 -0.0081 -0.6951
   68MOL   C22720461   2.944   0.844   1.729  0.3086  0.8423 -0.3092
   68MOL   C22820462   2.930   0.825   1.887 -0.4519  0.2405  0.5642
   68MOL   C22920463   3.045   0.734   1.941  0.7357 -0.2118 -0.4183
   68MOL   C23020464   2.942   0.962   1.957 -0.1206 -0.2744  0.0476
   68MOL   O23120465   3.036   0.984   2.034  0.2261 -0.1806  0.0172
   68MOL   O23220466   2.852   1.058   1.919  0.4294  0.0206 -0.0038
   68MOL   C23320467   2.858   1.192   1.953  0.2461  0.1965  0.3268
   68MOL   H23420468   2.909   0.749   1.689 -2.1653  1.4181  0.4151
   68MOL   H23520469   2.867   0.917   1.703  0.3250  1.0690  0.2762
   68MOL   H23620470   3.037   0.715   2.048  0.2853  1.2644 -0.1858
   68MOL   H23720471   3.054   0.640   1.885 -0.8716 -0.5648 -0.1122
   68MOL   H23820472   3.138   0.786   1.922 -1.4238  3.3659 -1.6059
   68MOL   H23920473   2.900   1.196   2.053 -0.4712  1.8436  0.5698
   68MOL   H24020474   2.760   1.238   1.942 -0.5450 -1.1712  1.4990
   68MOL   H24120475   2.921   1.223   1.869 -2.8913  1.6870 -1.5639
   68MOL   C24220476   2.777   0.771   1.900 -0.2116 -0.3134 -0.0021
   68MOL   C24320477   2.710   0.717   2.031 -0.2747  0.0745  0.4910
   68MOL   C24420478   2.755   0.572   2.045  0.5115  0.1630  0.1103
   68MOL   C24520479   2.756   0.789   2.163  0.6828 -0.1689  0.1392
   68MOL   O24620480   2.833   0.741   2.251 -0.2856 -0.3634  0.6107
   68MOL   O24720481   2.718   0.917   2.157 -0.2913  0.5770 -0.1712
   68MOL   C24820482   2.760   1.003   2.262 -0.6132  0.5276  0.4244
   68MOL   H24920483   2.760   0.686   1.834 -2.4053  0.1297 -0.0454
   68MOL   H25020484   2.712   0.851   1.864 -0.9654 -1.1934 -0.6092
   68MOL   H25120485   2.695   0.506   1.981 -0.3679  0.1304  0.9463
   68MOL   H25220486   2.862   0.554   2.037 -0.0169 -2.9591 -0.9266
   68MOL   H25320487   2.743   0.531   2.146 -1.1989  1.9147  0.6638
   68MOL   H25420488   2.865   1.031   2.263 -0.8577  1.4766  0.2618
   68MOL   H25520489   2.731   0.952   2.354  0.5940 -0.9396 -0.0011
   68MOL   H25620490   2.704   1.096   2.271 -1.0344  0.1992  1.2608
   68MOL   C25720491   2.557   0.719   1.989 -0.5813 -0.6287 -0.0882
   68MOL   C25820492   2.438   0.666   2.083  0.4188  0.7534 -0.1071
   68MOL   C25920493   2.446   0.512   2.069 -0.2573 -0.4937 -0.0516
   68MOL   C26020494   2.460   0.709   2.235 -0.5085 -0.6504 -0.2294
   68MOL   O26120495   2.489   0.627   2.319 -0.5488  0.0380  0.5901
   68MOL   O26220496   2.455   0.843   2.258 -0.1047 -0.5185  0.3154
   68MOL   C26320497   2.432   0.884   2.395  0.3170 -0.5410 -0.3100
   68MOL   H26420498   2.539   0.676   1.890 -2.1044 -0.0820 -0.0557
   68MOL   H26520499   2.529   0.823   1.975 -1.8495 -0.8319  0.9073
   68MOL   H26620500   2.356   0.462   2.104 -1.5016 -0.0036 -2.4698
   68MOL   H26720501   2.451   0.476   1.967  1.4460  2.6659 -1.1483
   68MOL   H26820502   2.533   0.473   2.123 -0.9164 -1.2040  0.5108
   68MOL   H26920503   2.525   0.904   2.447  0.8582 -2.6475 -0.4083
   68MOL   H27020504   2.385   0.810   2.459  2.1213 -1.5806 -0.1488
   68MOL   H27120505   2.364   0.969   2.393 -0.1645 -0.8189  2.7589
   68MOL   C27220506   2.300   0.714   2.026 -0.2088 -0.1058 -0.2266
   68MOL   C27320507   2.160   0.661   2.086  0.6121 -0.2359  0.0710
   68MOL   C27420508   2.065   0.780   2.051  0.0914 -0.4469 -0.8967
   68MOL   C27520509   2.117   0.525   2.011  0.7058 -0.4745  0.4468
   68MOL   O27620510   2.108   0.417   2.069  0.0026 -0.6461 -0.0537
   68MOL   O27720511   2.099   0.543   1.881 -0.0804  0.2720 -0.4646
   68MOL   C27820512   2.036   0.440   1.805 -0.0699  0.5202  0.5053
   68MOL   H27920513   2.303   0.686   1.921 -1.3703 -0.5545 -0.1442
   68MOL   H28020514   2.307   0.823   2.028  1.2643 -0.2040  0.8361
   68MOL   H28120515   2.083   0.830   1.955  0.9810 -0.4675 -0.7454
   68MOL   H28220516   1.966   0.739   2.033  0.0078 -0.3890 -0.5751
   68MOL   H28320517   2.069   0.850   2.134 -0.8687  1.3954 -2.3516
   68MOL   H28420518   2.092   0.348   1.819 -0.3222  0.0683 -1.3263
   68MOL   H28520519   2.029   0.472   1.701  0.3959 -0.7949  0.0573
   68MOL   H28620520   1.932   0.434   1.838 -0.4928  1.9079 -0.4989
   68MOL   C28720521   2.164   0.644   2.240  0.3148  0.2336  0.1294
   68MOL   C28820522   2.021   0.634   2.303  0.5229  0.8949  0.2335
   68MOL   C28920523   2.006   0.521   2.409  0.8477 -0.7319  0.4973
   68MOL   C29020524   1.975   0.761   2.369 -0.4534 -0.2370  0.5231
   68MOL   O29120525   1.880   0.823   2.325  0.1572  0.6877 -0.3854
   68MOL   O29220526   2.040   0.784   2.483 -0.3140  0.1898  0.3337
   68MOL   C29320527   2.012   0.905   2.553 -0.6908  0.2865  0.0265
   68MOL   H29420528   2.223   0.727   2.280  1.4497 -0.7165  0.4494
   68MOL   H29520529   2.220   0.555   2.266  1.3419  1.4966  2.4116
   68MOL   H29620530   2.089   0.517   2.479  0.8840 -0.3336  0.4754
   68MOL   H29720531   1.913   0.539   2.463  1.5567 -0.0781  1.5047
   68MOL   H29820532   1.999   0.425   2.358 -2.2577  0.3606 -1.2750
   68MOL   H29920533   2.001   0.883   2.659  0.8517 -0.2043  0.0843
   68MOL   H30020534   1.914   0.946   2.526 -1.2973  0.2027  2.0331
   68MOL   H30120535   2.104   0.963   2.548  0.3338 -1.5051 -3.0039
   68MOL   H30220536   1.948   0.609   2.226  0.5214  0.4212  0.3851
   69MOL     C120537   1.849   3.488   1.565  0.4129 -0.2545  0.4698
   69MOL     C220538   1.782   3.421   1.685 -0.0573  0.1361 -0.3815
   69MOL     C320539   1.723   3.291   1.638 -0.9371 -0.6631 -0.3544
   69MOL     C420540   1.900   3.390   1.781 -0.2328  0.1891  0.0435
   69MOL     O520541   2.003   3.463   1.785 -0.4389 -0.4097 -0.4566
   69MOL     O620542   1.886   3.274   1.854  0.3142  0.3909 -0.5493
   69MOL     C720543   2.004   3.230   1.924 -0.7957 -0.0671  0.4840
   69MOL     H820544   1.782   3.495   1.479 -0.7137  0.1475  1.3648
   69MOL     H920545   1.881   3.588   1.595  0.1199 -0.7208  2.4426
   69MOL    H1020546   1.781   3.252   1.555 -1.5069 -1.5861 -0.3261
   69MOL    H1120547   1.711   3.217   1.717 -0.9134  1.4513  1.6874
   69MOL    H1220548   1.625   3.315   1.597 -1.0664 -0.8318 -0.1477
   69MOL    H1320549   2.047   3.322   1.965  0.3381  0.4845 -1.8332
   69MOL    H1420550   2.078   3.200   1.850  0.0719  3.7525 -0.3277
   69MOL    H1520551   1.981   3.166   2.009  0.6938  0.7961  1.5585
   69MOL    H1620552   1.936   3.433   1.529  1.5956 -0.1514  3.0394
   69MOL    C1720553   1.672   3.516   1.746  0.5743 -0.0115 -0.1697
   69MOL    C1820554   1.614   3.504   1.892  1.0164  0.0396 -0.3845
   69MOL    C1920555   1.573   3.363   1.912 -0.0788  0.7565 -0.0369
   69MOL    C2020556   1.717   3.531   1.998 -0.0843  0.1757  0.2201
   69MOL    O2120557   1.729   3.459   2.093 -0.0707  0.1549 -0.1826
   69MOL    O2220558   1.785   3.648   1.982 -0.0983  0.0807 -0.0768
   69MOL    C2320559   1.854   3.703   2.092  0.0303  0.0184 -0.4141
   69MOL    H2420560   1.589   3.519   1.675  2.7674  1.7850 -2.7797
   69MOL    H2520561   1.705   3.619   1.729 -1.8381  0.5156 -1.9513
   69MOL    H2620562   1.533   3.319   1.821  0.4741 -1.6677  0.8542
   69MOL    H2720563   1.652   3.295   1.943 -2.9203 -2.2985  0.6890
   69MOL    H2820564   1.494   3.348   1.985 -1.2083  0.6578 -1.2626
   69MOL    H2920565   1.770   3.738   2.151  0.5162  0.6195 -0.0661
   69MOL    H3020566   1.919   3.787   2.068 -1.2175  0.6206 -1.6851
   69MOL    H3120567   1.909   3.624   2.144  0.0088  1.2833  1.5767
   69MOL    C3220568   1.488   3.594   1.903  0.5706 -0.9403 -0.6103
   69MOL    C3320569   1.407   3.638   2.032  0.2516 -0.1640  0.4556
   69MOL    C3420570   1.392   3.541   2.156 -0.3992 -0.4596 -0.4785
   69MOL    C3520571   1.480   3.772   2.095  0.1298 -0.2961  0.0291
   69MOL    O3620572   1.502   3.780   2.217 -0.5314 -0.0510 -0.3973
   69MOL    O3720573   1.513   3.870   2.005 -0.3615 -0.0226  0.1056
   69MOL    C3820574   1.591   3.984   2.054 -0.0995  0.0213 -0.0326
   69MOL    H3920575   1.419   3.551   1.830 -0.1225  0.8009 -0.9992
   69MOL    H4020576   1.519   3.678   1.841 -1.2793 -0.5422 -1.0102
   69MOL    H4120577   1.484   3.507   2.203 -0.4553  1.0172  0.7155
   69MOL    H4220578   1.324   3.595   2.221  3.5063  3.6136  0.4278
   69MOL    H4320579   1.333   3.453   2.129  0.1941 -1.0563  0.1526
   69MOL    H4420580   1.594   4.057   1.973  2.1047 -1.9984 -1.8734
   69MOL    H4520581   1.694   3.967   2.082 -0.4096 -1.8177  0.0664
   69MOL    H4620582   1.551   4.024   2.147 -0.4830 -2.0408  0.7241
   69MOL    C4720583   1.270   3.688   1.988  0.1769  0.1884  0.3370
   69MOL    C4820584   1.135   3.606   1.981 -0.2196  0.2705 -0.4613
   69MOL    C4920585   1.080   3.558   2.122 -0.8980  0.1496 -0.0774
   69MOL    C5020586   1.029   3.697   1.919  0.1439 -0.1413  0.5900
   69MOL    O5120587   0.925   3.725   1.972  0.6184 -0.3543 -0.1060
   69MOL    O5220588   1.064   3.728   1.789  0.0205  0.3183 -0.5693
   69MOL    C5320589   0.974   3.785   1.694  0.3499 -0.4016  0.6633
   69MOL    H5420590   1.281   3.750   1.898  2.0772 -0.8998 -0.1987
   69MOL    H5520591   1.237   3.772   2.051  0.4438  0.0656  0.6405
   69MOL    H5620592   0.972   3.540   2.121 -0.8525 -0.6293 -5.1980
   69MOL    H5720593   1.136   3.476   2.167 -0.9861  1.4126  2.4432
   69MOL    H5820594   1.088   3.631   2.203 -0.6958 -1.7487  1.6667
   69MOL    H5920595   0.950   3.889   1.715  0.0543  0.6198 -4.2694
   69MOL    H6020596   0.877   3.735   1.694  0.0958  0.0654  2.0712
   69MOL    H6120597   1.011   3.793   1.592  0.6784 -0.0579  0.8082
   69MOL    C6220598   1.146   3.482   1.892 -0.2087 -0.4944 -0.4793
   69MOL    C6320599   1.034   3.377   1.849  0.7590  0.4236  0.5707
   69MOL    C6420600   0.910   3.351   1.951 -0.4390  0.4549 -0.4545
   69MOL    C6520601   0.976   3.420   1.712  0.0062 -0.5959 -0.9558
   69MOL    O6620602   1.049   3.450   1.619  0.0140  0.3198 -0.1681
   69MOL    O6720603   0.842   3.405   1.700 -0.2192 -0.5747  0.2529
   69MOL    C6820604   0.773   3.430   1.579 -0.1096 -0.4406  0.6043
   69MOL    H6920605   1.232   3.424   1.925 -0.0036  0.0188 -0.0982
   69MOL    H7020606   1.199   3.516   1.803 -1.6856  0.9963 -0.8156
   69MOL    H7120607   0.856   3.444   1.966  0.5462  0.8180  0.8979
   69MOL    H7220608   0.836   3.275   1.925  2.8419 -3.2829  0.6681
   69MOL    H7320609   0.944   3.319   2.050  1.0174  0.8524 -0.8050
   69MOL    H7420610   0.830   3.408   1.488  2.4923  0.2871  2.0074
   69MOL    H7520611   0.742   3.534   1.575  1.6061  0.1622  2.4106
   69MOL    H7620612   0.677   3.379   1.583 -0.5241 -0.0076 -2.3334
   69MOL    C7720613   1.119   3.243   1.819 -0.2168  0.1507 -0.0127
   69MOL    C7820614   1.056   3.102   1.783 -0.4270  0.0720  0.6972
   69MOL    C7920615   0.980   3.047   1.901 -0.3014  0.0866 -0.3032
   69MOL    C8020616   0.962   3.105   1.655 -0.3390  0.5031  0.0855
   69MOL    O8120617   0.840   3.118   1.672 -0.1082 -0.2022  0.5734
   69MOL    O8220618   1.027   3.103   1.537 -0.3237  0.1803  0.3008
   69MOL    C8320619   0.947   3.122   1.420  0.3251 -0.5367  0.2939
   69MOL    H8420620   1.165   3.224   1.916  0.5787  1.0001 -0.2200
   69MOL    H8520621   1.201   3.265   1.750  2.1371 -0.2003  2.5761
   69MOL    H8620622   0.992   2.938   1.899 -1.6289 -0.0452 -1.0312
   69MOL    H8720623   1.022   3.080   1.996  0.8884 -2.6856  0.1792
   69MOL    H8820624   0.877   3.078   1.914 -0.4828 -0.5716 -0.1161
   69MOL    H8920625   1.006   3.077   1.340 -1.0701 -0.8453 -0.5813
   69MOL    H9020626   0.929   3.224   1.389 -0.8277 -0.7189  0.3322
   69MOL    H9120627   0.856   3.063   1.433  1.5950 -2.6875 -0.3045
   69MOL    C9220628   1.170   2.990   1.745  0.4018 -0.5632  0.2070
   69MOL    C9320629   1.285   2.940   1.839  0.4486  0.1239  0.6458
   69MOL    C9420630   1.383   3.046   1.882 -0.1142  0.2233  0.2512
   69MOL    C9520631   1.224   2.881   1.968  0.6875  0.0523  0.1157
   69MOL    O9620632   1.241   2.937   2.074  0.2642 -0.1338  0.0785
   69MOL    O9720633   1.146   2.773   1.952  0.4846 -0.3030  0.2738
   69MOL    C9820634   1.080   2.704   2.056  0.1457 -0.0446 -0.5983
   69MOL    H9920635   1.224   3.038   1.663 -1.5784  0.7188 -0.3815
   69MOL   H10020636   1.126   2.900   1.703  2.9015 -1.1050 -1.4133
   69MOL   H10120637   1.480   3.014   1.922  0.6758 -0.6546 -2.2732
   69MOL   H10220638   1.411   3.103   1.794  0.2147 -0.0541  0.1740
   69MOL   H10320639   1.340   3.112   1.957 -0.4835  1.1248 -0.7512
   69MOL   H10420640   1.021   2.757   2.130  0.8716 -1.0209  0.6912
   69MOL   H10520641   1.137   2.638   2.121 -2.7864  0.1594  2.2894
   69MOL   H10620642   1.016   2.637   1.998 -0.3862 -0.1006  0.0607
   69MOL   C10720643   1.366   2.828   1.760  0.0943 -0.3170  0.1302
   69MOL   C10820644   1.472   2.846   1.635 -0.4062 -1.3512 -0.3930
   69MOL   C10920645   1.419   2.949   1.530 -0.0655  0.1331 -0.4959
   69MOL   C11020646   1.609   2.910   1.684  0.2406 -0.1334 -0.3983
   69MOL   O11120647   1.676   2.976   1.603 -0.0180  0.5270  0.2937
   69MOL   O11220648   1.652   2.867   1.800  0.2060  0.3754  0.3206
   69MOL   C11320649   1.784   2.881   1.847  0.1920 -0.7110  0.5474
   69MOL   H11420650   1.286   2.759   1.732  0.6298 -1.2685  0.9042
   69MOL   H11520651   1.418   2.768   1.835 -1.0989 -0.7385  0.6392
   69MOL   H11620652   1.484   2.952   1.442  1.5639  0.6845  0.6897
   69MOL   H11720653   1.328   2.911   1.486 -0.0483  1.7028 -1.9298
   69MOL   H11820654   1.404   3.049   1.570  0.3113 -0.8355  2.1837
   69MOL   H11920655   1.839   2.952   1.786  0.6193 -0.1794  1.5317
   69MOL   H12020656   1.840   2.789   1.830  1.0722 -0.1927  0.6216
   69MOL   H12120657   1.776   2.916   1.950 -0.0486 -2.7762  1.2677
   69MOL   C12220658   1.490   2.710   1.565  0.1434 -0.4813 -0.2149
   69MOL   C12320659   1.586   2.598   1.597 -0.8166 -0.1310 -0.0449
   69MOL   C12420660   1.739   2.636   1.574  0.7595  0.5479  0.3981
   69MOL   C12520661   1.587   2.539   1.743 -0.2487  0.3521  0.0147
   69MOL   O12620662   1.479   2.523   1.796  0.4015  0.0861 -0.1780
   69MOL   O12720663   1.702   2.484   1.790 -0.3920  0.2377  0.5732
   69MOL   C12820664   1.697   2.420   1.920 -0.1538  0.1074  0.2546
   69MOL   H12920665   1.518   2.729   1.461 -2.1029 -0.6902 -0.8663
   69MOL   H13020666   1.390   2.670   1.558 -1.0557  2.3188  0.0186
   69MOL   H13120667   1.796   2.544   1.559  0.1758  0.0240  1.3933
   69MOL   H13220668   1.750   2.710   1.494 -3.8775  0.9829  0.0592
   69MOL   H13320669   1.781   2.681   1.664  0.7011  1.5424 -0.0545
   69MOL   H13420670   1.793   2.378   1.948  0.3740  1.9702  1.3182
   69MOL   H13520671   1.628   2.336   1.931 -1.1431  0.7169 -1.0243
   69MOL   H13620672   1.669   2.495   1.994 -0.7322 -0.9596  1.1288
   69MOL   C13720673   1.547   2.472   1.515  0.0289  0.1874 -0.3447
   69MOL   C13820674   1.543   2.457   1.364  0.0857  0.4877 -0.2301
   69MOL   C13920675   1.407   2.516   1.306 -0.9161  0.5083 -0.4742
   69MOL   C14020676   1.663   2.529   1.298  0.0825 -0.3778 -0.1383
   69MOL   O14120677   1.649   2.638   1.246 -0.1018  0.2226  0.3262
   69MOL   O14220678   1.786   2.468   1.304  0.3590 -0.2586 -1.2967
   69MOL   C14320679   1.909   2.535   1.262  0.0034  0.1242  0.7898
   69MOL   H14420680   1.445   2.456   1.550 -0.5299 -0.2037 -2.1343
   69MOL   H14520681   1.611   2.397   1.560 -1.3984 -1.9913 -1.8558
   69MOL   H14620682   1.398   2.523   1.197  0.5731  1.7348 -0.5383
   69MOL   H14720683   1.317   2.468   1.344 -2.3049  2.2402 -1.4674
   69MOL   H14820684   1.393   2.619   1.337  2.6690  1.0019 -0.2560
   69MOL   H14920685   1.891   2.641   1.241 -0.6012  0.1719  1.5311
   69MOL   H15020686   1.944   2.480   1.175 -1.6663 -0.4633  0.4801
   69MOL   H15120687   1.993   2.524   1.330  0.6317  3.4104  0.6383
   69MOL   C15220688   1.557   2.292   1.345 -0.0600 -0.7925 -0.6641
   69MOL   C15320689   1.528   2.204   1.221  0.5933 -1.2169  0.2113
   69MOL   C15420690   1.379   2.234   1.177  0.2315  0.1937  0.2987
   69MOL   C15520691   1.608   2.261   1.099 -0.1193  0.1850 -0.4351
   69MOL   O15620692   1.696   2.193   1.042  0.4381  0.1165  0.1832
   69MOL   O15720693   1.587   2.387   1.059 -0.1150  0.6780 -0.2225
   69MOL   C15820694   1.670   2.453   0.965  0.4366 -0.6202  0.0954
   69MOL   H15920695   1.491   2.251   1.421 -0.5137 -1.0703 -1.2077
   69MOL   H16020696   1.665   2.282   1.357  0.0407  2.1850  1.4669
   69MOL   H16120697   1.365   2.325   1.119 -0.2071 -0.9405 -1.3979
   69MOL   H16220698   1.326   2.147   1.140  3.0066 -2.6611  2.7398
   69MOL   H16320699   1.320   2.255   1.266 -0.3484 -2.7320  0.6569
   69MOL   H16420700   1.677   2.410   0.866  2.4700  0.1782 -0.1287
   69MOL   H16520701   1.763   2.467   1.020 -1.0155  1.2725  2.1723
   69MOL   H16620702   1.634   2.554   0.944 -1.0699 -1.5440 -1.9585
   69MOL   C16720703   1.548   2.049   1.250 -0.3776 -0.5467 -0.0529
   69MOL   C16820704   1.671   1.989   1.339  0.0569 -0.6265  0.4355
   69MOL   C16920705   1.800   2.037   1.277  0.3901 -0.1073  0.2429
   69MOL   C17020706   1.658   2.031   1.489 -0.3362 -0.6380 -0.6355
   69MOL   O17120707   1.753   2.081   1.551 -0.5838 -0.1359  0.5546
   69MOL   O17220708   1.538   2.028   1.546 -0.3860  0.0013 -0.1534
   69MOL   C17320709   1.523   2.078   1.678 -0.0436 -0.4254 -0.1424
   69MOL   H17420710   1.557   2.001   1.153 -1.9690 -1.3174  0.1629
   69MOL   H17520711   1.458   2.003   1.292 -0.5934 -0.4835 -0.4475
   69MOL   H17620712   1.812   2.144   1.264 -1.8953  0.2271  0.7104
   69MOL   H17720713   1.877   2.001   1.345 -1.3422  0.1682  2.4073
   69MOL   H17820714   1.821   1.997   1.178  1.9437 -0.4319  0.6925
   69MOL   H17920715   1.545   2.004   1.755  0.1645  2.1186  2.3253
   69MOL   H18020716   1.419   2.109   1.685 -0.4516 -2.0865  1.8252
   69MOL   H18120717   1.575   2.172   1.699 -0.4823 -0.3210  0.4975
   69MOL   C18220718   1.662   1.835   1.331 -0.6214  0.5378  0.6134
   69MOL   C18320719   1.766   1.729   1.376  0.9663  0.2470 -0.1463
   69MOL   C18420720   1.833   1.775   1.508 -0.0653  0.1530  0.0821
   69MOL   C18520721   1.690   1.596   1.402  0.3270 -0.7579 -0.4812
   69MOL   O18620722   1.572   1.575   1.378 -0.0401 -0.4085  0.5803
   69MOL   O18720723   1.772   1.507   1.449 -0.0021 -0.0827  1.0122
   69MOL   C18820724   1.717   1.392   1.508  0.2196 -0.0189  0.1148
   69MOL   H18920725   1.665   1.824   1.223  0.7552  1.2129  0.5753
   69MOL   H19020726   1.564   1.799   1.361 -0.5568 -3.4500 -3.4164
   69MOL   H19120727   1.758   1.806   1.580 -2.2145  0.4504 -2.2010
   69MOL   H19220728   1.888   1.695   1.559  2.9856  2.8114  1.1137
   69MOL   H19320729   1.899   1.861   1.502  1.2428 -0.8806 -0.7067
   69MOL   H19420730   1.656   1.345   1.431  1.6654 -0.4816 -0.7500
   69MOL   H19520731   1.642   1.409   1.585  1.4029 -0.7750  1.4614
   69MOL   H19620732   1.792   1.318   1.533  1.4763  1.1513 -0.1151
   69MOL   C19720733   1.885   1.707   1.271  0.4486  0.3984 -0.4880
   69MOL   C19820734   1.890   1.626   1.134 -0.3842 -0.0750 -0.4120
   69MOL   C19920735   2.034   1.659   1.077  0.1529 -0.2762 -0.2489
   69MOL   C20020736   1.873   1.469   1.149  0.1578 -0.3754 -1.0142
   69MOL   O20120737   1.966   1.387   1.157 -0.5572  0.3026 -0.1318
   69MOL   O20220738   1.743   1.430   1.144 -0.1300 -0.0530 -0.3792
   69MOL   C20320739   1.710   1.301   1.170 -0.4141  0.6062 -0.3620
   69MOL   H20420740   1.963   1.673   1.338  0.1655  1.0917  0.2051
   69MOL   H20520741   1.915   1.810   1.249 -1.1729  0.7432 -1.2423
   69MOL   H20620742   2.083   1.580   1.021  0.4823  0.7193 -1.3758
   69MOL   H20720743   2.029   1.743   1.008  1.9919  0.8746  0.9492
   69MOL   H20820744   2.093   1.689   1.164 -0.8811  1.2254 -0.0457
   69MOL   H20920745   1.748   1.274   1.268  1.9658  1.3596 -1.0249
   69MOL   H21020746   1.750   1.232   1.096 -0.4414 -1.2537  1.3245
   69MOL   H21120747   1.602   1.286   1.162  0.0232 -2.0150 -1.9852
   69MOL   C21220748   1.777   1.690   1.039 -0.7990 -0.1596 -0.2038
   69MOL   C21320749   1.742   1.655   0.885 -0.2790  0.3415  0.2515
   69MOL   C21420750   1.874   1.628   0.807  0.1289  0.0937 -0.3218
   69MOL   C21520751   1.653   1.535   0.881  0.3725  0.2239 -1.2767
   69MOL   O21620752   1.694   1.425   0.835  0.3782 -0.1739  0.2268
   69MOL   O21720753   1.536   1.556   0.953  0.2356 -0.3299  0.1030
   69MOL   C21820754   1.456   1.442   0.981  0.5509  0.1761 -0.4176
   69MOL   H21920755   1.792   1.798   1.035  1.4327 -0.4814 -1.1187
   69MOL   H22020756   1.683   1.674   1.092  0.9298  0.0825  3.0444
   69MOL   H22120757   1.850   1.600   0.705  1.8457  0.0625 -0.7340
   69MOL   H22220758   1.935   1.718   0.798 -3.5635  2.6084 -1.3170
   69MOL   H22320759   1.929   1.544   0.847  1.3814  0.8100 -0.5234
   69MOL   H22420760   1.491   1.343   0.952  1.7382  0.8939 -1.5052
   69MOL   H22520761   1.356   1.454   0.941  0.2358 -0.4815  0.1679
   69MOL   H22620762   1.444   1.437   1.090 -1.1410  1.4399 -0.5339
   69MOL   C22720763   1.668   1.781   0.818  0.2634  0.4684  0.1332
   69MOL   C22820764   1.634   1.807   0.664 -0.4185  0.4805 -0.0632
   69MOL   C22920765   1.560   1.687   0.605 -0.1819  0.4918 -0.2277
   69MOL   C23020766   1.533   1.923   0.658  0.0917 -0.0461 -0.1028
   69MOL   O23120767   1.429   1.921   0.587  0.5339  0.2154 -0.4447
   69MOL   O23220768   1.568   2.026   0.741  0.2762 -0.2813 -0.1583
   69MOL   C23320769   1.475   2.129   0.770  0.5182 -0.7167 -0.6439
   69MOL   H23420770   1.728   1.867   0.845  0.7578  0.0869  0.2515
   69MOL   H23520771   1.572   1.790   0.869 -1.0950  1.3468 -2.4829
   69MOL   H23620772   1.507   1.695   0.510  1.0987 -0.0220 -0.9874
   69MOL   H23720773   1.622   1.598   0.599 -0.8293  0.0518 -0.5425
   69MOL   H23820774   1.481   1.657   0.675 -2.9047  2.3847 -2.3840
   69MOL   H23920775   1.514   2.222   0.813 -2.9576  0.7177 -0.4473
   69MOL   H24020776   1.396   2.100   0.839  0.5494 -1.0919 -0.7663
   69MOL   H24120777   1.433   2.165   0.676  0.8488  0.8816 -0.1962
   69MOL   C24220778   1.772   1.832   0.577 -0.0139 -0.3257 -0.1728
   69MOL   C24320779   1.779   1.922   0.442  0.2038 -0.7157 -0.1752
   69MOL   C24420780   1.657   1.879   0.356  0.2776 -0.0944  0.8298
   69MOL   C24520781   1.777   2.078   0.469 -0.7399 -0.4332  0.3886
   69MOL   O24620782   1.786   2.126   0.588 -0.0799 -0.4685 -0.2168
   69MOL   O24720783   1.770   2.148   0.363  0.1800 -0.2084 -1.0217
   69MOL   C24820784   1.789   2.289   0.362  0.4256  0.5759 -0.1936
   69MOL   H24920785   1.813   1.735   0.550  0.4365  0.0103 -0.7398
   69MOL   H25020786   1.841   1.886   0.642 -1.0300  1.4151 -0.5086
   69MOL   H25120787   1.577   1.949   0.378  0.5164 -0.3211  2.4414
   69MOL   H25220788   1.673   1.895   0.249 -0.2336 -1.8526  0.4803
   69MOL   H25320789   1.621   1.778   0.378  1.1705 -0.7127 -0.4638
   69MOL   H25420790   1.708   2.350   0.403  0.5089  0.6279 -0.1061
   69MOL   H25520791   1.793   2.313   0.255  0.7174 -0.8332 -0.5036
   69MOL   H25620792   1.889   2.304   0.403  1.2237  1.3572 -2.3460
   69MOL   C25720793   1.914   1.898   0.352  0.7472  0.2189 -0.6112
   69MOL   C25820794   2.068   1.919   0.397 -0.3065  0.2481 -0.3078
   69MOL   C25920795   2.101   2.067   0.419  0.1775  0.1889 -0.0541
   69MOL   C26020796   2.103   1.832   0.522  0.5021  0.1252  0.0669
   69MOL   O26120797   2.063   1.716   0.532  0.3086 -0.3647 -0.3926
   69MOL   O26220798   2.168   1.897   0.623  0.5020 -0.5710  0.2608
   69MOL   C26320799   2.221   1.832   0.734 -0.5025  0.0505 -0.3420
   69MOL   H26420800   1.900   1.953   0.259 -2.3484 -1.0897 -1.0058
   69MOL   H26520801   1.913   1.792   0.325 -1.0731 -0.3694  1.6607
   69MOL   H26620802   2.062   2.130   0.339 -1.4592 -2.5721 -1.4701
   69MOL   H26720803   2.063   2.094   0.518  2.5291  2.1953  0.3889
   69MOL   H26820804   2.205   2.092   0.441  0.5734 -3.2676  2.4225
   69MOL   H26920805   2.310   1.886   0.767  0.3557 -1.3845 -0.2526
   69MOL   H27020806   2.261   1.734   0.708 -1.2702  0.0365 -1.4781
   69MOL   H27120807   2.145   1.815   0.810 -1.0380  0.9440 -0.6746
   69MOL   C27220808   2.169   1.868   0.286  0.2369 -0.5530  0.1053
   69MOL   C27320809   2.154   1.753   0.180  0.2548 -0.3282  0.1146
   69MOL   C27420810   2.294   1.728   0.127 -0.8991  0.4211 -0.4784
   69MOL   C27520811   2.107   1.613   0.234  0.1516 -0.4615 -0.4696
   69MOL   O27620812   2.189   1.533   0.280 -0.2700  0.3738  0.1447
   69MOL   O27720813   1.979   1.592   0.227  0.2616  0.0385 -0.3251
   69MOL   C27820814   1.925   1.491   0.312 -0.3579  0.3706 -1.0071
   69MOL   H27920815   2.266   1.859   0.335 -0.0226  1.2660  0.9834
   69MOL   H28020816   2.186   1.959   0.227 -1.6251 -1.1712 -1.4500
   69MOL   H28120817   2.309   1.650   0.051 -0.1377 -1.4447  1.5210
   69MOL   H28220818   2.331   1.816   0.075  1.4872 -0.9158 -1.1440
   69MOL   H28320819   2.363   1.717   0.211 -0.9037  2.8502 -0.1382
   69MOL   H28420820   1.817   1.486   0.302 -0.5500  0.3561  0.8026
   69MOL   H28520821   1.941   1.514   0.418 -0.0785  0.5032 -1.0765
   69MOL   H28620822   1.976   1.397   0.290 -1.7715 -0.6742  0.0930
   69MOL   C28720823   2.060   1.797   0.067 -0.1496  1.2991 -0.6450
   69MOL   C28820824   2.100   1.910   7.843 -0.1171  0.6809 -0.0033
   69MOL   C28920825   2.058   1.859   7.705 -0.4148  0.1550 -0.3027
   69MOL   C29020826   2.038   2.046   7.870  0.3927 -0.4238 -0.0718
   69MOL   O29120827   1.926   2.079   7.823 -0.1639  0.1773 -0.3368
   69MOL   O29220828   2.121   2.137   0.056  0.6750 -0.2823  0.1753
   69MOL   C29320829   2.090   2.276   0.065  0.3823 -0.1198  0.0199
   69MOL   H29420830   1.957   1.805   0.103 -0.1728  0.5079 -0.5226
   69MOL   H29520831   2.055   1.711   0.000  1.8850 -0.5159  1.4509
   69MOL   H29620832   2.072   1.937   7.630  1.5025  0.0915 -0.0188
   69MOL   H29720833   2.129   1.784   7.672 -0.5163  0.4055 -1.1190
   69MOL   H29820834   1.960   1.811   7.712 -0.7397  0.8884  0.3454
   69MOL   H29920835   2.092   2.321   7.844 -0.7750  1.5667  0.7321
   69MOL   H30020836   2.168   2.315   0.131 -0.0937  2.2479 -0.7947
   69MOL   H30120837   1.997   2.292   0.119 -0.4668 -4.1254 -0.0771
   69MOL   H30220838   2.207   1.928   7.834 -0.5718  2.2890 -2.6598
   70MOL     C120839   2.348   2.149   3.427 -0.0668  0.5247 -0.1603
   70MOL     C220840   2.359   2.301   3.450 -0.3873 -0.1398  0.2132
   70MOL     C320841   2.389   2.375   3.321  0.0004  0.3544  0.3774
   70MOL     C420842   2.217   2.349   3.492  0.0318 -0.3967  0.1499
   70MOL     O520843   2.182   2.388   3.603 -0.0377  0.4065 -0.6269
   70MOL     O620844   2.124   2.335   3.398 -0.8614  0.3409  0.6160
   70MOL     C720845   1.983   2.346   3.423  0.9393  0.1877 -0.1303
   70MOL     H820846   2.276   2.121   3.350  0.7489  0.5143 -0.9291
   70MOL     H920847   2.441   2.095   3.408 -0.1675  0.1285  0.4339
   70MOL    H1020848   2.327   2.341   3.239 -0.7870  2.2167  0.1639
   70MOL    H1120849   2.400   2.484   3.314  0.0412  0.4254  1.3931
   70MOL    H1220850   2.492   2.344   3.303  0.3518  1.6159  0.1180
   70MOL    H1320851   1.945   2.273   3.495  0.7032  0.5252  0.0863
   70MOL    H1420852   1.926   2.332   3.331 -0.9849 -1.6667  1.2811
   70MOL    H1520853   1.945   2.438   3.468  0.6030  0.9327 -1.9139
   70MOL    H1620854   2.310   2.098   3.516  1.0762 -3.0648 -1.6065
   70MOL    C1720855   2.457   2.333   3.571  0.1205 -0.3888  0.2297
   70MOL    C1820856   2.617   2.336   3.555  0.4325 -0.7227  0.1316
   70MOL    C1920857   2.664   2.205   3.492 -0.7117 -0.1148 -0.1361
   70MOL    C2020858   2.660   2.462   3.478 -0.6349  0.4570  0.2455
   70MOL    O2120859   2.750   2.468   3.392  0.5746  0.8275  0.3356
   70MOL    O2220860   2.594   2.575   3.522 -0.6395  0.2094  0.3097
   70MOL    C2320861   2.633   2.695   3.459  0.4611 -0.0094  0.2258
   70MOL    H2420862   2.419   2.267   3.649  1.9920 -0.7396  0.8745
   70MOL    H2520863   2.432   2.431   3.612 -0.4438 -0.2483 -0.4376
   70MOL    H2620864   2.652   2.123   3.563 -0.2201 -0.5957 -0.6103
   70MOL    H2720865   2.622   2.188   3.393  0.0705  1.5009 -0.7599
   70MOL    H2820866   2.771   2.208   3.476 -0.2139  2.1518  3.0539
   70MOL    H2920867   2.554   2.761   3.494 -0.6755 -0.6863 -0.9834
   70MOL    H3020868   2.627   2.688   3.350  0.9048 -0.1256  0.2065
   70MOL    H3120869   2.731   2.723   3.496 -0.1804 -0.0461  1.9826
   70MOL    C3220870   2.657   2.361   3.707 -0.0155  0.3956 -0.1308
   70MOL    C3320871   2.808   2.379   3.761  0.3836  0.3112  0.4136
   70MOL    C3420872   2.906   2.280   3.698  0.8224 -0.3641  0.8988
   70MOL    C3520873   2.862   2.524   3.733 -0.5443  0.5856 -0.6951
   70MOL    O3620874   2.798   2.629   3.728 -0.1000  0.1544  0.2951
   70MOL    O3720875   2.997   2.527   3.698 -0.5582 -0.1755  0.4144
   70MOL    C3820876   3.059   2.636   3.633 -0.4182  0.1598  0.1016
   70MOL    H3920877   2.618   2.273   3.759  0.0848  0.5837  0.2588
   70MOL    H4020878   2.597   2.447   3.735 -0.3043 -0.3765  1.6712
   70MOL    H4120879   2.873   2.177   3.696 -0.9937  0.2317 -0.4984
   70MOL    H4220880   2.933   2.309   3.596  1.2475  0.6316  1.2812
   70MOL    H4320881   2.993   2.267   3.764  0.5798  2.0888  1.7778
   70MOL    H4420882   3.168   2.637   3.633 -0.3376 -2.8020  2.7344
   70MOL    H4520883   3.032   2.730   3.681 -1.3699 -0.3492  0.5659
   70MOL    H4620884   3.019   2.640   3.532  1.5383  1.6375 -0.6555
   70MOL    C4720885   2.815   2.346   3.908  0.1806 -0.0570  0.1459
   70MOL    C4820886   2.735   2.416   4.021 -0.1769  0.2731  0.4725
   70MOL    C4920887   2.784   2.559   4.042 -0.2489 -0.3386 -0.1570
   70MOL    C5020888   2.584   2.409   3.998  0.5074 -0.7096 -0.2458
   70MOL    O5120889   2.532   2.305   3.970 -0.2669  0.4045  0.2332
   70MOL    O5220890   2.513   2.523   4.020 -0.3595 -0.3961 -0.6271
   70MOL    C5320891   2.371   2.529   4.002 -0.5449  0.0305  0.7170
   70MOL    H5420892   2.918   2.331   3.940 -0.5299 -0.3765  2.4313
   70MOL    H5520893   2.772   2.246   3.911 -1.2308  0.5689  2.0441
   70MOL    H5620894   2.890   2.549   4.069 -1.2864  1.2898  5.1880
   70MOL    H5720895   2.776   2.625   3.956 -2.3372  2.0622  1.7927
   70MOL    H5820896   2.744   2.620   4.123 -0.7614 -0.9196  0.0250
   70MOL    H5920897   2.331   2.619   4.050  3.3395  2.5490 -0.4685
   70MOL    H6020898   2.321   2.446   4.052 -3.1593  0.8692 -0.4421
   70MOL    H6120899   2.335   2.507   3.902  0.0980 -1.3062  0.7629
   70MOL    C6220900   2.756   2.332   4.151  0.6773  0.1212  0.2586
   70MOL    C6320901   2.682   2.339   4.293 -0.3924  0.3675 -0.0862
   70MOL    C6420902   2.719   2.485   4.349 -0.1676 -0.8252  0.2991
   70MOL    C6520903   2.525   2.328   4.291  0.3786  0.0957  0.5303
   70MOL    O6620904   2.445   2.412   4.329 -0.7989  0.0519  0.1781
   70MOL    O6720905   2.482   2.212   4.239 -0.4346  0.2266 -0.3165
   70MOL    C6820906   2.342   2.183   4.231 -0.6413 -0.4051 -0.2141
   70MOL    H6920907   2.864   2.336   4.166  1.0470 -0.6878 -1.9682
   70MOL    H7020908   2.735   2.231   4.116  0.8222  1.1678 -3.0077
   70MOL    H7120909   2.709   2.505   4.456  1.1562  1.3169  0.0398
   70MOL    H7220910   2.821   2.514   4.327 -0.8395  0.4957 -1.1388
   70MOL    H7320911   2.651   2.557   4.304  0.2483 -1.8567 -2.0704
   70MOL    H7420912   2.296   2.255   4.164 -0.2917  1.7021  1.7319
   70MOL    H7520913   2.295   2.192   4.329 -0.9741  1.3631 -0.5236
   70MOL    H7620914   2.331   2.082   4.191  1.1879 -0.9889  0.6826
   70MOL    C7720915   2.754   2.217   4.372 -0.9394 -0.5897  0.1044
   70MOL    C7820916   2.697   2.172   4.513  0.2365  0.8461 -0.8684
   70MOL    C7920917   2.668   2.291   4.610 -0.2053  0.5310  0.5573
   70MOL    C8020918   2.575   2.080   4.489  0.2484  0.0113  0.4798
   70MOL    O8120919   2.462   2.118   4.521  0.3327  0.2263 -0.1636
   70MOL    O8220920   2.608   1.967   4.422  0.4349 -0.4424 -0.6013
   70MOL    C8320921   2.504   1.875   4.390 -0.3991 -0.0771 -0.0331
   70MOL    H8420922   2.861   2.236   4.384 -1.1168 -0.6314  1.9611
   70MOL    H8520923   2.756   2.133   4.303  0.9093 -0.6230  0.1778
   70MOL    H8620924   2.609   2.264   4.697 -0.3598  2.1813  0.9914
   70MOL    H8720925   2.766   2.338   4.623  0.2561 -0.4066  0.4730
   70MOL    H8820926   2.600   2.361   4.562  1.7132  0.5378 -2.2966
   70MOL    H8920927   2.452   1.913   4.303  1.5545 -0.1457 -1.2580
   70MOL    H9020928   2.443   1.869   4.480  1.1354  0.4758  1.0670
   70MOL    H9120929   2.542   1.773   4.385  0.1049 -0.1429  3.6924
   70MOL    C9220930   2.802   2.079   4.590  0.3078  0.3622  0.2582
   70MOL    C9320931   2.799   2.031   4.742  0.3471 -0.8786 -0.0136
   70MOL    C9420932   2.831   2.144   4.846  0.3383 -1.1427 -0.2399
   70MOL    C9520933   2.668   1.963   4.782  0.0930 -0.3074  0.9400
   70MOL    O9620934   2.632   1.860   4.723 -0.4568  0.0109 -0.1815
   70MOL    O9720935   2.587   2.036   4.863  0.0597  0.1726  0.4117
   70MOL    C9820936   2.447   2.010   4.886 -0.5897 -0.3907  0.5978
   70MOL    H9920937   2.893   2.137   4.574  0.0448  0.3157 -1.5007
   70MOL   H10020938   2.819   1.995   4.523  1.6560 -1.6862  3.0742
   70MOL   H10120939   2.931   2.183   4.823  0.0257  0.6498  1.3538
   70MOL   H10220940   2.762   2.228   4.841  3.0074  1.2097  0.9976
   70MOL   H10320941   2.826   2.120   4.952 -0.3992 -0.6357 -0.1538
   70MOL   H10420942   2.386   1.992   4.798 -1.6880 -0.9746  1.4714
   70MOL   H10520943   2.391   2.084   4.941 -1.8066 -1.1429  0.3775
   70MOL   H10620944   2.446   1.915   4.939 -0.9714 -0.4595  0.4666
   70MOL   C10720945   2.929   1.930   4.749  0.2778  0.6200  0.2476
   70MOL   C10820946   2.968   1.825   4.856 -0.0445 -0.4940 -0.4013
   70MOL   C10920947   3.118   1.814   4.860 -0.9404 -0.5154 -0.5856
   70MOL   C11020948   2.927   1.880   4.998  0.0556 -0.7260  0.5248
   70MOL   O11120949   2.998   1.957   5.062 -0.6249 -0.6727 -0.3577
   70MOL   O11220950   2.798   1.841   5.034  0.3018 -0.5509  0.4212
   70MOL   C11320951   2.746   1.866   5.170 -0.1056 -0.9916  0.4126
   70MOL   H11420952   3.021   1.979   4.717  0.2488  0.7010  0.2875
   70MOL   H11520953   2.904   1.867   4.664 -0.5760 -1.8028  2.2262
   70MOL   H11620954   3.169   1.907   4.884 -3.1987  0.4284  0.6846
   70MOL   H11720955   3.145   1.740   4.935 -0.4695  1.0392  0.8068
   70MOL   H11820956   3.168   1.780   4.769  0.6515  0.3734 -0.0731
   70MOL   H11920957   2.650   1.816   5.175  0.1366 -1.5161 -0.2247
   70MOL   H12020958   2.740   1.973   5.189 -2.8729 -1.0458  0.0555
   70MOL   H12120959   2.812   1.839   5.253 -0.8903 -0.8767  1.0834
   70MOL   C12220960   2.893   1.687   4.835  0.6571  0.2896 -0.1569
   70MOL   C12320961   2.941   1.573   4.742 -0.2326 -0.2386 -0.0493
   70MOL   C12420962   2.969   1.628   4.600  1.0067  0.4095 -0.4928
   70MOL   C12520963   3.066   1.498   4.792 -0.0493 -0.3249 -0.1264
   70MOL   O12620964   3.166   1.476   4.722 -0.6063  0.9600 -0.3919
   70MOL   O12720965   3.055   1.470   4.923 -0.5850  0.9704 -0.0269
   70MOL   C12820966   3.161   1.404   4.997 -0.5819 -0.7422  0.8379
   70MOL   H12920967   2.787   1.706   4.819  1.1221  0.6032 -3.2925
   70MOL   H13020968   2.891   1.645   4.935 -1.5709  0.8680  0.0646
   70MOL   H13120969   2.984   1.547   4.527 -3.7427  0.3913 -1.5904
   70MOL   H13220970   2.880   1.687   4.578  0.8926 -0.3473 -2.1841
   70MOL   H13320971   3.049   1.703   4.598  1.6489 -0.2115  1.0584
   70MOL   H13420972   3.191   1.308   4.955 -2.8214 -1.1750  0.1566
   70MOL   H13520973   3.138   1.379   5.101  1.7703 -0.9931  1.3116
   70MOL   H13620974   3.248   1.469   4.997 -0.8874 -0.3181  1.5644
   70MOL   C13720975   2.814   1.485   4.727  0.1166 -0.0679  0.0901
   70MOL   C13820976   2.811   1.332   4.690  0.2762  0.1130  0.4661
   70MOL   C13920977   2.899   1.312   4.560 -0.2753  0.2132 -0.4942
   70MOL   C14020978   2.866   1.240   4.799  0.5226  0.1592 -0.2007
   70MOL   O14120979   2.859   1.279   4.923 -0.1138 -0.0094  0.4510
   70MOL   O14220980   2.914   1.128   4.756  0.1041  0.9490  0.1748
   70MOL   C14320981   2.948   1.024   4.846 -0.1161 -0.0479 -0.2774
   70MOL   H14420982   2.747   1.528   4.653 -1.7856  0.7212  2.2145
   70MOL   H14520983   2.754   1.497   4.817  0.0668  2.3010 -0.2323
   70MOL   H14620984   2.868   1.378   4.479  1.0043  2.0209  0.4329
   70MOL   H14720985   3.006   1.324   4.579 -0.5764 -0.7879  2.0532
   70MOL   H14820986   2.899   1.213   4.515 -1.4070 -0.5619  1.1820
   70MOL   H14920987   2.986   0.945   4.781  2.0400  0.6263  0.1248
   70MOL   H15020988   2.871   0.993   4.916  2.1047  1.7390  3.1501
   70MOL   H15120989   3.028   1.055   4.913 -0.8664 -0.8693  1.0083
   70MOL   C15220990   2.667   1.290   4.642 -0.1298  0.6843 -0.3127
   70MOL   C15320991   2.538   1.268   4.730 -0.5427  0.3577  0.5618
   70MOL   C15420992   2.562   1.134   4.808 -0.2675  0.0067 -0.2957
   70MOL   C15520993   2.524   1.384   4.828 -0.6964 -0.0398 -0.4172
   70MOL   O15620994   2.555   1.367   4.947  0.3073 -0.2091  0.2457
   70MOL   O15720995   2.480   1.498   4.771 -0.3958 -0.1698 -0.4265
   70MOL   C15820996   2.446   1.604   4.855 -0.0348 -0.2261 -0.7567
   70MOL   H15920997   2.680   1.190   4.600  2.1316  0.7394  0.1985
   70MOL   H16020998   2.650   1.349   4.552  0.4442  1.0849 -0.1592
   70MOL   H16120999   2.579   1.051   4.740 -2.0480 -0.7590  0.1628
   70MOL   H16221000   2.636   1.137   4.888 -0.0483 -1.4583 -0.4205
   70MOL   H16321001   2.471   1.099   4.856  1.4445 -2.2636  1.4302
   70MOL   H16421002   2.371   1.667   4.807 -0.1624 -1.2719 -1.9746
   70MOL   H16521003   2.521   1.680   4.875  0.1689 -1.4536  3.6422
   70MOL   H16621004   2.405   1.580   4.953 -1.5686  1.5203 -0.9328
   70MOL   C16721005   2.414   1.253   4.628  0.4978 -0.3035  0.5539
   70MOL   C16821006   2.275   1.191   4.666 -0.2916  0.0962  0.2116
   70MOL   C16921007   2.278   1.038   4.645 -0.2982  0.4632  0.0947
   70MOL   C17021008   2.229   1.229   4.812 -0.4565  0.7643  0.1074
   70MOL   O17121009   2.210   1.145   4.906  0.0120 -0.1110 -0.2605
   70MOL   O17221010   2.219   1.360   4.831 -0.1815  0.3290  0.3187
   70MOL   C17321011   2.171   1.397   4.961 -0.3075 -0.1029  0.0451
   70MOL   H17421012   2.453   1.191   4.547  1.9343 -1.2459  1.9455
   70MOL   H17521013   2.413   1.338   4.559  2.1206 -1.1499 -0.5446
   70MOL   H17621014   2.305   1.015   4.542  1.8216  0.4318  0.6403
   70MOL   H17721015   2.342   0.994   4.721 -0.7090  1.8680  1.2824
   70MOL   H17821016   2.180   0.990   4.651 -0.2540  0.5930  1.9344
   70MOL   H17921017   2.068   1.365   4.971 -0.5728  0.3797 -1.0243
   70MOL   H18021018   2.181   1.505   4.973  0.2389 -0.1423 -0.0019
   70MOL   H18121019   2.238   1.335   5.021  0.6293  0.6118 -0.2431
   70MOL   C18221020   2.167   1.244   4.562  0.0307  0.1306  0.4459
   70MOL   C18321021   2.005   1.255   4.591  0.4751  0.0567  0.3364
   70MOL   C18421022   1.956   1.136   4.673 -0.1412  1.1235 -0.4109
   70MOL   C18521023   1.968   1.397   4.660 -0.0767 -0.4235  0.2726
   70MOL   O18621024   1.909   1.399   4.765 -0.5813 -0.4252 -0.1958
   70MOL   O18721025   2.007   1.504   4.578 -0.4521 -0.8107 -0.4249
   70MOL   C18821026   1.966   1.633   4.609  0.6594 -0.0761  0.6229
   70MOL   H18921027   2.194   1.200   4.466  1.7062 -0.5706  1.2095
   70MOL   H19021028   2.205   1.345   4.542 -1.9346  0.4084 -1.9874
   70MOL   H19121029   2.001   1.117   4.770 -2.2416 -0.7803  0.2621
   70MOL   H19221030   1.852   1.158   4.701 -0.9188  1.6434 -3.5026
   70MOL   H19321031   1.955   1.040   4.622 -0.6582  1.3037 -0.7439
   70MOL   H19421032   1.871   1.654   4.560 -0.4904 -3.0836  1.5107
   70MOL   H19521033   2.034   1.699   4.555 -1.1342  0.2739 -1.2593
   70MOL   H19621034   1.972   1.657   4.715 -1.0639 -0.2980  0.7781
   70MOL   C19721035   1.933   1.245   4.452  0.2566 -0.2887  0.2000
   70MOL   C19821036   1.777   1.239   4.426  0.0422  1.2827  0.1874
   70MOL   C19921037   1.727   1.095   4.440  0.2310  0.0908  0.1063
   70MOL   C20021038   1.690   1.316   4.527  0.8992  0.2169  0.1100
   70MOL   O20121039   1.627   1.256   4.609  0.8329 -0.1312  0.3935
   70MOL   O20221040   1.687   1.450   4.518 -1.2827 -0.1665  0.3085
   70MOL   C20321041   1.603   1.529   4.603  0.7998  0.0086  0.5446
   70MOL   H20421042   1.979   1.157   4.406  0.4731 -0.9197  1.6046
   70MOL   H20521043   1.979   1.326   4.394 -0.5540  0.0139 -0.0256
   70MOL   H20621044   1.794   1.018   4.402 -1.0288 -1.4610  0.8951
   70MOL   H20721045   1.717   1.061   4.544  2.2798  0.2918  0.3916
   70MOL   H20821046   1.629   1.088   4.393  1.8004  0.6420 -3.3477
   70MOL   H20921047   1.497   1.505   4.598  0.6106  0.7886  0.6896
   70MOL   H21021048   1.608   1.635   4.576 -2.4338  0.0626  0.0016
   70MOL   H21121049   1.634   1.519   4.707  4.1882 -2.5851 -0.5905
   70MOL   C21221050   1.730   1.290   4.282  0.2961  0.5838 -0.2036
   70MOL   C21321051   1.765   1.208   4.151 -0.5074 -0.1416  0.8055
   70MOL   C21421052   1.733   1.320   4.047 -0.0569  0.1216 -0.6619
   70MOL   C21521053   1.921   1.175   4.141  0.0902 -0.4253  0.0299
   70MOL   O21621054   1.964   1.061   4.159  0.3038  0.4057  0.2773
   70MOL   O21721055   1.997   1.280   4.123  0.2931  0.4282 -0.1778
   70MOL   C21821056   2.139   1.275   4.109 -0.1346  0.2749  0.5952
   70MOL   H21921057   1.772   1.390   4.272  0.0780  0.7970  0.8716
   70MOL   H22021058   1.624   1.315   4.287  0.1089 -0.4831  1.4718
   70MOL   H22121059   1.799   1.407   4.042 -0.6020  0.7771  2.4109
   70MOL   H22221060   1.750   1.282   3.946 -1.8035  2.4532 -1.8678
   70MOL   H22321061   1.629   1.350   4.050  0.5032  2.0191  1.9539
   70MOL   H22421062   2.165   1.232   4.012 -0.5818  2.5149 -0.5418
   70MOL   H22521063   2.190   1.210   4.181  1.8352  0.8298 -0.2837
   70MOL   H22621064   2.186   1.372   4.116  4.1594 -1.4167 -2.5757
   70MOL   C22721065   1.675   1.081   4.133 -0.9702 -0.3027  0.1062
   70MOL   C22821066   1.638   1.011   3.991  0.5148  0.7518  0.3276
   70MOL   C22921067   1.516   1.086   3.929  1.3469 -0.1290 -0.0279
   70MOL   C23021068   1.744   1.013   3.877  0.1071 -0.0508  0.0866
   70MOL   O23121069   1.736   1.084   3.774  0.4022  0.4912 -0.0646
   70MOL   O23221070   1.849   0.938   3.906  0.2336 -0.8291  0.3757
   70MOL   C23321071   1.948   0.929   3.803 -0.3701  0.3228  0.3057
   70MOL   H23421072   1.575   1.100   4.173 -1.4806 -2.4782 -0.1008
   70MOL   H23521073   1.710   1.006   4.204 -1.4752  0.9504  1.7000
   70MOL   H23621074   1.434   1.089   4.000  1.7652  2.4620  0.4166
   70MOL   H23721075   1.542   1.190   3.910 -0.7113  1.0381  3.2235
   70MOL   H23821076   1.488   1.051   3.829  0.9064  0.0504  0.0318
   70MOL   H23921077   2.041   0.875   3.821  0.9542  2.1403 -0.9122
   70MOL   H24021078   1.982   1.031   3.782 -2.0308  0.5693 -1.2534
   70MOL   H24121079   1.905   0.872   3.721  1.1084 -2.3142  1.3026
   70MOL   C24221080   1.593   0.865   4.017  0.4762  0.5445 -0.2467
   70MOL   C24321081   1.505   0.764   3.927  0.1061 -0.0734 -0.4045
   70MOL   C24421082   1.509   0.630   4.012 -0.2908 -0.3220 -0.6507
   70MOL   C24521083   1.359   0.813   3.909  0.3123 -0.5728 -0.3960
   70MOL   O24621084   1.317   0.867   3.808  0.0170  0.8138  0.2875
   70MOL   O24721085   1.288   0.790   4.025  0.8610 -0.2475 -0.1839
   70MOL   C24821086   1.152   0.831   4.022  0.3379 -0.4727 -0.5085
   70MOL   H24921087   1.529   0.870   4.105  1.5406  1.5959  0.4855
   70MOL   H25021088   1.678   0.811   4.058 -1.2832 -1.8351  0.3875
   70MOL   H25121089   1.497   0.638   4.120 -0.4853  1.0516 -0.7641
   70MOL   H25221090   1.438   0.555   3.979 -1.2933  0.5294 -0.4546
   70MOL   H25321091   1.606   0.580   4.005 -0.0472 -0.3599  2.3586
   70MOL   H25421092   1.121   0.847   4.125 -0.5076 -0.3827 -0.7778
   70MOL   H25521093   1.086   0.753   3.983 -1.8644  1.6082 -1.0402
   70MOL   H25621094   1.138   0.922   3.963  1.8668 -0.2925 -0.6111
   70MOL   C25721095   1.559   0.745   3.781 -0.1609  0.1594  0.7586
   70MOL   C25821096   1.528   0.630   3.680 -0.2685 -0.3381  0.2960
   70MOL   C25921097   1.584   0.691   3.547 -0.3143  0.0993  0.7382
   70MOL   C26021098   1.592   0.499   3.728  0.1074 -0.0024 -1.0967
   70MOL   O26121099   1.520   0.424   3.790 -0.2388 -0.0119  0.6894
   70MOL   O26221100   1.727   0.489   3.706 -0.2541  0.5382  0.1620
   70MOL   C26321101   1.785   0.362   3.732 -0.2555 -0.1384  0.2843
   70MOL   H26421102   1.667   0.739   3.796 -0.0962  0.7283  0.4948
   70MOL   H26521103   1.555   0.835   3.720  0.3627 -0.9227 -0.9246
   70MOL   H26621104   1.644   0.614   3.499  1.5919  0.7266  2.0486
   70MOL   H26721105   1.509   0.732   3.481 -0.5172 -1.6924 -0.1764
   70MOL   H26821106   1.664   0.764   3.557  0.6355 -0.7620 -0.4019
   70MOL   H26921107   1.894   0.356   3.744 -0.0821  1.1141 -0.5326
   70MOL   H27021108   1.757   0.308   3.642 -1.2170  0.1443  0.4128
   70MOL   H27121109   1.742   0.321   3.823  2.5072 -0.9921  1.2519
   70MOL   C27221110   1.372   0.609   3.653 -0.5040  0.1499 -0.2628
   70MOL   C27321111   1.310   0.498   3.562  0.1926 -0.0807 -0.5902
   70MOL   C27421112   1.214   0.574   3.469 -0.2303 -0.2316  0.6340
   70MOL   C27521113   1.415   0.408   3.480 -0.3203  0.4104 -0.6064
   70MOL   O27621114   1.434   0.289   3.510 -0.2516  0.0544 -0.4981
   70MOL   O27721115   1.471   0.467   3.378 -0.1770 -0.1357 -0.3419
   70MOL   C27821116   1.572   0.399   3.301  0.1462 -0.4120  0.4764
   70MOL   H27921117   1.343   0.702   3.605 -1.3915 -1.2909 -2.6058
   70MOL   H28021118   1.318   0.615   3.748  0.5020 -2.0725  0.4955
   70MOL   H28121119   1.124   0.604   3.522 -0.6530  0.4957 -0.5033
   70MOL   H28221120   1.255   0.657   3.413  0.0570 -0.1758  0.9221
   70MOL   H28321121   1.167   0.508   3.396 -1.7395 -2.0875  3.1562
   70MOL   H28421122   1.672   0.407   3.343  0.5571 -0.6662 -0.4300
   70MOL   H28521123   1.581   0.444   3.202  0.2201 -1.0515  0.1828
   70MOL   H28621124   1.548   0.296   3.273  1.1348 -1.7328  4.2297
   70MOL   C28721125   1.227   0.403   3.654  0.4756 -0.2037 -0.0445
   70MOL   C28821126   1.132   0.294   3.587 -0.4477 -0.7467 -0.8253
   70MOL   C28921127   1.100   0.183   3.685  0.2205 -0.1386  0.1339
   70MOL   C29021128   0.999   0.353   3.534  0.7401 -0.5104 -0.3340
   70MOL   O29121129   0.982   0.368   3.411  0.1293 -0.2731 -0.1336
   70MOL   O29221130   0.916   0.389   3.627 -0.0473 -0.2786  0.3845
   70MOL   C29321131   0.789   0.439   3.592 -0.1831  0.1446 -0.3292
   70MOL   H29421132   1.160   0.450   3.725 -0.9172 -0.6531 -1.0375
   70MOL   H29521133   1.296   0.355   3.723  2.1672 -0.1535 -1.6567
   70MOL   H29621134   1.181   0.113   3.702  0.4201  0.3304  1.1607
   70MOL   H29721135   1.063   0.225   3.778  3.2504 -0.4935  1.5339
   70MOL   H29821136   1.021   0.122   3.641 -0.6314  1.1706 -0.1917
   70MOL   H29921137   0.749   0.493   3.677 -2.1160  0.3934 -1.3594
   70MOL   H30021138   0.708   0.371   3.566 -0.6502  1.4507 -2.3583
   70MOL   H30121139   0.797   0.501   3.503  0.1438  0.4225 -0.1093
   70MOL   H30221140   1.176   0.243   3.501 -0.8557 -2.2391 -0.1509
   71MOL     C121141   6.509   2.204   5.317  0.3765  0.3324 -0.2915
   71MOL     C221142   6.478   2.225   5.169  0.5221  0.9339  0.6186
   71MOL     C321143   6.459   2.377   5.136 -0.3660 -0.2664  0.3689
   71MOL     C421144   6.597   2.177   5.079  0.2292 -0.3303 -0.7320
   71MOL     O521145   6.701   2.129   5.122 -0.2903  0.0124 -0.5411
   71MOL     O621146   6.567   2.178   4.951 -0.5093  0.0291 -0.0750
   71MOL     C721147   6.662   2.115   4.864  0.3408 -0.1394 -0.8602
   71MOL     H821148   6.593   2.262   5.355  1.0764 -2.7527  3.2370
   71MOL     H921149   6.425   2.235   5.380 -1.4202 -1.9019 -1.5118
   71MOL    H1021150   6.478   2.440   5.223  0.3864  0.0483 -0.0218
   71MOL    H1121151   6.520   2.415   5.055 -2.1497 -1.0517 -1.3697
   71MOL    H1221152   6.357   2.388   5.100 -0.4373  0.8326  0.8928
   71MOL    H1321153   6.639   2.118   4.758  1.4674  0.4071 -1.0970
   71MOL    H1421154   6.680   2.010   4.888  0.8877 -0.1205 -1.1669
   71MOL    H1521155   6.755   2.173   4.862 -0.2265  0.8721  0.9497
   71MOL    H1621156   6.535   2.099   5.330  0.8246  0.6247  1.2551
   71MOL    C1721157   6.348   2.159   5.126  0.4196  0.3320  0.1469
   71MOL    C1821158   6.308   2.008   5.158 -0.1358  0.0403 -0.0199
   71MOL    C1921159   6.430   1.912   5.130 -0.6030  0.1449 -0.1614
   71MOL    C2021160   6.264   2.000   5.303 -0.7158  0.1470  0.0698
   71MOL    O2121161   6.210   2.096   5.352 -0.2868  0.6420  0.0460
   71MOL    O2221162   6.283   1.875   5.363  0.2281  0.7643  0.0347
   71MOL    C2321163   6.213   1.848   5.489 -0.0307  0.6085 -0.9264
   71MOL    H2421164   6.332   2.170   5.019 -1.8635 -3.1306  0.0503
   71MOL    H2521165   6.267   2.213   5.176  0.8975 -0.6736  2.0506
   71MOL    H2621166   6.460   1.908   5.025  0.8762 -1.4541  0.2983
   71MOL    H2721167   6.509   1.928   5.204 -1.2161 -2.3155  1.0436
   71MOL    H2821168   6.403   1.810   5.154 -0.4816 -0.3469 -2.0124
   71MOL    H2921169   6.250   1.903   5.575 -0.0098  0.5260 -0.8833
   71MOL    H3021170   6.233   1.746   5.521  1.1950  1.4921  1.1989
   71MOL    H3121171   6.104   1.854   5.490 -0.1729 -1.8967  1.0185
   71MOL    C3221172   6.197   1.938   5.062 -0.7019  0.2524 -0.0069
   71MOL    C3321173   6.047   1.977   5.030  0.0585 -0.6923 -0.0786
   71MOL    C3421174   5.966   1.933   5.164  0.7872 -0.6354 -0.4087
   71MOL    C3521175   6.038   2.135   5.016 -0.1682  0.4569  0.1920
   71MOL    O3621176   5.960   2.205   5.095  0.4705 -0.0218  0.3366
   71MOL    O3721177   6.099   2.186   4.909 -0.0247  0.0286  0.3825
   71MOL    C3821178   6.104   2.331   4.891 -0.3402  0.5555 -0.2571
   71MOL    H3921179   6.195   1.834   5.094  0.8124  0.2007 -0.0347
   71MOL    H4021180   6.238   1.941   4.961  0.9895  2.3741  0.7009
   71MOL    H4121181   5.974   1.831   5.203  1.7706 -0.4085  0.0010
   71MOL    H4221182   6.002   1.993   5.247 -0.6946 -0.5564  0.2111
   71MOL    H4321183   5.862   1.966   5.160  0.9972 -0.0615 -1.0566
   71MOL    H4421184   6.068   2.388   4.976 -1.8580 -0.0733 -0.4743
   71MOL    H4521185   6.041   2.366   4.809  0.5651 -0.0099 -1.2128
   71MOL    H4621186   6.208   2.363   4.878  0.3180 -1.6190 -0.6022
   71MOL    C4721187   6.005   1.918   4.894 -0.1822 -1.0481  0.8137
   71MOL    C4821188   5.947   1.777   4.874 -0.4359  0.1762 -0.2381
   71MOL    C4921189   6.052   1.677   4.925  0.1094  0.7465  0.3009
   71MOL    C5021190   5.812   1.761   4.945  0.8211  0.6215  0.3499
   71MOL    O5121191   5.736   1.849   4.980 -0.1274  0.8107 -0.7478
   71MOL    O5221192   5.780   1.625   4.953 -0.5819 -0.0032 -0.5623
   71MOL    C5321193   5.658   1.588   5.017 -0.2198  0.0516 -0.6198
   71MOL    H5421194   6.079   1.926   4.814 -1.9478 -2.1803 -0.9826
   71MOL    H5521195   5.926   1.984   4.859  0.6188 -1.0939 -1.1374
   71MOL    H5621196   6.056   1.576   4.884 -0.4646  1.1799 -0.8305
   71MOL    H5721197   6.153   1.717   4.914  1.3947 -1.8019  2.0803
   71MOL    H5821198   6.043   1.660   5.032 -2.5035  0.0551 -0.0054
   71MOL    H5921199   5.574   1.632   4.965 -2.2741 -0.7685  1.9124
   71MOL    H6021200   5.639   1.619   5.119  1.5322  0.9578 -0.5476
   71MOL    H6121201   5.643   1.480   5.027  0.1103 -0.0794 -1.4662
   71MOL    C6221202   5.938   1.734   4.716  1.0552 -0.4460 -0.3609
   71MOL    C6321203   5.857   1.817   4.606  0.0516  0.3004  0.7479
   71MOL    C6421204   5.708   1.837   4.649  0.1956 -0.1475 -0.4200
   71MOL    C6521205   5.927   1.957   4.586  0.7282  0.2234  0.4396
   71MOL    O6621206   6.051   1.968   4.569  0.2191  0.1379 -0.2552
   71MOL    O6721207   5.844   2.066   4.584 -0.3782  0.5030 -0.4877
   71MOL    C6821208   5.901   2.195   4.557 -0.0605 -0.0963  0.3972
   71MOL    H6921209   5.899   1.632   4.710 -2.5531  0.8765 -0.4650
   71MOL    H7021210   6.043   1.722   4.687  0.8654  0.8160 -1.6197
   71MOL    H7121211   5.644   1.903   4.589  0.0249  2.8188  2.8107
   71MOL    H7221212   5.668   1.736   4.657  2.2569 -0.8618  1.1142
   71MOL    H7321213   5.694   1.889   4.744  1.7487  1.5560 -1.0965
   71MOL    H7421214   5.996   2.204   4.609  0.3605 -2.1732  0.0585
   71MOL    H7521215   5.832   2.274   4.586  0.5306  0.5310  0.1114
   71MOL    H7621216   5.927   2.205   4.451 -0.3198 -0.6082  0.2812
   71MOL    C7721217   5.872   1.729   4.468  0.0419  0.2268 -0.2828
   71MOL    C7821218   5.754   1.721   4.364  0.0391  0.0640 -0.0169
   71MOL    C7921219   5.633   1.642   4.431 -0.4701 -0.1556  0.2928
   71MOL    C8021220   5.709   1.863   4.308 -0.1795  0.6870  0.2121
   71MOL    O8121221   5.598   1.913   4.338 -0.0147 -0.6239 -0.3877
   71MOL    O8221222   5.807   1.920   4.253  0.0396 -0.4042 -0.4914
   71MOL    C8321223   5.778   2.040   4.190  0.1459 -0.0434 -0.2378
   71MOL    H8421224   5.902   1.629   4.499  0.4950  0.7647  1.0738
   71MOL    H8521225   5.960   1.762   4.413 -1.0810  0.6945 -1.8322
   71MOL    H8621226   5.555   1.710   4.465 -0.5903 -0.2367  0.1841
   71MOL    H8721227   5.584   1.578   4.357 -0.2130 -1.1758  0.9978
   71MOL    H8821228   5.663   1.578   4.514  1.7651  2.0525  1.2372
   71MOL    H8921229   5.682   2.032   4.139  0.7865  0.6918 -1.5694
   71MOL    H9021230   5.853   2.050   4.112  0.1467  0.4617 -0.1788
   71MOL    H9121231   5.780   2.134   4.246  1.4100  0.7482 -1.5922
   71MOL    C9221232   5.816   1.638   4.242  0.4240 -0.2463 -0.0586
   71MOL    C9321233   5.735   1.567   4.123  0.2206  0.0237 -1.2817
   71MOL    C9421234   5.718   1.425   4.175 -1.2260  0.8705 -0.3123
   71MOL    C9521235   5.600   1.632   4.086 -1.2020 -0.4180  0.5415
   71MOL    O9621236   5.493   1.577   4.089 -0.2383 -1.0594  0.3245
   71MOL    O9721237   5.619   1.750   4.023  0.9726  0.3998  0.2893
   71MOL    C9821238   5.509   1.833   3.986  0.1320 -0.7267  0.4949
   71MOL    H9921239   5.878   1.563   4.291  0.1684 -1.2051 -1.1637
   71MOL   H10021240   5.891   1.702   4.196 -0.1854 -0.5150 -1.4545
   71MOL   H10121241   5.654   1.367   4.109  1.3988 -3.1566  0.5142
   71MOL   H10221242   5.812   1.370   4.176 -3.1273 -2.4774 -0.4367
   71MOL   H10321243   5.681   1.426   4.277 -0.2580 -0.7847  0.0682
   71MOL   H10421244   5.451   1.799   3.901  2.3379 -3.4681 -0.0096
   71MOL   H10521245   5.544   1.935   3.971  1.5116 -1.2128  0.3452
   71MOL   H10621246   5.439   1.845   4.069 -1.4481  0.1052 -0.9472
   71MOL   C10721247   5.841   1.581   3.999 -0.6120 -0.2168  0.9145
   71MOL   C10821248   5.822   1.513   3.849  0.8367 -0.2730 -0.2241
   71MOL   C10921249   5.674   1.526   3.801  0.1058  0.3017  0.6764
   71MOL   C11021250   5.916   1.605   3.761  1.2781  0.4610  0.2341
   71MOL   O11121251   5.875   1.666   3.665  0.8859  0.7076  0.1535
   71MOL   O11221252   6.045   1.589   3.791  0.0632  0.1788 -0.5570
   71MOL   C11321253   6.143   1.669   3.731 -0.1134 -0.2497  0.2045
   71MOL   H11421254   5.939   1.544   4.028 -0.5663 -0.3757  0.5550
   71MOL   H11521255   5.849   1.688   3.978  1.5055 -0.2304  1.5488
   71MOL   H11621256   5.605   1.455   3.845 -1.0904  0.4585 -0.8707
   71MOL   H11721257   5.618   1.617   3.820 -0.9422 -0.3987  0.9479
   71MOL   H11821258   5.668   1.515   3.692 -0.4573  0.0604  0.7315
   71MOL   H11921259   6.124   1.762   3.784  1.1584 -0.9668  1.9605
   71MOL   H12021260   6.138   1.680   3.622  0.2464  0.5319  0.2653
   71MOL   H12121261   6.240   1.634   3.766  0.7231  1.8729  0.0625
   71MOL   C12221262   5.860   1.359   3.846  0.3769  0.4351 -0.4850
   71MOL   C12321263   5.852   1.254   3.729 -0.1725 -0.1167 -0.0820
   71MOL   C12421264   5.958   1.303   3.618 -0.1749  0.0847 -0.0473
   71MOL   C12521265   5.910   1.121   3.787 -0.5382  0.4825 -0.3055
   71MOL   O12621266   6.004   1.058   3.737 -0.0741  0.1009  0.0764
   71MOL   O12721267   5.845   1.082   3.899  0.1471 -0.5081  0.0375
   71MOL   C12821268   5.866   0.953   3.953 -0.3063 -0.0494 -0.3042
   71MOL   H12921269   5.793   1.328   3.927 -0.5963  1.1347 -1.0103
   71MOL   H13021270   5.963   1.353   3.880 -0.6032  0.0407  2.6071
   71MOL   H13121271   5.954   1.240   3.529 -0.1953  2.6822 -1.9718
   71MOL   H13221272   5.938   1.406   3.585 -0.8383  0.2411  0.8250
   71MOL   H13321273   6.064   1.310   3.641 -0.1272  0.3485 -0.3326
   71MOL   H13421274   5.824   0.963   4.053  0.1971  1.3326 -0.2165
   71MOL   H13521275   5.972   0.932   3.943 -0.0421  1.7731 -1.7150
   71MOL   H13621276   5.806   0.873   3.910 -0.4634 -1.0566  1.7258
   71MOL   C13721277   5.715   1.236   3.664  0.3744 -0.2384  0.7660
   71MOL   C13821278   5.657   1.104   3.604 -0.0988  0.6116 -0.9448
   71MOL   C13921279   5.743   1.034   3.494  0.1439 -0.3744  0.4836
   71MOL   C14021280   5.618   0.999   3.714 -0.2446 -0.0506  1.2776
   71MOL   O14121281   5.671   0.889   3.721 -0.3382  0.0024 -0.1623
   71MOL   O14221282   5.540   1.051   3.809  0.0674 -0.4011  0.3643
   71MOL   C14321283   5.523   0.984   3.937  0.8406  0.0756 -0.1155
   71MOL   H14421284   5.712   1.317   3.591 -1.6164 -0.1361  0.9360
   71MOL   H14521285   5.650   1.268   3.745  0.6927  0.8822  0.5839
   71MOL   H14621286   5.837   1.015   3.545 -0.1649 -2.4540  0.3381
   71MOL   H14721287   5.718   0.935   3.454  0.0513 -0.3116  0.3855
   71MOL   H14821288   5.756   1.109   3.416 -2.0525  0.5867  0.9868
   71MOL   H14921289   5.516   0.876   3.928 -2.2633  0.2570 -0.4538
   71MOL   H15021290   5.431   0.999   3.994  0.4386 -0.4785 -0.6127
   71MOL   H15121291   5.603   1.020   4.003  0.7743  0.1973 -0.1021
   71MOL   C15221292   5.529   1.160   3.527 -0.1836 -0.0953 -0.2426
   71MOL   C15321293   5.402   1.077   3.473 -0.0451 -0.2069 -0.4594
   71MOL   C15421294   5.458   0.939   3.408  0.0387 -0.3055  0.4611
   71MOL   C15521295   5.296   1.042   3.580 -0.3246 -0.3585 -0.2707
   71MOL   O15621296   5.291   1.098   3.692  0.6768 -0.2462 -0.1932
   71MOL   O15721297   5.203   0.958   3.540 -0.5683  0.0130  0.1165
   71MOL   C15821298   5.082   0.933   3.612  0.7319 -0.2825 -0.7328
   71MOL   H15921299   5.555   1.236   3.454 -0.2337  0.2376  0.0843
   71MOL   H16021300   5.487   1.220   3.608 -2.1225  0.8114 -1.8588
   71MOL   H16121301   5.382   0.874   3.367 -2.6188  3.6733 -1.2589
   71MOL   H16221302   5.520   0.975   3.325 -1.3755  1.3321  0.0781
   71MOL   H16321303   5.512   0.878   3.481 -1.9012  0.8340  2.9427
   71MOL   H16421304   5.011   0.892   3.540  1.6782  1.7207 -2.8765
   71MOL   H16521305   5.061   1.025   3.668  0.0286 -1.8174  1.6294
   71MOL   H16621306   5.090   0.862   3.694  1.5025 -0.4489 -0.9471
   71MOL   C16721307   5.331   1.152   3.352 -0.4722 -0.7988  0.0896
   71MOL   C16821308   5.231   1.273   3.362 -0.3230 -0.7259  0.2735
   71MOL   C16921309   5.088   1.224   3.395  0.4860  0.6836 -0.1006
   71MOL   C17021310   5.267   1.373   3.474  0.2009  0.0081 -0.0508
   71MOL   O17121311   5.184   1.397   3.562 -0.2547 -0.4637 -0.0992
   71MOL   O17221312   5.391   1.426   3.457 -0.5557 -0.2828  0.3579
   71MOL   C17321313   5.418   1.530   3.549 -0.2964  0.6018 -0.3178
   71MOL   H17421314   5.282   1.076   3.292 -0.7235 -1.4730  1.1330
   71MOL   H17521315   5.410   1.182   3.283  0.5437 -1.8486  0.7893
   71MOL   H17621316   5.070   1.119   3.371  2.4269  0.0196  1.2238
   71MOL   H17721317   5.077   1.205   3.502 -1.3088  0.4174 -0.3204
   71MOL   H17821318   5.009   1.291   3.362  0.9205  0.8985 -0.7159
   71MOL   H17921319   5.386   1.504   3.649 -0.7014 -0.1413 -0.6413
   71MOL   H18021320   5.352   1.617   3.540 -1.9102 -0.1825  3.2704
   71MOL   H18121321   5.524   1.557   3.539  0.0315 -0.7791 -0.6142
   71MOL   C18221322   5.219   1.338   3.210  0.7982 -0.8618  0.2854
   71MOL   C18321323   5.182   1.489   3.191 -1.2737 -0.2139 -0.1609
   71MOL   C18421324   5.053   1.534   3.255 -0.0062  0.0752 -0.1743
   71MOL   C18521325   5.296   1.594   3.237 -0.5058  0.1920  0.1973
   71MOL   O18621326   5.273   1.701   3.286  0.1402 -0.3166  0.1061
   71MOL   O18721327   5.417   1.547   3.213  0.3596 -0.1448  0.7502
   71MOL   C18821328   5.522   1.624   3.229  0.2206 -0.2678  0.1348
   71MOL   H18921329   5.145   1.279   3.155 -1.2123  0.7039  1.2218
   71MOL   H19021330   5.318   1.314   3.173  1.3573 -0.9500  1.7876
   71MOL   H19121331   5.070   1.532   3.363  0.1650  0.2902 -0.1965
   71MOL   H19221332   5.028   1.632   3.215 -3.8311 -1.0195 -0.5948
   71MOL   H19321333   4.975   1.464   3.226  1.6370 -1.5617 -0.7382
   71MOL   H19421334   5.543   1.645   3.334  2.4827 -1.2772 -0.0662
   71MOL   H19521335   5.506   1.714   3.169 -0.5594 -0.7098 -0.3240
   71MOL   H19621336   5.598   1.569   3.172  0.6335 -0.7027  1.0970
   71MOL   C19721337   5.154   1.506   3.037  0.2489 -0.3855 -0.3670
   71MOL   C19821338   5.261   1.513   2.918  0.5321  0.2197 -0.1990
   71MOL   C19921339   5.175   1.520   2.784  0.4611  0.1038  0.6177
   71MOL   C20021340   5.344   1.644   2.921 -0.7562  0.5289 -0.2519
   71MOL   O20121341   5.467   1.643   2.901 -0.0420  0.1407  0.3235
   71MOL   O20221342   5.271   1.752   2.937  0.1623 -0.1393  0.1381
   71MOL   C20321343   5.336   1.879   2.957 -0.1572 -0.3283 -0.6203
   71MOL   H20421344   5.093   1.594   3.020 -1.3407 -1.1085  1.4464
   71MOL   H20521345   5.084   1.429   3.005  0.5661 -0.2295 -1.4737
   71MOL   H20621346   5.115   1.430   2.774  0.7722 -0.1022  0.5990
   71MOL   H20721347   5.095   1.594   2.790 -2.3818 -2.8829  0.9724
   71MOL   H20821348   5.232   1.526   2.691 -0.2458  2.7830  0.3201
   71MOL   H20921349   5.406   1.896   2.876  0.1200 -0.5555 -0.4306
   71MOL   H21021350   5.398   1.879   3.047 -0.6802 -0.5883 -0.2491
   71MOL   H21121351   5.253   1.949   2.966  1.4390  1.6261 -0.9800
   71MOL   C21221352   5.349   1.377   2.934 -0.1756 -0.3855  1.0642
   71MOL   C21321353   5.434   1.302   2.821 -1.5309  0.7348  0.8484
   71MOL   C21421354   5.342   1.237   2.710 -0.2094  0.5028  0.0440
   71MOL   C21521355   5.534   1.403   2.762 -0.1676  0.2827 -0.9284
   71MOL   O21621356   5.515   1.457   2.655 -0.0222 -1.2130  0.1243
   71MOL   O21721357   5.630   1.437   2.843 -0.0960  0.2456 -0.5700
   71MOL   C21821358   5.745   1.501   2.791 -0.1320 -0.6674  0.1704
   71MOL   H21921359   5.275   1.303   2.965 -1.1211 -0.1952 -0.6998
   71MOL   H22021360   5.420   1.383   3.017 -0.0081 -0.8871  0.9596
   71MOL   H22121361   5.258   1.184   2.755 -0.3882  0.7685  0.0237
   71MOL   H22221362   5.309   1.324   2.652  0.1337  0.4958 -0.1644
   71MOL   H22321363   5.402   1.194   2.630  1.2019  0.3732  1.1621
   71MOL   H22421364   5.728   1.606   2.768  0.2787 -0.5330  0.4805
   71MOL   H22521365   5.774   1.453   2.697 -0.0303  0.4669 -0.3880
   71MOL   H22621366   5.829   1.481   2.857 -0.6292  1.6520  1.5592
   71MOL   C22721367   5.515   1.182   2.902 -0.4857 -0.5444  0.2984
   71MOL   C22821368   5.480   1.027   2.914 -0.1990 -0.7860  0.0216
   71MOL   C22921369   5.333   1.002   2.963 -0.0149  0.1898  0.2703
   71MOL   C23021370   5.494   0.936   2.790  0.5818  0.3484 -0.3556
   71MOL   O23121371   5.518   0.973   2.675  0.3313  0.0678  0.3657
   71MOL   O23221372   5.501   0.804   2.828 -0.6279  0.4299 -0.0933
   71MOL   C23321373   5.535   0.709   2.719 -0.4702  0.1981  0.2362
   71MOL   H23421374   5.538   1.213   3.004  0.0625 -1.4871  0.4681
   71MOL   H23521375   5.609   1.188   2.847 -0.7049 -1.5022 -0.1829
   71MOL   H23621376   5.317   0.899   2.992  1.2527  0.1875  1.0412
   71MOL   H23721377   5.307   1.065   3.048 -0.0260  2.1430 -1.1294
   71MOL   H23821378   5.261   1.010   2.882  1.5989  0.7907 -1.1529
   71MOL   H23921379   5.465   0.625   2.722  1.1232 -1.1441  0.0861
   71MOL   H24021380   5.627   0.658   2.745  0.8706  2.3746 -0.1438
   71MOL   H24121381   5.547   0.746   2.617  0.4353  0.4830  0.4482
   71MOL   C24221382   5.573   0.968   3.030 -0.7281 -0.2620  0.1331
   71MOL   C24321383   5.732   0.961   3.035 -0.0577  0.5420  0.5639
   71MOL   C24421384   5.787   0.905   2.898  0.4830  0.6336  0.9858
   71MOL   C24521385   5.795   1.109   3.044 -0.7838  1.1400  0.0669
   71MOL   O24621386   5.882   1.158   2.965  0.4925  0.0915 -0.1246
   71MOL   O24721387   5.742   1.174   3.152 -0.2085 -0.6421 -0.2268
   71MOL   C24821388   5.775   1.312   3.171 -0.2840 -0.3302  0.0472
   71MOL   H24921389   5.533   0.872   3.063  2.4078 -1.2043  1.3221
   71MOL   H25021390   5.551   1.037   3.112 -1.6140  0.8457 -0.9903
   71MOL   H25121391   5.755   0.803   2.876 -2.6762  1.8821 -0.5417
   71MOL   H25221392   5.747   0.958   2.812 -0.8558 -1.8496  0.0414
   71MOL   H25321393   5.895   0.913   2.892  0.6169  1.6168  3.9070
   71MOL   H25421394   5.705   1.366   3.236 -0.1252  1.5150 -1.2942
   71MOL   H25521395   5.751   1.351   3.072  0.5652  0.1609  0.0316
   71MOL   H25621396   5.879   1.330   3.197 -0.5220  1.0150  0.1023
   71MOL   C25721397   5.777   0.872   3.166 -0.6462  0.4458  0.0684
   71MOL   C25821398   5.811   0.719   3.162  0.1472  0.0202  0.4662
   71MOL   C25921399   5.696   0.630   3.114  0.4063 -0.0377  0.0522
   71MOL   C26021400   5.922   0.695   3.050  0.5575  0.9724  0.1139
   71MOL   O26121401   5.920   0.623   2.949  0.6358 -0.2883 -0.3676
   71MOL   O26221402   6.029   0.773   3.074 -0.6360  0.0130 -0.1418
   71MOL   C26321403   6.135   0.786   2.984 -0.0460  0.0105 -0.6839
   71MOL   H26421404   5.701   0.891   3.241  0.5732  0.8475  1.2157
   71MOL   H26521405   5.872   0.912   3.202 -0.6442 -0.8562  1.5430
   71MOL   H26621406   5.615   0.640   3.187  1.4929  4.1183  0.8247
   71MOL   H26721407   5.642   0.671   3.030 -1.7795 -1.9109  0.4872
   71MOL   H26821408   5.712   0.523   3.099 -0.4408 -0.1190 -0.2974
   71MOL   H26921409   6.144   0.714   2.902 -1.6972  0.0511 -0.9221
   71MOL   H27021410   6.228   0.796   3.040 -1.8247 -1.4597  2.6559
   71MOL   H27121411   6.125   0.883   2.935 -0.5719  0.1456 -0.3143
   71MOL   C27221412   5.861   0.677   3.305  0.1057 -0.6924 -0.7019
   71MOL   C27321413   5.956   0.554   3.344  0.4442 -0.1608  0.2329
   71MOL   C27421414   5.910   0.426   3.269 -0.3819  0.2926 -0.4721
   71MOL   C27521415   6.105   0.566   3.301 -0.1587 -0.5141 -0.2147
   71MOL   O27621416   6.171   0.470   3.256  0.4105  0.1268  0.0903
   71MOL   O27721417   6.162   0.687   3.309 -0.6409  0.4592  0.7566
   71MOL   C27821418   6.301   0.701   3.276  0.6412  0.0403  0.3107
   71MOL   H27921419   5.768   0.671   3.361 -0.6053 -1.1849 -1.9137
   71MOL   H28021420   5.918   0.764   3.336  0.6268 -0.5228 -2.0679
   71MOL   H28121421   5.804   0.404   3.286  0.0420 -0.2624  1.5284
   71MOL   H28221422   5.927   0.422   3.161  0.9074  2.8207 -0.3955
   71MOL   H28321423   5.957   0.332   3.299 -1.0993  0.2684  0.5905
   71MOL   H28421424   6.330   0.798   3.235  0.8798 -1.0101 -2.0970
   71MOL   H28521425   6.341   0.629   3.204  1.1770 -0.1417  0.7832
   71MOL   H28621426   6.366   0.687   3.362  1.0922  0.4940  0.0461
   71MOL   C28721427   5.954   0.533   3.503  0.4088  0.7563  0.2156
   71MOL   C28821428   5.991   0.650   3.600 -0.0345 -0.2684  0.1263
   71MOL   C28921429   5.925   0.653   3.746 -0.1075 -0.0957  0.1603
   71MOL   C29021430   6.140   0.676   3.616  0.7738  0.2538 -0.4372
   71MOL   O29121431   6.212   0.578   3.617 -0.4627 -0.0402  1.1111
   71MOL   O29221432   6.177   0.801   3.637  0.0884  0.2103  0.2481
   71MOL   C29321433   6.307   0.821   3.683  0.3689  0.4786 -0.8351
   71MOL   H29421434   6.006   0.441   3.531 -0.0025  0.9784  1.7766
   71MOL   H29521435   5.858   0.485   3.524  0.5538 -0.2297 -1.3009
   71MOL   H29621436   5.933   0.737   3.815  0.5614  0.1146 -0.1646
   71MOL   H29721437   5.819   0.655   3.722  0.1736 -0.9066 -1.2547
   71MOL   H29821438   5.944   0.560   3.800 -3.5649 -1.5676 -1.0276
   71MOL   H29921439   6.379   0.782   3.610 -0.3954 -3.1959  0.2386
   71MOL   H30021440   6.326   0.778   3.782  2.1395 -0.6253 -1.6169
   71MOL   H30121441   6.327   0.928   3.689  1.9481  0.1913 -0.7474
   71MOL   H30221442   5.955   0.742   3.554  1.1925  0.8148  1.2591
   72MOL     C121443   3.910   5.360   4.488 -0.7541  0.3906  0.4047
   72MOL     C221444   3.819   5.288   4.385 -0.9828 -0.0030 -0.0667
   72MOL     C321445   3.682   5.350   4.414  0.4041  0.2469  0.1551
   72MOL     C421446   3.853   5.337   4.239  0.1241 -0.2837  0.0267
   72MOL     O521447   3.838   5.260   4.147  0.1960  0.3380 -0.2728
   72MOL     O621448   3.872   5.470   4.217  0.2706 -0.1151 -0.5872
   72MOL     C721449   3.896   5.519   4.085  0.0370 -0.1359 -0.4929
   72MOL     H821450   4.013   5.374   4.458 -0.9060 -1.0763 -0.8437
   72MOL     H921451   3.874   5.462   4.505 -0.7565  0.2813  1.0710
   72MOL    H1021452   3.680   5.459   4.403  1.8536  0.1485 -1.1730
   72MOL    H1121453   3.614   5.301   4.343 -0.9242 -0.2243  1.7216
   72MOL    H1221454   3.653   5.333   4.517  0.7307  0.7003  0.3230
   72MOL    H1321455   3.888   5.445   4.005 -0.3787  0.1256 -0.6966
   72MOL    H1421456   4.001   5.548   4.088  0.0030  0.6675 -4.0179
   72MOL    H1521457   3.839   5.610   4.069  2.4487  1.1642 -1.8596
   72MOL    H1621458   3.903   5.314   4.587 -0.3778  1.9510  1.1653
   72MOL    C1721459   3.818   5.132   4.401  0.4355  0.0092  0.0009
   72MOL    C1821460   3.940   5.030   4.412 -0.6369  0.1797 -0.7080
   72MOL    C1921461   4.026   5.045   4.284 -0.8552 -0.6954  0.1786
   72MOL    C2021462   4.023   5.059   4.535  0.4192  0.1417 -0.3392
   72MOL    O2121463   4.139   5.095   4.523  0.3546  0.1818 -0.2981
   72MOL    O2221464   3.956   5.053   4.655 -0.2261 -0.1649  0.1863
   72MOL    C2321465   4.025   5.075   4.776  0.0483  0.0918 -0.9074
   72MOL    H2421466   3.751   5.101   4.321 -0.4964  2.1648 -0.0763
   72MOL    H2521467   3.758   5.113   4.489 -1.6475  1.8090 -0.9824
   72MOL    H2621468   3.967   5.026   4.195 -0.6881  0.3864 -0.1612
   72MOL    H2721469   4.068   5.145   4.275 -2.7624  0.2433  1.5247
   72MOL    H2821470   4.114   4.980   4.277  0.4544  1.0936 -0.4589
   72MOL    H2921471   4.035   5.181   4.803 -0.2292  0.0730 -0.7254
   72MOL    H3021472   4.127   5.039   4.769 -0.2246 -1.1872  1.3580
   72MOL    H3121473   3.981   5.024   4.862  1.6225 -0.0643 -0.1822
   72MOL    C3221474   3.876   4.888   4.425 -0.2786  0.2331 -0.1193
   72MOL    C3321475   3.950   4.749   4.401 -0.1418 -0.6594 -0.5920
   72MOL    C3421476   3.845   4.645   4.452  1.1186  0.1356 -0.6805
   72MOL    C3521477   3.977   4.729   4.251 -0.0973 -0.2212 -0.6778
   72MOL    O3621478   4.089   4.739   4.201  0.0977  0.1498 -0.5228
   72MOL    O3721479   3.867   4.700   4.184 -0.9326 -0.2722  0.2809
   72MOL    C3821480   3.865   4.681   4.045 -0.1651 -0.1372  0.5998
   72MOL    H3921481   3.792   4.892   4.356  2.2991  0.3842 -3.4516
   72MOL    H4021482   3.828   4.895   4.522  2.6508  0.1600  1.3897
   72MOL    H4121483   3.833   4.669   4.558  3.1047  0.6937 -0.5557
   72MOL    H4221484   3.746   4.662   4.410  1.2617  0.5280 -0.8591
   72MOL    H4321485   3.883   4.545   4.432  2.8746  0.5300  0.5253
   72MOL    H4421486   3.851   4.776   3.994 -0.8250 -0.5596 -0.0297
   72MOL    H4521487   3.773   4.628   4.019 -0.1283  0.6838 -1.2943
   72MOL    H4621488   3.943   4.613   4.011 -0.8411 -1.4140  1.5425
   72MOL    C4721489   4.079   4.745   4.487 -0.2690  0.6319  0.1604
   72MOL    C4821490   4.153   4.612   4.531  0.2280 -0.2088 -0.4073
   72MOL    C4921491   4.066   4.542   4.648 -0.0739  0.6258 -0.3234
   72MOL    C5021492   4.175   4.506   4.418 -0.2168 -0.3441  0.0344
   72MOL    O5121493   4.130   4.392   4.429  0.0827 -0.6657 -0.5310
   72MOL    O5221494   4.251   4.549   4.311 -0.3402 -0.2323  0.5387
   72MOL    C5321495   4.255   4.458   4.197 -0.4274 -0.2880 -0.6341
   72MOL    H5421496   4.053   4.783   4.586 -1.2778  0.6881 -0.1218
   72MOL    H5521497   4.156   4.808   4.443 -0.6373  0.8711 -0.1442
   72MOL    H5621498   4.139   4.473   4.691  1.5853  1.3455 -1.9588
   72MOL    H5721499   4.042   4.605   4.734 -0.0421 -0.0125  0.1590
   72MOL    H5821500   3.974   4.492   4.617  0.9626 -1.6524  0.1283
   72MOL    H5921501   4.316   4.504   4.119  0.4157 -0.6825 -0.2113
   72MOL    H6021502   4.161   4.433   4.148  1.2342 -3.2328 -2.5293
   72MOL    H6121503   4.308   4.368   4.228 -0.8464 -0.8319 -1.4767
   72MOL    C6221504   4.302   4.643   4.570 -0.5142 -0.6303  0.2921
   72MOL    C6321505   4.352   4.679   4.718  0.1354  0.1544  0.2374
   72MOL    C6421506   4.275   4.810   4.765  0.5990 -0.0973  0.1088
   72MOL    C6521507   4.344   4.563   4.824 -0.1930  0.4030  0.0547
   72MOL    O6621508   4.282   4.578   4.927  0.5993  0.3220  1.2394
   72MOL    O6721509   4.404   4.445   4.785  0.3995  0.1707 -0.9977
   72MOL    C6821510   4.404   4.338   4.872  0.4499  1.0029 -0.1655
   72MOL    H6921511   4.346   4.718   4.504  3.2544 -2.1919  0.8806
   72MOL    H7021512   4.367   4.559   4.545 -0.1756  0.2602 -1.9618
   72MOL    H7121513   4.302   4.840   4.866 -3.6553  2.4304  0.6065
   72MOL    H7221514   4.286   4.884   4.686 -0.2211  1.7149  1.6496
   72MOL    H7321515   4.167   4.803   4.778  0.1247  4.9508  0.0164
   72MOL    H7421516   4.449   4.357   4.970 -0.1309 -1.3540  0.5827
   72MOL    H7521517   4.464   4.254   4.839 -0.8017  0.2664 -0.5561
   72MOL    H7621518   4.300   4.309   4.889  0.4693 -1.4051 -3.7140
   72MOL    C7721519   4.506   4.708   4.706  0.1205  0.0419 -0.4787
   72MOL    C7821520   4.579   4.840   4.648  0.0962  0.5557  0.5452
   72MOL    C7921521   4.539   4.864   4.506  0.1257  0.5079 -0.1242
   72MOL    C8021522   4.543   4.965   4.735 -0.9939  0.2734  0.0942
   72MOL    O8121523   4.524   5.078   4.692  0.5586  0.3054 -0.2632
   72MOL    O8221524   4.547   4.938   4.870  0.0009 -0.0014  0.2640
   72MOL    C8321525   4.501   5.045   4.960 -0.7011  0.0712  0.3466
   72MOL    H8421526   4.548   4.632   4.640  0.4437  0.0963 -0.3364
   72MOL    H8521527   4.541   4.687   4.807  0.3452  2.3097 -0.0417
   72MOL    H8621528   4.438   4.902   4.517  0.6490  1.8321  0.1519
   72MOL    H8721529   4.596   4.942   4.456  1.7886  0.4140  1.5773
   72MOL    H8821530   4.539   4.775   4.442  1.4864 -0.4991  1.2257
   72MOL    H8921531   4.396   5.068   4.942 -1.3532 -2.6957  0.3630
   72MOL    H9021532   4.564   5.129   4.931 -1.2621  0.3213 -0.1583
   72MOL    H9121533   4.505   5.032   5.068 -0.5361  3.4581  0.8153
   72MOL    C9221534   4.742   4.824   4.634  1.0024 -0.4454 -0.0950
   72MOL    C9321535   4.863   4.839   4.742  0.1920  0.1948 -0.6045
   72MOL    C9421536   4.881   4.990   4.769 -0.1342 -0.2287  0.2056
   72MOL    C9521537   4.829   4.782   4.884 -0.5704 -0.5789 -0.1201
   72MOL    O9621538   4.804   4.851   4.982  0.1646 -0.0394 -0.0716
   72MOL    O9721539   4.825   4.648   4.882 -0.6557 -0.0121  0.0594
   72MOL    C9821540   4.811   4.574   5.001 -0.4969  0.8401  0.1192
   72MOL    H9921541   4.777   4.898   4.562 -0.0624  0.0949 -0.0616
   72MOL   H10021542   4.761   4.731   4.580  0.1172 -1.2613  0.9806
   72MOL   H10121543   4.967   5.012   4.831  1.9954 -1.7881 -2.1208
   72MOL   H10221544   4.918   5.045   4.682  0.5251  0.3822  0.8680
   72MOL   H10321545   4.792   5.045   4.801 -0.0895  0.8383 -1.4429
   72MOL   H10421546   4.707   4.586   5.031 -1.5234 -1.5074 -2.3667
   72MOL   H10521547   4.876   4.613   5.080  0.0010  0.5185 -0.1278
   72MOL   H10621548   4.833   4.468   4.992 -0.7518  0.8378 -0.4424
   72MOL   C10721549   4.991   4.762   4.685  0.0769 -0.8302  0.0882
   72MOL   C10821550   5.097   4.824   4.584  0.3039  0.0861 -0.7697
   72MOL   C10921551   5.024   4.887   4.461 -0.3214 -0.3670 -0.3787
   72MOL   C11021552   5.181   4.931   4.653 -0.0089  0.6443 -0.3762
   72MOL   O11121553   5.210   5.036   4.595  0.6585 -0.3383 -0.1805
   72MOL   O11221554   5.207   4.904   4.785 -0.3203  0.0481  0.8116
   72MOL   C11321555   5.268   4.995   4.869 -0.0925  0.5769 -0.3305
   72MOL   H11421556   4.959   4.672   4.631  0.5385 -1.4690  0.8612
   72MOL   H11521557   5.046   4.727   4.772  0.7627  0.2176  0.0783
   72MOL   H11621558   4.962   4.972   4.487 -1.1272 -0.5608 -1.6181
   72MOL   H11721559   5.092   4.911   4.379  0.0428  1.1748  0.3686
   72MOL   H11821560   4.957   4.811   4.420 -2.0536  0.6523  0.4880
   72MOL   H11921561   5.196   5.069   4.903 -2.0132 -1.9491  1.2207
   72MOL   H12021562   5.354   5.046   4.825 -0.6106  0.3838 -1.6016
   72MOL   H12121563   5.325   4.957   4.953 -0.3942 -0.0068 -0.3868
   72MOL   C12221564   5.182   4.702   4.521  0.0871 -0.0028  0.0830
   72MOL   C12321565   5.331   4.652   4.578  0.5307 -0.0664  0.0001
   72MOL   C12421566   5.434   4.758   4.546 -0.0176 -0.1516  0.4083
   72MOL   C12521567   5.323   4.608   4.725 -0.1201  0.0500 -0.1999
   72MOL   O12621568   5.414   4.632   4.812  0.0822  0.1184 -0.6749
   72MOL   O12721569   5.214   4.538   4.755 -0.0069 -0.4220  0.0161
   72MOL   C12821570   5.189   4.503   4.888  0.8408  0.2505 -0.7395
   72MOL   H12921571   5.185   4.717   4.413 -0.0419 -0.9033 -0.0491
   72MOL   H13021572   5.117   4.615   4.528 -0.9197  0.7012 -0.3865
   72MOL   H13121573   5.537   4.725   4.559 -0.7964 -2.3692  1.1633
   72MOL   H13221574   5.431   4.797   4.444  0.0952 -0.1526  0.4049
   72MOL   H13321575   5.432   4.834   4.624  0.6676 -0.8639  1.1289
   72MOL   H13421576   5.134   4.581   4.941  0.7226 -0.0314 -0.4485
   72MOL   H13521577   5.274   4.477   4.951  0.4506  0.2322 -0.2122
   72MOL   H13621578   5.131   4.412   4.874  2.3322 -0.7539 -0.4645
   72MOL   C13721579   5.350   4.525   4.483 -0.4368 -0.1369  0.5231
   72MOL   C13821580   5.448   4.402   4.506  0.1862  0.2410  0.8126
   72MOL   C13921581   5.587   4.468   4.555 -0.2103 -0.3789 -0.0729
   72MOL   C14021582   5.390   4.300   4.609  0.0157  0.1359 -0.6566
   72MOL   O14121583   5.453   4.258   4.701  0.0697  0.0161 -0.8026
   72MOL   O14221584   5.260   4.275   4.596  0.1361 -0.5876 -0.3823
   72MOL   C14321585   5.217   4.164   4.669 -0.5196 -0.1081  0.0503
   72MOL   H14421586   5.366   4.564   4.382  1.3813  4.2312  2.3799
   72MOL   H14521587   5.249   4.488   4.470 -0.5916  0.7766 -1.0335
   72MOL   H14621588   5.666   4.394   4.568  0.9510  0.5735 -1.5280
   72MOL   H14721589   5.620   4.539   4.480 -2.1537 -0.7501 -1.3064
   72MOL   H14821590   5.577   4.513   4.654  1.8236 -0.8712  0.3846
   72MOL   H14921591   5.179   4.179   4.770  3.5459  0.2860  1.6160
   72MOL   H15021592   5.286   4.080   4.680  0.3332  0.4760 -0.7608
   72MOL   H15121593   5.130   4.119   4.622 -0.2016  1.6850 -2.3445
   72MOL   C15221594   5.469   4.329   4.367 -0.7406 -0.3827  0.6307
   72MOL   C15321595   5.545   4.188   4.346 -0.6281 -0.1419 -0.0368
   72MOL   C15421596   5.446   4.072   4.384  0.5153 -0.3848  0.0974
   72MOL   C15521597   5.566   4.175   4.192 -0.0661  0.0038 -0.1131
   72MOL   O15621598   5.544   4.072   4.129  0.3958 -0.8747  0.3607
   72MOL   O15721599   5.620   4.281   4.125  0.0475 -0.4767  0.3859
   72MOL   C15821600   5.655   4.277   3.983  0.2472 -0.2516  0.6499
   72MOL   H15921601   5.519   4.404   4.306  0.6161 -0.9488  1.0370
   72MOL   H16021602   5.368   4.331   4.326 -0.8190  2.4285  0.8447
   72MOL   H16121603   5.347   4.091   4.343 -0.1505 -0.0044  1.8411
   72MOL   H16221604   5.463   3.973   4.342 -1.5691  0.1332 -2.0569
   72MOL   H16321605   5.441   4.060   4.493 -1.2488  1.1275  0.2056
   72MOL   H16421606   5.712   4.194   3.941  1.8899  1.8203 -1.3767
   72MOL   H16521607   5.724   4.360   3.966 -1.1371  0.7683 -0.0960
   72MOL   H16621608   5.574   4.295   3.913 -1.7129 -0.6512  2.7747
   72MOL   C16721609   5.685   4.176   4.425 -0.1051 -0.3057 -0.6786
   72MOL   C16821610   5.788   4.059   4.425 -0.4503  0.4432  0.5611
   72MOL   C16921611   5.822   4.003   4.287 -0.7595  0.4748  0.2884
   72MOL   C17021612   5.914   4.117   4.489 -0.9620 -0.3371  0.0737
   72MOL   O17121613   6.014   4.138   4.423 -0.3587  0.3480 -0.1829
   72MOL   O17221614   5.895   4.150   4.616 -0.3140  0.1758 -0.0956
   72MOL   C17321615   6.001   4.208   4.691  0.3918 -0.9553  0.1557
   72MOL   H17421616   5.654   4.202   4.527 -0.0006  1.5902 -1.1126
   72MOL   H17521617   5.733   4.270   4.400  1.9611 -1.1932 -0.1641
   72MOL   H17621618   5.861   4.073   4.213 -0.3984 -1.4998 -1.4471
   72MOL   H17721619   5.903   3.929   4.286 -0.6311  0.6152  0.3760
   72MOL   H17821620   5.741   3.950   4.237 -1.7455  1.2518  1.0754
   72MOL   H17921621   5.969   4.219   4.795  1.3575  0.2625  0.3324
   72MOL   H18021622   6.029   4.303   4.646 -2.0198 -1.9119 -3.5881
   72MOL   H18121623   6.093   4.149   4.682  1.2275  0.4389 -0.4670
   72MOL   C18221624   5.728   3.948   4.517  0.3688  0.2898  0.0021
   72MOL   C18321625   5.800   3.813   4.549 -0.2257  0.0521  0.4639
   72MOL   C18421626   5.761   3.713   4.442  0.2129  0.3961 -0.3519
   72MOL   C18521627   5.963   3.824   4.567  0.6910 -0.5075 -0.1498
   72MOL   O18621628   6.014   3.855   4.676  0.0454  0.3700  0.5126
   72MOL   O18721629   6.039   3.801   4.454 -1.0914 -0.6957  0.1607
   72MOL   C18821630   6.184   3.805   4.457 -0.3185  0.1596  0.1607
   72MOL   H18921631   5.623   3.920   4.506  0.0906  1.4407 -0.3002
   72MOL   H19021632   5.706   3.999   4.610  0.0323  0.0863  0.0382
   72MOL   H19121633   5.654   3.690   4.439  0.1608  0.8196 -1.7580
   72MOL   H19221634   5.790   3.747   4.343 -1.8819 -0.9101 -1.4573
   72MOL   H19321635   5.804   3.615   4.461 -0.1220 -0.1747 -2.5029
   72MOL   H19421636   6.220   3.902   4.424 -0.3996 -0.0577 -0.5648
   72MOL   H19521637   6.230   3.731   4.393  0.1886  0.3225  0.3354
   72MOL   H19621638   6.221   3.790   4.559 -0.2841  1.7914  0.4139
   72MOL   C19721639   5.735   3.757   4.681  0.2795 -0.8697 -0.5714
   72MOL   C19821640   5.747   3.605   4.740 -0.6664  0.5079 -0.4294
   72MOL   C19921641   5.655   3.506   4.663  0.6934  0.4914 -0.1567
   72MOL   C20021642   5.889   3.562   4.749 -0.3473  0.3752 -0.1336
   72MOL   O20121643   5.952   3.586   4.848 -0.0233  0.1631 -0.5047
   72MOL   O20221644   5.943   3.510   4.638  0.3432  0.6747 -0.2210
   72MOL   C20321645   6.071   3.455   4.646 -0.2544  0.0596 -0.2461
   72MOL   H20421646   5.628   3.774   4.672  0.5349  1.7729  0.8683
   72MOL   H20521647   5.764   3.831   4.755  0.2155  0.0143 -1.4286
   72MOL   H20621648   5.604   3.553   4.578 -4.2910 -1.0699  1.7695
   72MOL   H20721649   5.714   3.427   4.618  1.8888 -0.1945  2.5209
   72MOL   H20821650   5.572   3.468   4.723 -0.1342  1.8062 -0.4301
   72MOL   H20921651   6.087   3.408   4.549 -2.1468 -1.7505  0.2726
   72MOL   H21021652   6.066   3.372   4.716  2.5345 -1.1188 -1.3975
   72MOL   H21121653   6.141   3.537   4.665  0.5722 -0.9005  0.9066
   72MOL   C21221654   5.693   3.613   4.881 -0.7965  0.0208  0.2360
   72MOL   C21321655   5.683   3.485   4.978 -0.4387 -0.2070  0.1008
   72MOL   C21421656   5.782   3.517   5.093  0.0928  0.6018 -0.1186
   72MOL   C21521657   5.536   3.495   5.028  0.4690  0.0224 -0.7052
   72MOL   O21621658   5.509   3.512   5.145  0.3417 -0.0295 -0.8622
   72MOL   O21721659   5.446   3.479   4.936  0.6957 -0.1163  0.0907
   72MOL   C21821660   5.309   3.461   4.979  0.2150  0.3303 -0.0352
   72MOL   H21921661   5.594   3.659   4.874 -0.9021 -0.0411  1.2183
   72MOL   H22021662   5.734   3.698   4.935  0.8925 -0.6308 -0.0030
   72MOL   H22121663   5.887   3.513   5.064  0.2127 -2.9472  0.6824
   72MOL   H22221664   5.767   3.616   5.138 -1.0828  0.6047 -0.4955
   72MOL   H22321665   5.770   3.441   5.170 -1.3868  1.1279  0.1918
   72MOL   H22421666   5.314   3.365   5.030  1.7249 -0.2407 -1.2059
   72MOL   H22521667   5.244   3.458   4.892  1.0723 -2.6447 -0.6245
   72MOL   H22621668   5.272   3.543   5.040 -1.8491 -0.5583 -0.0535
   72MOL   C22721669   5.711   3.338   4.910 -0.1654 -0.5371 -0.0307
   72MOL   C22821670   5.741   3.200   4.986  0.9267  0.3806 -0.2317
   72MOL   C22921671   5.759   3.092   4.871  0.2188  0.3511  0.0357
   72MOL   C23021672   5.879   3.212   5.064  0.0016 -0.4015 -0.1294
   72MOL   O23121673   5.891   3.191   5.186  0.2347  0.3574 -0.0511
   72MOL   O23221674   5.980   3.264   4.992 -0.1361  0.1254  0.2215
   72MOL   C23321675   6.106   3.295   5.039 -0.1731  0.7150 -0.1958
   72MOL   H23421676   5.791   3.346   4.837 -0.1359 -1.3332 -0.0844
   72MOL   H23521677   5.623   3.316   4.849  1.7876 -0.1595 -3.1220
   72MOL   H23621678   5.843   3.103   4.802  0.4497 -5.0166 -0.7944
   72MOL   H23721679   5.752   2.989   4.905 -1.1333  0.7964  1.1332
   72MOL   H23821680   5.675   3.110   4.803 -0.9926 -1.3638  1.0404
   72MOL   H23921681   6.176   3.276   4.958 -0.5308  0.8691 -0.5454
   72MOL   H24021682   6.137   3.228   5.119 -1.7093  1.4872  1.0753
   72MOL   H24121683   6.115   3.401   5.065  2.2800  1.4579 -3.7258
   72MOL   C24221684   5.625   3.172   5.085  0.5480  0.3728  0.0443
   72MOL   C24321685   5.587   3.028   5.145 -0.7272 -0.3690 -0.1342
   72MOL   C24421686   5.719   2.968   5.206  0.2143  0.4401  0.1864
   72MOL   C24521687   5.482   3.055   5.260  0.1907 -0.5327  0.0570
   72MOL   O24621688   5.507   3.031   5.381 -0.1176  0.0720  1.1503
   72MOL   O24721689   5.360   3.103   5.218  0.2032  0.2492  0.6698
   72MOL   C24821690   5.253   3.109   5.319  0.0845  0.3481  0.4282
   72MOL   H24921691   5.531   3.193   5.033 -0.4202  0.2437  1.6810
   72MOL   H25021692   5.622   3.243   5.168  2.9386  0.6332 -0.0666
   72MOL   H25121693   5.766   3.024   5.286 -0.6228  1.4331 -0.0022
   72MOL   H25221694   5.697   2.882   5.269 -3.1709  1.5670  0.6555
   72MOL   H25321695   5.787   2.943   5.125 -0.5954  0.3654 -0.4866
   72MOL   H25421696   5.278   3.188   5.390 -1.3588 -0.4853  1.8804
   72MOL   H25521697   5.246   3.017   5.377 -0.1309 -1.3853 -2.2710
   72MOL   H25621698   5.157   3.139   5.277 -0.8225  1.0519  2.9407
   72MOL   C25721699   5.515   2.937   5.034  1.1822 -0.1426  0.1067
   72MOL   C25821700   5.505   2.780   5.049  0.3367 -0.1932 -0.1962
   72MOL   C25921701   5.407   2.723   4.941  0.2900  0.5026  0.1084
   72MOL   C26021702   5.651   2.723   5.013  0.4571  0.2313 -0.2514
   72MOL   O26121703   5.749   2.696   5.093  0.2972  0.0060 -0.4384
   72MOL   O26221704   5.664   2.691   4.885  0.1412  0.3463 -0.1575
   72MOL   C26321705   5.783   2.634   4.836  0.6071  0.3043 -0.0487
   72MOL   H26421706   5.559   2.962   4.938  2.2190  1.0472  0.8658
   72MOL   H26521707   5.411   2.969   5.022  1.1986  0.0151  0.3709
   72MOL   H26621708   5.422   2.773   4.845  1.2772  0.4004  0.2086
   72MOL   H26721709   5.423   2.619   4.910  2.7675  1.1062 -0.7453
   72MOL   H26821710   5.304   2.746   4.970  0.4184  0.3777  0.6587
   72MOL   H26921711   5.773   2.586   4.739 -0.1060 -1.8754  1.0696
   72MOL   H27021712   5.836   2.559   4.895  2.5252  0.7939 -1.1163
   72MOL   H27121713   5.855   2.714   4.821  0.8161  0.0975 -0.1475
   72MOL   C27221714   5.463   2.736   5.187  0.3304  0.2458 -1.1077
   72MOL   C27321715   5.415   2.597   5.227  0.3642  1.1648 -0.3326
   72MOL   C27421716   5.272   2.569   5.178  0.5567  0.2315 -0.1673
   72MOL   C27521717   5.512   2.487   5.168  0.1873 -0.2931  1.1623
   72MOL   O27621718   5.478   2.422   5.067 -0.2679 -0.0958 -0.1342
   72MOL   O27721719   5.634   2.473   5.227  0.1519  0.5051 -0.3971
   72MOL   C27821720   5.738   2.394   5.166 -0.0213 -0.1183  0.0740
   72MOL   H27921721   5.380   2.801   5.216 -0.0916 -1.2682  1.2055
   72MOL   H28021722   5.542   2.761   5.257  1.5277  0.2490 -2.4305
   72MOL   H28121723   5.231   2.476   5.219 -1.0080  0.8510 -0.2788
   72MOL   H28221724   5.208   2.655   5.198 -0.1532  0.0446 -1.6215
   72MOL   H28321725   5.259   2.557   5.071 -0.2648  0.0212 -0.0474
   72MOL   H28421726   5.826   2.394   5.229 -1.2157  0.9530  1.7682
   72MOL   H28521727   5.759   2.442   5.070  1.6204 -1.3669 -0.2179
   72MOL   H28621728   5.698   2.293   5.164  0.1826 -0.1916 -0.4470
   72MOL   C28721729   5.414   2.587   5.388 -0.1217  0.2054  0.2324
   72MOL   C28821730   5.364   2.712   5.475 -0.2844 -0.2589 -0.3895
   72MOL   C28921731   5.218   2.739   5.456 -0.6621 -0.3563  0.4000
   72MOL   C29021732   5.395   2.696   5.624 -0.1754 -0.8297  0.2420
   72MOL   O29121733   5.350   2.604   5.691  0.3089  0.1337 -0.4544
   72MOL   O29221734   5.487   2.777   5.665  0.2592  0.1729 -0.1076
   72MOL   C29321735   5.548   2.757   5.791  0.0517 -0.6323 -0.2757
   72MOL   H29421736   5.517   2.571   5.418  0.0506  1.0405  0.0996
   72MOL   H29521737   5.358   2.496   5.411 -0.9661  0.9286  1.0737
   72MOL   H29621738   5.187   2.796   5.544 -0.1181  1.7742 -0.7483
   72MOL   H29721739   5.199   2.798   5.367 -1.7450 -3.0361 -1.1737
   72MOL   H29821740   5.164   2.644   5.452  0.9084 -1.1717 -1.9304
   72MOL   H29921741   5.481   2.744   5.876  0.7845 -0.1492  0.3917
   72MOL   H30021742   5.618   2.841   5.789  0.2857 -0.8042  0.5570
   72MOL   H30121743   5.604   2.664   5.798  1.1894 -0.0421 -1.2152
   72MOL   H30221744   5.420   2.802   5.451  1.5989 -1.4741 -0.6442
   73MOL     C121745   6.522   1.274   1.415 -0.2933  0.2732 -0.1802
   73MOL     C221746   6.623   1.193   1.316 -0.0830  0.3636  0.2668
   73MOL     C321747   6.590   1.235   1.169  0.3221 -0.7603 -0.4593
   73MOL     C421748   6.771   1.224   1.340 -0.0315  0.1458 -0.1990
   73MOL     O521749   6.807   1.281   1.443  0.4875  0.2782  0.2537
   73MOL     O621750   6.855   1.171   1.237 -0.3810  0.6045  0.0347
   73MOL     C721751   6.993   1.176   1.249  0.2820  0.2426 -0.1295
   73MOL     H821752   6.557   1.374   1.440 -0.9174  0.5681 -0.4771
   73MOL     H921753   6.423   1.297   1.375  0.4684  3.8807 -0.1138
   73MOL    H1021754   6.572   1.343   1.168 -0.6400 -0.8610  2.6036
   73MOL    H1121755   6.655   1.195   1.091  2.1853  0.3508  0.4865
   73MOL    H1221756   6.493   1.195   1.140  0.3933  0.0311 -1.8327
   73MOL    H1321757   7.034   1.187   1.148  0.6451  2.0196  0.1931
   73MOL    H1421758   7.015   1.080   1.296 -3.1093  0.5995  2.2890
   73MOL    H1521759   7.024   1.250   1.322  0.4405 -1.1244  1.2022
   73MOL    H1621760   6.508   1.223   1.511  1.0918  2.2616  1.1180
   73MOL    C1721761   6.602   1.034   1.315  0.6607 -0.8142 -0.1009
   73MOL    C1821762   6.572   0.947   1.444 -0.2075 -0.0358  0.2907
   73MOL    C1921763   6.668   0.985   1.559  0.2558  0.1302 -0.2492
   73MOL    C2021764   6.432   0.972   1.499  0.3793 -0.9457 -0.1360
   73MOL    O2121765   6.395   0.946   1.614 -0.2260 -0.1560 -0.1452
   73MOL    O2221766   6.352   1.037   1.406 -0.3804  0.1261 -0.3095
   73MOL    C2321767   6.219   1.088   1.439  0.0862 -0.3271 -0.0041
   73MOL    H2421768   6.697   0.993   1.281  1.2358  0.4616 -0.0697
   73MOL    H2521769   6.535   1.010   1.232  0.9743 -0.0452 -0.5822
   73MOL    H2621770   6.657   1.087   1.597  0.6723  0.0275  0.1595
   73MOL    H2721771   6.647   0.929   1.651 -0.0262 -1.2503 -1.1447
   73MOL    H2821772   6.772   0.974   1.530  0.3740  0.7752 -0.0930
   73MOL    H2921773   6.223   1.160   1.520  0.9101 -1.4301  0.9529
   73MOL    H3021774   6.151   1.008   1.469 -1.9708  0.9101 -1.2035
   73MOL    H3121775   6.177   1.131   1.348  0.4865  0.7708  0.3225
   73MOL    C3221776   6.587   0.791   1.432 -0.6800  0.5827  0.8367
   73MOL    C3321777   6.529   0.721   1.300  0.3197 -0.2844 -0.1483
   73MOL    C3421778   6.384   0.745   1.289  0.5900 -0.4457  0.0871
   73MOL    C3521779   6.612   0.747   1.173 -0.2144 -0.1057  0.0450
   73MOL    O3621780   6.564   0.772   1.059 -0.3290  0.3361  0.0206
   73MOL    O3721781   6.745   0.735   1.198 -0.1639 -0.0505 -0.0632
   73MOL    C3821782   6.835   0.751   1.090  0.0684  0.0304  0.2817
   73MOL    H3921783   6.555   0.749   1.527 -1.4419 -1.0127 -0.1008
   73MOL    H4021784   6.694   0.770   1.434 -0.5826  1.0171  0.5091
   73MOL    H4121785   6.361   0.849   1.266  0.5584 -1.0616 -2.9112
   73MOL    H4221786   6.346   0.701   1.196 -0.5181  0.3980  0.1319
   73MOL    H4321787   6.323   0.701   1.367 -1.0458 -0.2953 -1.0880
   73MOL    H4421788   6.940   0.766   1.115 -0.4024  0.5019  2.0447
   73MOL    H4521789   6.804   0.845   1.045  0.5323  0.6476  1.2338
   73MOL    H4621790   6.809   0.676   1.015 -2.2784 -0.2661  1.3532
   73MOL    C4721791   6.539   0.566   1.330 -0.2772  0.1490 -1.1013
   73MOL    C4821792   6.512   0.454   1.219  0.1950 -0.3720 -0.3579
   73MOL    C4921793   6.400   0.476   1.121  0.2243  0.1356  0.2659
   73MOL    C5021794   6.645   0.445   1.131 -0.2841  0.1200  0.6645
   73MOL    O5121795   6.653   0.450   1.010 -0.1777  0.3057  0.0149
   73MOL    O5221796   6.753   0.413   1.208 -0.2730  0.4481 -0.5489
   73MOL    C5321797   6.879   0.402   1.140  0.2938 -0.0135 -0.4501
   73MOL    H5421798   6.495   0.540   1.426  1.7021  0.9835  0.0445
   73MOL    H5521799   6.637   0.546   1.373  1.0392  2.8616 -2.6578
   73MOL    H5621800   6.306   0.505   1.168 -0.1839  2.2655 -1.7883
   73MOL    H5721801   6.422   0.546   1.041 -0.3514 -0.9790 -0.8883
   73MOL    H5821802   6.384   0.381   1.069  1.5408  1.3642 -2.4528
   73MOL    H5921803   6.879   0.483   1.068 -0.8359  1.5033  1.2240
   73MOL    H6021804   6.883   0.305   1.089  1.2401  0.5024 -1.3706
   73MOL    H6121805   6.953   0.417   1.218 -1.3434  0.0526  1.1111
   73MOL    C6221806   6.497   0.310   1.298  0.5144 -0.5268 -0.0965
   73MOL    C6321807   6.357   0.255   1.360 -0.2499 -0.1018  0.0340
   73MOL    C6421808   6.312   0.364   1.458  0.7111 -0.2032  0.0149
   73MOL    C6521809   6.250   0.225   1.256  0.4719  0.1662  0.4040
   73MOL    O6621810   6.140   0.275   1.265 -0.2185  0.2808  0.4027
   73MOL    O6721811   6.287   0.140   1.161 -0.2489  0.0412 -0.1398
   73MOL    C6821812   6.200   0.135   1.049  0.3524  0.3858 -0.5275
   73MOL    H6921813   6.576   0.294   1.372  0.6309  0.7793  0.0734
   73MOL    H7021814   6.519   0.232   1.225 -2.9104  1.1939 -3.0730
   73MOL    H7121815   6.214   0.343   1.500  0.0595  0.3529 -1.2108
   73MOL    H7221816   6.391   0.380   1.533  0.7766  1.0954 -0.3115
   73MOL    H7321817   6.304   0.456   1.400 -0.8381  1.1426  2.2592
   73MOL    H7421818   6.115   0.202   1.051 -0.4857 -0.6773  0.3339
   73MOL    H7521819   6.174   0.030   1.035 -2.6396  0.9202  0.5534
   73MOL    H7621820   6.254   0.164   0.959  0.1517  0.6134 -0.5743
   73MOL    C7721821   6.382   0.118   1.440 -0.1144 -0.6427  0.5392
   73MOL    C7821822   6.282   0.049   1.545 -0.0970 -0.4113 -0.2503
   73MOL    C7921823   6.146   0.023   1.478  0.0370 -0.3112  0.5416
   73MOL    C8021824   6.340   7.786   1.581 -0.1426 -0.0339  0.0618
   73MOL    O8121825   6.269   7.684   1.580 -0.4861  0.3069  0.3697
   73MOL    O8221826   6.467   7.789   1.613 -0.0448 -0.3647 -0.2845
   73MOL    C8321827   6.537   7.671   1.646  0.6416 -0.1423 -0.3877
   73MOL    H8421828   6.477   0.136   1.490 -0.5487  1.0402  0.7883
   73MOL    H8521829   6.405   0.045   1.362  0.4542  2.0040 -1.8427
   73MOL    H8621830   6.100   0.118   1.451 -1.7124 -0.8514  1.5110
   73MOL    H8721831   6.150   7.840   1.387 -0.5906  0.1676  0.1881
   73MOL    H8821832   6.065   7.858   1.539  0.0501 -0.9455  0.1161
   73MOL    H8921833   6.635   7.699   1.684 -0.0066  1.5817  0.0574
   73MOL    H9021834   6.562   7.602   1.566  0.1107 -0.7524 -0.0347
   73MOL    H9121835   6.493   7.610   1.726 -0.1701 -0.4554 -1.0620
   73MOL    C9221836   6.269   0.138   1.674 -0.5346 -0.5035  0.4309
   73MOL    C9321837   6.229   0.079   1.816 -0.6533  0.4842  0.4833
   73MOL    C9421838   6.103   7.873   1.806  0.5929 -0.0190 -0.0360
   73MOL    C9521839   6.331   7.868   1.892 -0.4660 -0.1167  0.4511
   73MOL    O9621840   6.452   0.006   1.873  0.9693  0.0948  0.4561
   73MOL    O9721841   6.275   7.775   1.983 -0.1009 -1.2035 -0.0353
   73MOL    C9821842   6.362   7.709   2.069  0.5787 -0.1049 -0.0137
   73MOL    H9921843   6.197   0.215   1.647 -0.6436 -0.7234  0.0873
   73MOL   H10021844   6.367   0.182   1.691 -0.0210 -0.9620 -1.2632
   73MOL   H10121845   6.129   7.781   1.754  1.7343  1.1133 -1.5087
   73MOL   H10221846   6.055   7.838   1.898 -0.4481 -1.6800 -1.1775
   73MOL   H10321847   6.023   0.046   1.754  0.1558 -2.9624 -2.3404
   73MOL   H10421848   6.429   7.778   2.120  0.4999  0.2775 -0.4280
   73MOL   H10521849   6.420   7.636   2.013 -0.5814 -0.3083 -0.9856
   73MOL   H10621850   6.308   7.651   2.144 -1.8423  0.8167 -1.0097
   73MOL   C10721851   6.186   0.195   1.912  0.3433 -0.6458  0.5157
   73MOL   C10821852   6.274   0.325   1.949  0.3971 -0.1247 -0.0629
   73MOL   C10921853   6.417   0.288   1.987  0.2059  0.1653 -0.0373
   73MOL   C11021854   6.285   0.436   1.845 -0.8721  0.2330  0.2606
   73MOL   O11121855   6.239   0.434   1.729  0.8430  0.1414 -0.5267
   73MOL   O11221856   6.365   0.535   1.887  0.2157  0.3781 -0.3863
   73MOL   C11321857   6.381   0.657   1.814 -0.2375 -0.5783 -0.4158
   73MOL   H11421858   6.145   0.148   2.002  1.3615 -2.6840 -0.0662
   73MOL   H11521859   6.093   0.228   1.865  1.5444  0.7852 -0.9102
   73MOL   H11621860   6.463   0.245   1.898 -1.6691 -1.1798 -0.3898
   73MOL   H11721861   6.481   0.367   2.025 -0.7152  0.4532  0.9204
   73MOL   H11821862   6.423   0.217   2.069  0.4875  0.1709 -0.0525
   73MOL   H11921863   6.398   0.630   1.710 -0.0823 -3.0036  0.1954
   73MOL   H12021864   6.457   0.731   1.839  0.2574 -1.6631  1.3748
   73MOL   H12121865   6.291   0.717   1.828  0.2328  0.0777 -0.2310
   73MOL   C12221866   6.215   0.395   2.077 -0.0688  0.4879  0.2510
   73MOL   C12321867   6.076   0.476   2.095 -0.0340 -0.4600 -0.0923
   73MOL   C12421868   6.083   0.610   2.015 -0.3706  0.0747 -0.7520
   73MOL   C12521869   5.958   0.391   2.045  0.2009  0.3320 -0.7423
   73MOL   O12621870   5.908   0.304   2.113  0.0249  0.1080 -0.8320
   73MOL   O12721871   5.919   0.425   1.919 -0.0207 -0.7816 -0.1904
   73MOL   C12821872   5.834   0.345   1.849  0.1771 -0.2724 -0.0966
   73MOL   H12921873   6.296   0.455   2.118 -1.2290  1.5630  0.9967
   73MOL   H13021874   6.197   0.311   2.143  0.5194 -0.1591 -0.4055
   73MOL   H13121875   6.186   0.647   2.016 -0.8658  1.4659 -0.1438
   73MOL   H13221876   6.052   0.610   1.910  1.0488  1.5509 -1.2005
   73MOL   H13321877   6.025   0.690   2.060  1.4421  0.1935  1.4395
   73MOL   H13421878   5.841   0.360   1.741  0.9285 -3.0680 -0.4657
   73MOL   H13521879   5.735   0.357   1.894  0.6828 -0.0348  0.9727
   73MOL   H13621880   5.867   0.242   1.855  1.9765  0.2711 -0.4309
   73MOL   C13721881   6.059   0.515   2.244  0.0083 -0.1945  0.7041
   73MOL   C13821882   6.167   0.558   2.358 -0.7513 -0.3929  0.4232
   73MOL   C13921883   6.235   0.426   2.403  0.1716 -0.1833 -0.3282
   73MOL   C14021884   6.276   0.645   2.292  1.1498  0.6502 -0.0149
   73MOL   O14121885   6.252   0.738   2.220 -0.0054  0.0604  0.8660
   73MOL   O14221886   6.401   0.620   2.339  0.3166  0.3816 -0.1275
   73MOL   C14321887   6.515   0.680   2.277  0.4445  0.1953 -0.1880
   73MOL   H14421888   6.002   0.433   2.287 -1.1278 -1.3414 -2.7840
   73MOL   H14521889   5.981   0.591   2.240 -0.0243 -0.2520  0.2346
   73MOL   H14621890   6.322   0.446   2.466  0.5732 -0.3778 -0.8167
   73MOL   H14721891   6.165   0.370   2.465 -0.5625 -0.0393 -1.0204
   73MOL   H14821892   6.280   0.364   2.325  0.9457  0.8248 -0.6901
   73MOL   H14921893   6.492   0.686   2.171 -0.6527 -1.5600 -0.0570
   73MOL   H15021894   6.611   0.631   2.293  1.2235  1.2608 -1.4908
   73MOL   H15121895   6.513   0.784   2.311  0.5722  0.1806 -0.1343
   73MOL   C15221896   6.109   0.618   2.485 -0.3369 -1.0313  0.3185
   73MOL   C15321897   6.060   0.768   2.508 -0.1780 -0.2359  0.3081
   73MOL   C15421898   5.977   0.758   2.634  0.3262  0.0029 -0.4011
   73MOL   C15521899   6.181   0.855   2.556  0.3598 -0.2616  0.4494
   73MOL   O15621900   6.207   0.871   2.677  0.2568 -0.1638  0.5166
   73MOL   O15721901   6.245   0.930   2.467 -0.6825 -0.2732 -0.2586
   73MOL   C15821902   6.343   1.028   2.514  0.3747  0.0447 -0.2127
   73MOL   H15921903   6.171   0.576   2.564 -0.4394 -0.9530  0.4405
   73MOL   H16021904   6.017   0.562   2.501 -0.2929 -1.1752  0.0663
   73MOL   H16121905   5.887   0.700   2.613 -0.1542 -1.0058  3.8316
   73MOL   H16221906   6.023   0.705   2.718 -0.1584  1.0935  0.5519
   73MOL   H16321907   5.951   0.858   2.668  2.0150  0.4282 -0.2931
   73MOL   H16421908   6.315   1.078   2.607 -1.0208 -0.1460 -0.5148
   73MOL   H16521909   6.345   1.115   2.449 -1.2782  0.4427  0.2234
   73MOL   H16621910   6.447   0.998   2.517  0.1770 -0.8865 -1.8754
   73MOL   C16721911   5.972   0.819   2.390 -0.5450  0.0076 -0.7078
   73MOL   C16821912   5.896   0.963   2.393  0.7083  0.0277  0.3174
   73MOL   C16921913   5.756   0.937   2.459 -0.4336  0.0298  0.6923
   73MOL   C17021914   5.979   1.082   2.458  0.7396  0.1390  0.9029
   73MOL   O17121915   6.049   1.160   2.391  0.2080  0.1526  0.1660
   73MOL   O17221916   5.939   1.105   2.586  0.1574 -0.1761 -0.2003
   73MOL   C17321917   5.992   1.220   2.651  0.7824 -0.0648 -0.7838
   73MOL   H17421918   5.897   0.746   2.361  0.0017 -0.5391 -0.7589
   73MOL   H17521919   6.034   0.833   2.301 -0.8681  0.0579 -0.9258
   73MOL   H17621920   5.698   0.887   2.381 -1.3569  2.3286 -0.1396
   73MOL   H17721921   5.760   0.870   2.545 -0.8755  0.6290  1.1870
   73MOL   H17821922   5.694   1.021   2.493 -0.8428  0.2971 -0.6749
   73MOL   H17921923   5.992   1.213   2.760  2.6719 -2.0157 -0.8777
   73MOL   H18021924   5.936   1.305   2.613 -0.6413  0.3295  2.0866
   73MOL   H18121925   6.096   1.228   2.619  1.4179 -2.3272  0.5894
   73MOL   C18221926   5.868   1.003   2.242  0.7075 -0.0392  0.5628
   73MOL   C18321927   5.774   1.118   2.184 -0.6397 -0.2260 -0.3512
   73MOL   C18421928   5.628   1.094   2.228 -0.2013  0.2983 -0.9273
   73MOL   C18521929   5.817   1.262   2.237  1.5539 -0.7859  0.2052
   73MOL   O18621930   5.737   1.328   2.301 -0.1579 -0.3439 -0.3035
   73MOL   O18721931   5.948   1.307   2.196 -0.6186  0.2409 -0.2498
   73MOL   C18821932   5.989   1.440   2.221 -0.3276 -0.1728 -0.3274
   73MOL   H18921933   5.813   0.916   2.205 -2.4098  2.0996 -0.0077
   73MOL   H19021934   5.967   1.010   2.197  0.2299 -0.4825 -0.5925
   73MOL   H19121935   5.556   1.155   2.173 -0.7765  0.1883 -0.3008
   73MOL   H19221936   5.594   0.991   2.224 -0.2005  0.2941 -0.8372
   73MOL   H19321937   5.607   1.112   2.333 -0.5855 -1.0457 -0.7660
   73MOL   H19421938   5.909   1.506   2.188  0.4720  0.1922 -1.5320
   73MOL   H19521939   6.073   1.471   2.159 -0.9795  0.2175 -1.0232
   73MOL   H19621940   6.006   1.459   2.327  0.2347 -0.2083 -0.4078
   73MOL   C19721941   5.779   1.131   2.026  1.0428 -0.1408 -0.8663
   73MOL   C19821942   5.777   1.009   1.923 -0.0345  0.0874  0.3189
   73MOL   C19921943   5.921   0.960   1.899 -0.0006 -0.2257 -0.0543
   73MOL   C20021944   5.679   0.896   1.975 -0.3164 -0.4057 -0.3182
   73MOL   O20121945   5.555   0.906   1.982  0.1924 -0.1448 -0.2097
   73MOL   O20221946   5.750   0.798   2.021  0.5704  0.0437 -0.0962
   73MOL   C20321947   5.695   0.678   2.074  0.7752  0.6526  0.1437
   73MOL   H20421948   5.846   1.214   2.006  1.3577  0.5049  2.4600
   73MOL   H20521949   5.691   1.189   1.997  0.9203 -0.2591 -0.7379
   73MOL   H20621950   5.989   0.958   1.983 -0.5849  1.3562  0.4757
   73MOL   H20721951   5.914   0.860   1.855 -0.1438 -0.5535  0.6972
   73MOL   H20821952   5.966   1.026   1.825  1.6187 -2.4652 -1.1141
   73MOL   H20921953   5.588   0.691   2.090  0.5439  2.1664 -2.3276
   73MOL   H21021954   5.749   0.652   2.165  1.9583 -1.3192 -1.0885
   73MOL   H21121955   5.705   0.595   2.004 -2.7598 -0.7377  1.1662
   73MOL   C21221956   5.727   1.060   1.782  0.5884  0.2370  0.9798
   73MOL   C21321957   5.720   0.983   1.639  0.6606  0.1795  0.1044
   73MOL   C21421958   5.671   1.100   1.547  0.7261 -0.7423 -0.1476
   73MOL   C21521959   5.856   0.941   1.590 -0.0717  0.7329 -0.8730
   73MOL   O21621960   5.926   1.019   1.526 -0.1140 -0.4006 -0.1100
   73MOL   O21721961   5.897   0.819   1.627  0.1063  0.8364  0.1405
   73MOL   C21821962   6.023   0.766   1.585 -0.6834  0.1046 -0.0546
   73MOL   H21921963   5.775   1.155   1.757  2.5119 -1.2031 -1.0000
   73MOL   H22021964   5.625   1.089   1.806  0.4013  0.1035  0.3518
   73MOL   H22121965   5.739   1.185   1.553 -0.6402  0.2605  1.8326
   73MOL   H22221966   5.661   1.076   1.442 -0.7292  2.8646 -0.9223
   73MOL   H22321967   5.577   1.139   1.585 -0.9957 -2.8312 -2.1429
   73MOL   H22421968   6.107   0.821   1.627  0.7799 -1.3189 -1.0488
   73MOL   H22521969   6.029   0.777   1.477  1.6961  2.6557  0.2919
   73MOL   H22621970   6.044   0.665   1.620 -0.3981  0.5115  0.9801
   73MOL   C22721971   5.620   0.869   1.647 -0.1657  0.0088  0.0711
   73MOL   C22821972   5.576   0.786   1.520  0.8735  0.7724  0.2968
   73MOL   C22921973   5.692   0.769   1.415  0.4228  0.1438  0.4893
   73MOL   C23021974   5.539   0.647   1.579  0.1072 -0.1554  0.7620
   73MOL   O23121975   5.605   0.542   1.560 -0.5389 -0.3936 -0.0930
   73MOL   O23221976   5.427   0.659   1.660  0.0040  0.0546  0.0791
   73MOL   C23321977   5.391   0.546   1.735  0.5795  0.0380  0.1742
   73MOL   H23421978   5.530   0.912   1.692  0.8857  1.6548  0.6292
   73MOL   H23521979   5.659   0.794   1.717 -1.4227  0.1223  0.9161
   73MOL   H23621980   5.783   0.720   1.449 -0.5205 -2.5472 -0.7275
   73MOL   H23721981   5.659   0.705   1.333 -1.8064  0.7229  0.9034
   73MOL   H23821982   5.713   0.868   1.372 -0.6044  0.6118  1.0584
   73MOL   H23921983   5.457   0.520   1.818  1.0002 -0.4288 -0.3012
   73MOL   H24021984   5.378   0.457   1.672 -0.4028  0.6022 -0.4323
   73MOL   H24121985   5.299   0.571   1.788  0.2854 -0.5613 -0.0428
   73MOL   C24221986   5.438   0.845   1.459  0.2031 -0.5198  0.3415
   73MOL   C24321987   5.359   0.801   1.328 -0.1570 -0.6933 -0.4168
   73MOL   C24421988   5.216   0.869   1.348  0.2534  0.5781 -0.9805
   73MOL   C24521989   5.430   0.872   1.207  0.2103  0.0325  0.6738
   73MOL   O24621990   5.549   0.905   1.209 -0.2807 -0.2125  0.2832
   73MOL   O24721991   5.359   0.876   1.094 -0.2130 -0.0990 -0.5068
   73MOL   C24821992   5.407   0.933   0.973 -0.1943  0.7301  0.8896
   73MOL   H24921993   5.459   0.951   1.450 -0.4750 -0.3651  0.5085
   73MOL   H25021994   5.359   0.857   1.534 -0.1192  1.1576 -0.2562
   73MOL   H25121995   5.169   0.864   1.250 -2.6517  0.4985  0.3506
   73MOL   H25221996   5.153   0.820   1.422  2.4660  0.1162  0.6262
   73MOL   H25321997   5.229   0.973   1.378  3.0907  0.2196 -0.8053
   73MOL   H25421998   5.404   1.040   0.996 -0.3587  0.5211  1.8606
   73MOL   H25521999   5.348   0.913   0.883  0.1341  1.2950  0.5378
   73MOL   H25622000   5.515   0.923   0.959  0.2153  3.1156  1.9872
   73MOL   C25722001   5.358   0.642   1.314  0.2592  0.3483 -0.2115
   73MOL   C25822002   5.325   0.554   1.181 -1.2367 -0.0522  0.3707
   73MOL   C25922003   5.179   0.602   1.151  0.2257  0.4351  0.3048
   73MOL   C26022004   5.423   0.580   1.063 -0.2343  0.0674 -0.5077
   73MOL   O26122005   5.383   0.595   0.946  0.2554 -0.4946 -0.0429
   73MOL   O26222006   5.555   0.591   1.107 -0.4163  0.3705  0.5483
   73MOL   C26322007   5.655   0.598   1.015 -0.1086  0.7850 -0.1160
   73MOL   H26422008   5.316   0.601   1.406  1.8699  1.5172  1.0827
   73MOL   H26522009   5.463   0.614   1.329  0.1362 -0.0550 -0.0809
   73MOL   H26622010   5.125   0.531   1.088  1.2217 -1.5393  1.6444
   73MOL   H26722011   5.118   0.596   1.242  0.8527  1.1727  0.7787
   73MOL   H26822012   5.159   0.698   1.103 -1.9992 -0.8283 -1.4022
   73MOL   H26922013   5.635   0.677   0.943  0.1412  0.7008 -0.2774
   73MOL   H27022014   5.662   0.503   0.961  0.0229  0.7518 -0.0397
   73MOL   H27122015   5.751   0.633   1.053 -0.2740  0.2700  0.8125
   73MOL   C27222016   5.315   0.402   1.210 -0.1949  1.1593  0.7694
   73MOL   C27322017   5.435   0.298   1.231 -0.5481 -0.0900 -0.2465
   73MOL   C27422018   5.357   0.163   1.252 -0.0618  0.2506  0.3062
   73MOL   C27522019   5.525   0.284   1.107  0.1670 -0.0430 -0.1917
   73MOL   O27622020   5.644   0.271   1.121  0.2765  0.5032 -0.1682
   73MOL   O27722021   5.465   0.262   0.989 -0.2540 -0.0782 -0.4152
   73MOL   C27822022   5.535   0.257   0.866  0.0320  0.2810 -0.2921
   73MOL   H27922023   5.256   0.371   1.124 -1.6085 -1.0695  2.4620
   73MOL   H28022024   5.242   0.388   1.290 -0.7145  1.0940  0.2902
   73MOL   H28122025   5.302   0.163   1.345 -0.1940  1.2186  0.2346
   73MOL   H28222026   5.287   0.146   1.170 -2.1739  0.2668  2.0917
   73MOL   H28322027   5.430   0.082   1.259 -1.6573 -1.1261  1.3636
   73MOL   H28422028   5.620   0.191   0.884 -1.3313 -0.7649  2.7381
   73MOL   H28522029   5.564   0.355   0.830  1.9290 -0.9226 -2.1624
   73MOL   H28622030   5.483   0.213   0.781  0.3708  0.8548 -0.7993
   73MOL   C28722031   5.518   0.330   1.356  0.0857 -0.1818 -0.3548
   73MOL   C28822032   5.601   0.207   1.412 -0.1406  0.2300 -0.3439
   73MOL   C28922033   5.747   0.242   1.422 -0.2660  0.0522 -0.4163
   73MOL   C29022034   5.551   0.137   1.545 -0.2366 -0.4683 -0.8805
   73MOL   O29122035   5.504   0.028   1.544 -0.2212  0.0321  0.0444
   73MOL   O29222036   5.561   0.223   1.661  0.3412 -0.1104 -1.1004
   73MOL   C29322037   5.530   0.172   1.795  0.5229  0.5638  0.1196
   73MOL   H29422038   5.461   0.381   1.434  1.1122 -0.7785  0.8126
   73MOL   H29522039   5.586   0.412   1.333 -0.7367  1.0351  1.4175
   73MOL   H29622040   5.750   0.334   1.481 -0.8575 -0.5774  0.5957
   73MOL   H29722041   5.797   0.163   1.478  0.5589  1.0991  0.3455
   73MOL   H29822042   5.796   0.280   1.333 -0.0669  1.6716  0.3607
   73MOL   H29922043   5.558   0.067   1.805 -0.0924  0.1514 -2.2434
   73MOL   H30022044   5.422   0.178   1.813  0.6619  1.0101  0.8176
   73MOL   H30122045   5.568   0.240   1.871 -0.6692 -0.1546  1.4077
   73MOL   H30222046   5.595   0.123   1.343  0.6726  0.5347 -0.7925
   74MOL     C122047   5.157   6.867   0.499 -0.3674 -0.9191  0.5717
   74MOL     C222048   5.024   6.916   0.442  0.1159 -0.8458  0.0229
   74MOL     C322049   4.959   6.997   0.551  0.1598 -0.1475  0.1675
   74MOL     C422050   5.049   7.017   0.325 -0.0759 -0.5375 -0.6344
   74MOL     O522051   4.970   7.112   0.298 -0.2648  0.3231 -0.0427
   74MOL     O622052   5.163   6.987   0.255 -0.1830 -0.6898  0.2009
   74MOL     C722053   5.186   7.043   0.130  0.3719  0.2180  0.4060
   74MOL     H822054   5.205   6.796   0.431 -0.9702 -0.5962 -0.1953
   74MOL     H922055   5.214   6.959   0.512 -0.0714 -1.1104  0.6352
   74MOL    H1022056   5.020   7.078   0.590 -0.4688  0.6333 -0.4559
   74MOL    H1122057   4.875   7.060   0.523  0.6916  0.5335  0.1062
   74MOL    H1222058   4.919   6.932   0.629  1.0360 -0.5821  0.2656
   74MOL    H1322059   5.109   7.029   0.055  1.4279  2.3650 -1.1248
   74MOL    H1422060   5.275   6.997   0.087  1.5407  3.6439 -0.9673
   74MOL    H1522061   5.204   7.150   0.136  0.7037  0.0559  2.9702
   74MOL    H1622062   5.148   6.820   0.597 -1.5949 -1.3609  0.2566
   74MOL    C1722063   4.928   6.805   0.387 -0.3175 -0.1475 -0.0807
   74MOL    C1822064   4.871   6.678   0.469 -0.2340  0.3120  0.3984
   74MOL    C1922065   4.972   6.617   0.568 -0.0567 -0.4784  0.1346
   74MOL    C2022066   4.751   6.714   0.560  0.7521 -0.3882  0.2516
   74MOL    O2122067   4.686   6.820   0.552 -0.1807 -0.0290 -0.3890
   74MOL    O2222068   4.703   6.612   0.630  0.5864  0.5472 -0.2466
   74MOL    C2322069   4.565   6.622   0.676 -0.3016  0.8448  0.1708
   74MOL    H2422070   4.985   6.758   0.307 -0.2307 -1.4169  0.7145
   74MOL    H2522071   4.839   6.849   0.343  1.6089  2.2304 -1.8044
   74MOL    H2622072   4.944   6.517   0.603  0.2019 -0.5063  0.2630
   74MOL    H2722073   5.069   6.607   0.520 -0.6847  1.2191 -1.5481
   74MOL    H2822074   4.987   6.668   0.663 -1.1994  1.2783 -0.6192
   74MOL    H2922075   4.532   6.524   0.712  0.8368 -0.3039 -1.8275
   74MOL    H3022076   4.496   6.655   0.599  1.1875  1.2422 -1.0259
   74MOL    H3122077   4.550   6.693   0.757 -2.0280 -0.4544  1.0351
   74MOL    C3222078   4.841   6.562   0.368  0.3657  0.2688  0.3618
   74MOL    C3322079   4.742   6.586   0.249  0.2689 -0.1021 -0.3489
   74MOL    C3422080   4.603   6.646   0.292 -0.4812  0.3155  0.1372
   74MOL    C3522081   4.797   6.666   0.128  1.0401  0.2465  0.1224
   74MOL    O3622082   4.735   6.761   0.081  0.2974 -0.4785  0.9047
   74MOL    O3722083   4.918   6.632   0.089  0.3260 -0.0573 -0.4837
   74MOL    C3822084   4.990   6.719   7.874  0.1962  0.2387 -0.2805
   74MOL    H3922085   4.796   6.482   0.426 -1.0589  1.4331  0.8941
   74MOL    H4022086   4.937   6.523   0.334  0.1195 -0.8986  1.0013
   74MOL    H4122087   4.522   6.639   0.219  2.0695  1.4188 -2.9161
   74MOL    H4222088   4.571   6.601   0.386  0.4990 -0.0973  0.2785
   74MOL    H4322089   4.612   6.753   0.315  0.2160  0.9435 -2.8899
   74MOL    H4422090   4.949   6.716   7.773  0.3164 -0.3188 -0.3141
   74MOL    H4522091   5.096   6.702   7.856 -0.1219 -1.1508 -0.8731
   74MOL    H4622092   4.987   6.822   0.031  1.6233 -0.0342  0.6660
   74MOL    C4722093   4.714   6.436   0.203  0.2569  0.2166 -0.1117
   74MOL    C4822094   4.662   6.385   0.067 -0.0399 -1.0960  0.2602
   74MOL    C4922095   4.546   6.480   0.019 -0.1409 -0.4271 -0.1588
   74MOL    C5022096   4.769   6.378   7.831  0.0527 -0.2466 -0.1431
   74MOL    O5122097   4.887   6.379   7.866  0.0907  0.0989  0.4471
   74MOL    O5222098   4.726   6.370   7.711 -0.3160  0.3062  0.0750
   74MOL    C5322099   4.817   6.368   7.608 -0.2761 -0.1600 -0.8473
   74MOL    H5422100   4.638   6.397   0.271  0.0153 -1.3763 -1.2661
   74MOL    H5522101   4.803   6.375   0.220 -0.5592 -1.5706 -1.9650
   74MOL    H5622102   4.584   6.575   7.859  0.5437 -0.2637  0.9267
   74MOL    H5722103   4.477   6.435   7.825  0.2591 -1.3866  0.0561
   74MOL    H5822104   4.486   6.495   0.109 -0.4103  0.8563 -0.5373
   74MOL    H5922105   4.774   6.403   7.515 -0.3499  1.8510 -0.0694
   74MOL    H6022106   4.859   6.267   7.605  1.3933  0.4526  0.8671
   74MOL    H6122107   4.901   6.431   7.636 -0.3921 -0.4748  0.2511
   74MOL    C6222108   4.589   6.239   0.091 -0.3677  0.1421 -0.7504
   74MOL    C6322109   4.654   6.125   0.167  0.2852  0.3093 -0.1986
   74MOL    C6422110   4.805   6.098   0.126  0.5820 -0.3215  0.0771
   74MOL    C6522111   4.645   6.142   0.328  0.2730 -0.2677  0.0591
   74MOL    O6622112   4.555   6.206   0.382 -0.7980  0.5280 -0.1208
   74MOL    O6722113   4.739   6.077   0.393  0.0811  0.5431  0.1918
   74MOL    C6822114   4.740   6.076   0.532 -0.0511 -0.1649  0.6280
   74MOL    H6922115   4.545   6.212   7.872 -3.1271 -0.2692  0.5771
   74MOL    H7022116   4.494   6.251   0.142 -1.0419 -2.0656 -1.4289
   74MOL    H7122117   4.851   6.006   0.161  1.6299  0.2909  0.3157
   74MOL    H7222118   4.803   6.098   0.017 -0.4984 -3.0610  0.0743
   74MOL    H7322119   4.867   6.183   0.156 -0.4964  0.3177  0.5714
   74MOL    H7422120   4.662   6.136   0.580 -0.6413  0.1838 -0.7354
   74MOL    H7522121   4.837   6.114   0.563 -1.5801  2.8643  2.0186
   74MOL    H7622122   4.756   5.973   0.562  2.2170 -0.2589 -0.8019
   74MOL    C7722123   4.594   5.984   0.133  0.9923 -0.2306 -0.2851
   74MOL    C7822124   4.444   5.937   0.103 -0.5529 -0.0455 -0.1894
   74MOL    C7922125   4.350   5.987   0.221  0.5044  0.4077  0.1883
   74MOL    C8022126   4.403   6.008   7.849 -0.5088 -0.2717  0.5484
   74MOL    O8122127   4.308   6.088   7.843 -0.0914 -0.5103 -0.5024
   74MOL    O8222128   4.489   5.989   7.747  0.3148  0.2753  1.0419
   74MOL    C8322129   4.471   6.060   7.621  0.0020 -0.6660 -0.0307
   74MOL    H8422130   4.631   5.921   0.214 -0.5045  1.5972  1.8745
   74MOL    H8522131   4.648   5.939   0.049 -0.9805 -1.2987 -1.0275
   74MOL    H8622132   4.363   6.093   0.244  1.2232  0.7568 -1.7843
   74MOL    H8722133   4.248   5.967   0.186  1.4083 -4.4241 -0.1012
   74MOL    H8822134   4.361   5.925   0.311 -0.2186 -1.8013 -1.1992
   74MOL    H8922135   4.552   6.042   7.551  0.5484  1.6584 -0.0571
   74MOL    H9022136   4.469   6.169   7.631  1.1566 -0.6687  0.2473
   74MOL    H9122137   4.389   6.033   7.554  0.5748  2.1427 -1.9694
   74MOL    C9222138   4.443   5.783   0.081  0.2876 -0.7599  0.9480
   74MOL    C9322139   4.305   5.700   0.064 -0.3180  0.7568 -0.0645
   74MOL    C9422140   4.347   5.560   0.018  0.4447 -0.8742  0.3431
   74MOL    C9522141   4.239   5.679   0.199  0.9471 -0.1046 -0.4649
   74MOL    O9622142   4.131   5.728   0.229  0.5665  0.4566  0.7155
   74MOL    O9722143   4.321   5.603   0.282  0.2944  0.3957  0.1033
   74MOL    C9822144   4.277   5.596   0.423 -0.3020  0.1664 -0.2827
   74MOL    H9922145   4.512   5.743   0.155  0.2101 -1.8713  0.4301
   74MOL   H10022146   4.506   5.751   7.876  2.3137 -0.9039  2.5119
   74MOL   H10122147   4.395   5.575   7.799  0.0632  1.4442  0.4733
   74MOL   H10222148   4.416   5.518   0.090  0.8673 -1.0239 -0.1482
   74MOL   H10322149   4.269   5.484   0.013  0.0078 -0.3789 -0.6936
   74MOL   H10422150   4.316   5.683   0.475  0.7844 -1.2982  1.4029
   74MOL   H10522151   4.316   5.508   0.474  1.9145  0.5386 -1.2777
   74MOL   H10622152   4.170   5.602   0.445  0.2325  2.8890  1.8896
   74MOL   C10722153   4.210   5.758   7.830 -0.2595  0.2312  1.6249
   74MOL   C10822154   4.093   5.693   7.753  0.2388 -0.0658  0.0370
   74MOL   C10922155   4.155   5.583   7.660  0.6390 -0.2446  0.2732
   74MOL   C11022156   3.988   5.626   7.849 -0.4319 -0.8284  0.6147
   74MOL   O11122157   3.970   5.504   7.848  0.3802 -0.0405  0.1429
   74MOL   O11222158   3.908   5.720   0.035  0.0379 -0.5615 -0.3158
   74MOL   C11322159   3.806   5.668   0.115  0.5271  0.1431  0.2570
   74MOL   H11422160   4.281   5.801   7.759  0.7897  0.3638  2.7296
   74MOL   H11522161   4.158   5.838   0.004 -0.7465  0.6487  0.5019
   74MOL   H11622162   4.177   5.490   7.713  0.3646 -1.0960 -1.0905
   74MOL   H11722163   4.079   5.556   7.586 -0.5210  0.8755  1.0284
   74MOL   H11822164   4.236   5.622   7.599 -0.7313  0.9273 -0.8287
   74MOL   H11922165   3.742   5.755   0.132  0.0548 -0.1103 -0.2381
   74MOL   H12022166   3.849   5.626   0.206 -0.2210 -0.4165  0.3520
   74MOL   H12122167   3.741   5.603   0.058 -0.4383 -0.1773  1.7038
   74MOL   C12222168   4.024   5.817   7.672 -0.2096 -0.1557  0.3678
   74MOL   C12322169   3.923   5.806   7.552 -0.1106 -0.2603 -0.0954
   74MOL   C12422170   4.003   5.787   7.419  0.1071 -0.6387  0.1309
   74MOL   C12522171   3.827   5.681   7.568  0.5727 -0.0874  0.4104
   74MOL   O12622172   3.841   5.579   7.500 -0.3501 -0.1526  0.0278
   74MOL   O12722173   3.746   5.693   7.665  0.3457  0.0860  0.5070
   74MOL   C12822174   3.649   5.590   7.700 -0.2856 -0.1058  0.2322
   74MOL   H12922175   4.104   5.872   7.623 -1.3930  1.8531  0.6078
   74MOL   H13022176   3.995   5.890   7.748  0.1230 -0.2115  0.5509
   74MOL   H13122177   3.945   5.776   7.328  0.9953 -0.9560 -0.4044
   74MOL   H13222178   4.069   5.873   7.405  1.0898 -1.6018 -1.1858
   74MOL   H13322179   4.067   5.700   7.433  0.2930 -0.4960  0.1723
   74MOL   H13422180   3.571   5.631   7.765  1.4002  1.9457  1.0505
   74MOL   H13522181   3.697   5.504   7.747 -0.1152  0.9127  1.9610
   74MOL   H13622182   3.611   5.553   7.605  1.0465 -0.8952  0.0031
   74MOL   C13722183   3.836   5.945   7.549 -0.1039 -0.2372 -0.4446
   74MOL   C13822184   3.745   5.992   7.426 -0.6332  0.6136 -0.0048
   74MOL   C13922185   3.845   6.049   7.320  0.2439 -0.2085  0.3382
   74MOL   C14022186   3.663   5.879   7.367  0.0574  0.2468 -0.5358
   74MOL   O14122187   3.669   5.842   7.250 -0.2299 -0.4716 -0.4211
   74MOL   O14222188   3.574   5.832   7.459 -0.0795 -0.0851  0.2296
   74MOL   C14322189   3.473   5.739   7.430 -0.0140 -0.0453 -0.2260
   74MOL   H14422190   3.903   6.026   7.576 -0.7640  0.1069  0.1743
   74MOL   H14522191   3.766   5.939   7.633  0.6850  1.2364  0.3330
   74MOL   H14622192   3.897   6.136   7.360  0.9585  0.0223 -1.0786
   74MOL   H14722193   3.916   5.975   7.284  0.2877 -0.4159  0.8486
   74MOL   H14822194   3.790   6.066   7.227 -1.0881 -0.9411  0.9803
   74MOL   H14922195   3.440   5.701   7.527 -0.8252  0.8574 -0.1400
   74MOL   H15022196   3.512   5.652   7.378 -1.2985  0.1070 -1.4654
   74MOL   H15122197   3.388   5.774   7.371 -2.0529 -4.7690 -0.3171
   74MOL   C15222198   3.661   6.114   7.477 -0.0719 -0.2880 -0.2941
   74MOL   C15322199   3.577   6.215   7.385  0.1033 -0.1480 -0.0179
   74MOL   C15422200   3.487   6.289   7.482  0.1898  0.2400 -0.2560
   74MOL   C15522201   3.676   6.317   7.319  0.6966  0.5949  0.1618
   74MOL   O15622202   3.722   6.307   7.206  0.7133  0.1744 -0.0440
   74MOL   O15722203   3.710   6.416   7.399 -0.2789  0.9708 -0.0729
   74MOL   C15822204   3.820   6.504   7.362  0.4012 -0.5684 -0.0777
   74MOL   H15922205   3.724   6.171   7.546  1.2540 -1.8259 -0.2178
   74MOL   H16022206   3.599   6.073   7.557  0.1715  1.7794  0.9798
   74MOL   H16122207   3.540   6.334   7.566 -1.6113 -0.1997  1.1674
   74MOL   H16222208   3.449   6.385   7.446  0.9188  1.3272  1.7628
   74MOL   H16322209   3.407   6.225   7.519 -0.0799  0.5690 -0.2558
   74MOL   H16422210   3.907   6.459   7.410  0.2459  0.3659  1.0733
   74MOL   H16522211   3.808   6.608   7.391  3.0956  0.0134 -0.9613
   74MOL   H16622212   3.834   6.505   7.253  2.6429  0.8779  0.1922
   74MOL   C16722213   3.502   6.136   7.272  0.2945 -0.1346  0.5039
   74MOL   C16822214   3.384   6.183   7.174  0.4321 -0.1865  0.4604
   74MOL   C16922215   3.261   6.225   7.259  0.0112  0.4575 -0.0707
   74MOL   C17022216   3.424   6.304   7.082 -0.2719 -0.2339 -0.1297
   74MOL   O17122217   3.374   6.415   7.085 -0.0540  0.2678  0.1932
   74MOL   O17222218   3.537   6.274   7.017 -0.4751  0.6911 -0.1248
   74MOL   C17322219   3.602   6.370   6.945  0.2868  0.4211 -0.0686
   74MOL   H17422220   3.449   6.057   7.326 -1.5659  0.4713 -0.3646
   74MOL   H17522221   3.574   6.089   7.206 -0.1731  1.2650 -1.0165
   74MOL   H17622222   3.291   6.301   7.331 -2.9450 -0.3887  2.1257
   74MOL   H17722223   3.173   6.262   7.206 -0.4461  0.7871  0.9029
   74MOL   H17822224   3.241   6.157   7.342  0.9150  0.7100  0.3601
   74MOL   H17922225   3.646   6.452   7.003 -0.0541  0.6047 -0.0732
   74MOL   H18022226   3.530   6.422   6.883  0.0725  0.5632  0.2986
   74MOL   H18122227   3.667   6.337   6.864 -2.1227 -1.9962 -1.0791
   74MOL   C18222228   3.337   6.055   7.093 -0.0715 -0.3296  0.0544
   74MOL   C18322229   3.233   6.055   6.971  0.2427  0.0869 -0.2809
   74MOL   C18422230   3.097   6.124   7.012 -0.6153  0.1095 -0.0483
   74MOL   C18522231   3.293   6.126   6.852  0.2556  0.0584  0.5076
   74MOL   O18622232   3.235   6.215   6.789  0.4036  0.5960  0.0721
   74MOL   O18722233   3.419   6.091   6.820  0.0909 -0.4546 -0.3525
   74MOL   C18822234   3.481   6.149   6.706 -0.4203  0.7720 -0.0950
   74MOL   H18922235   3.308   5.990   7.176 -2.2133  0.2635 -0.2046
   74MOL   H19022236   3.427   6.002   7.063  0.0521  0.8069 -1.6446
   74MOL   H19122237   3.108   6.232   7.023  2.6492 -0.4800  3.1288
   74MOL   H19222238   3.020   6.116   6.935 -2.0119 -0.4719  1.3772
   74MOL   H19322239   3.053   6.068   7.095 -0.7089  0.6895  0.2959
   74MOL   H19422240   3.498   6.257   6.713 -1.9336  0.9924  0.6485
   74MOL   H19522241   3.417   6.132   6.620 -0.2692  0.5990 -0.1717
   74MOL   H19622242   3.579   6.104   6.690 -0.8038  0.6043 -2.0216
   74MOL   C19722243   3.203   5.902   6.949 -0.1721  0.0049 -1.0397
   74MOL   C19822244   3.148   5.841   6.809 -0.6366  0.3558 -0.6940
   74MOL   C19922245   3.027   5.921   6.749  0.3826  0.7726 -0.2311
   74MOL   C20022246   3.270   5.843   6.708  0.3153 -0.1536  1.0857
   74MOL   O20122247   3.266   5.916   6.615  0.1933  0.1289 -0.3604
   74MOL   O20222248   3.375   5.768   6.743  0.3113 -0.0863  0.2446
   74MOL   C20322249   3.488   5.751   6.664 -0.6138 -0.6946  0.8300
   74MOL   H20422250   3.140   5.875   7.034  1.7240 -0.2007  0.3208
   74MOL   H20522251   3.293   5.845   6.970 -0.5732 -1.5927 -3.5036
   74MOL   H20622252   3.008   5.885   6.648 -2.1954 -2.8143  1.4162
   74MOL   H20722253   2.933   5.910   6.803 -0.0647  1.2888 -0.8857
   74MOL   H20822254   3.048   6.028   6.742 -0.7407  1.1743  1.8683
   74MOL   H20922255   3.578   5.743   6.725  0.5495  1.0411 -0.6012
   74MOL   H21022256   3.495   5.824   6.583  1.7972 -2.7620 -0.9211
   74MOL   H21122257   3.483   5.651   6.620  0.8926 -0.1446 -0.6586
   74MOL   C21222258   3.115   5.685   6.815  0.4595  0.1579 -0.0170
   74MOL   C21322259   2.992   5.627   6.892 -0.0248  0.4307 -0.3853
   74MOL   C21422260   3.026   5.480   6.904 -0.2774 -1.3174 -0.1665
   74MOL   C21522261   2.971   5.689   7.034  0.7103 -0.3790  0.0457
   74MOL   O21622262   2.912   5.797   7.040 -0.0141 -0.1459  0.0077
   74MOL   O21722263   3.060   5.648   7.140  0.0675 -0.3183  0.1774
   74MOL   C21822264   3.039   5.708   7.261 -0.6414 -0.3704 -0.2733
   74MOL   H21922265   3.204   5.629   6.843  0.9038  0.5972 -0.5447
   74MOL   H22022266   3.099   5.659   6.710 -0.6028  0.8058 -0.0156
   74MOL   H22122267   3.125   5.449   6.938 -0.1893  0.2226  1.0031
   74MOL   H22222268   2.981   5.424   6.985 -1.5395  0.6533  0.5161
   74MOL   H22322269   3.010   5.418   6.816 -1.9433 -1.3395  0.1399
   74MOL   H22422270   2.935   5.693   7.290 -1.2034  1.9806 -0.9299
   74MOL   H22522271   3.074   5.811   7.261  1.3063 -1.0118  0.0278
   74MOL   H22622272   3.098   5.650   7.331  0.1844  1.8037  0.8804
   74MOL   C22722273   2.864   5.619   6.807 -0.1149 -0.6962 -0.3823
   74MOL   C22822274   2.720   5.555   6.846  0.3042 -0.6760 -0.3074
   74MOL   C22922275   2.730   5.405   6.872  0.0303 -0.0233  0.5750
   74MOL   C23022276   2.654   5.647   6.959 -0.0389 -0.4802  0.0037
   74MOL   O23122277   2.651   5.612   7.074 -1.0468 -0.4343 -0.2639
   74MOL   O23222278   2.608   5.770   6.920  0.1582 -0.5573 -0.0382
   74MOL   C23322279   2.520   5.846   6.998 -0.6659  0.1687 -0.4019
   74MOL   H23422280   2.896   5.579   6.711  1.0401  2.9390 -1.5967
   74MOL   H23522281   2.841   5.723   6.784 -1.1924 -0.8735 -0.1565
   74MOL   H23622282   2.780   5.375   6.964  0.3757 -1.2447 -0.0078
   74MOL   H23722283   2.635   5.352   6.874  0.4494 -0.9592 -2.2431
   74MOL   H23822284   2.779   5.349   6.793  2.3298  0.5590  1.5257
   74MOL   H23922285   2.492   5.808   7.096 -1.0473 -0.6360 -0.8188
   74MOL   H24022286   2.426   5.853   6.942 -0.7854 -1.1649 -0.3769
   74MOL   H24122287   2.565   5.945   7.008  0.6680 -0.5452  0.9611
   74MOL   C24222288   2.646   5.574   6.706  0.3367 -0.0123  0.6054
   74MOL   C24322289   2.498   5.522   6.683 -0.3050 -0.7445 -1.3906
   74MOL   C24422290   2.415   5.537   6.818 -0.1974  0.3004 -0.7980
   74MOL   C24522291   2.440   5.623   6.582 -0.5763 -0.2060  0.4914
   74MOL   O24622292   2.346   5.702   6.608  0.0998  0.5980 -0.2010
   74MOL   O24722293   2.502   5.608   6.468 -0.1802 -0.3455  0.2106
   74MOL   C24822294   2.448   5.666   6.352  0.7891 -0.3755  0.1890
   74MOL   H24922295   2.700   5.528   6.623  0.0966  0.6275  0.0888
   74MOL   H25022296   2.651   5.682   6.691 -0.4321 -0.0955 -0.2974
   74MOL   H25122297   2.448   5.483   6.907 -1.1490 -1.0203 -1.2316
   74MOL   H25222298   2.401   5.641   6.845  0.0137  0.6329 -1.9846
   74MOL   H25322299   2.307   5.523   6.810 -0.1004 -1.6189  0.7134
   74MOL   H25422300   2.517   5.637   6.272 -0.3924 -1.2698 -0.5310
   74MOL   H25522301   2.440   5.774   6.347  2.3706 -0.2553 -0.0258
   74MOL   H25622302   2.361   5.602   6.337  1.1528 -0.9523  0.5320
   74MOL   C25722303   2.505   5.380   6.623  0.6252  0.4256  0.3550
   74MOL   C25822304   2.395   5.270   6.639 -0.2075 -0.7056  0.2119
   74MOL   C25922305   2.418   5.206   6.781  0.5486  0.1265  0.2974
   74MOL   C26022306   2.251   5.328   6.629  0.1383 -0.6164  0.5774
   74MOL   O26122307   2.174   5.326   6.727 -0.0241  0.3398 -0.3577
   74MOL   O26222308   2.229   5.388   6.511 -0.0682 -0.2951 -0.1682
   74MOL   C26322309   2.110   5.464   6.491  0.2062 -0.1661  0.2873
   74MOL   H26422310   2.591   5.327   6.661  0.3194  0.3834  0.9897
   74MOL   H26522311   2.521   5.389   6.515 -2.6302  1.7281 -0.0857
   74MOL   H26622312   2.508   5.146   6.795  1.1750  1.1197  0.5432
   74MOL   H26722313   2.425   5.277   6.864 -0.1017 -1.6896  1.9491
   74MOL   H26822314   2.341   5.142   6.825  0.2761 -0.0191 -0.3849
   74MOL   H26922315   2.102   5.520   6.398 -0.4550  0.3883  0.6662
   74MOL   H27022316   2.102   5.546   6.563 -1.1943 -1.7785  2.0033
   74MOL   H27122317   2.012   5.421   6.507  0.5571 -0.4258  1.8501
   74MOL   C27222318   2.415   5.168   6.522 -0.2824  0.6270 -0.7021
   74MOL   C27322319   2.327   5.034   6.499 -0.0262 -0.6308  0.6453
   74MOL   C27422320   2.395   4.946   6.389  0.0064 -0.1022 -0.0946
   74MOL   C27522321   2.318   4.951   6.634 -1.0787 -0.0690  0.7518
   74MOL   O27622322   2.221   4.942   6.705  0.2312  0.2404  0.0170
   74MOL   O27722323   2.434   4.884   6.655 -0.0978  0.4677  0.0377
   74MOL   C27822324   2.460   4.804   6.770 -0.1509  0.1620  0.1392
   74MOL   H27922325   2.517   5.134   6.540 -0.0293  1.5003 -0.4555
   74MOL   H28022326   2.415   5.221   6.427  1.6995  1.2193 -0.4005
   74MOL   H28122327   2.502   4.935   6.409 -0.3620 -1.6493  1.1629
   74MOL   H28222328   2.357   4.845   6.370  0.4678  0.0802 -2.1404
   74MOL   H28322329   2.387   4.984   6.287 -0.8406  2.2997  0.8506
   74MOL   H28422330   2.564   4.772   6.772 -0.3451 -0.5212 -0.5666
   74MOL   H28522331   2.399   4.714   6.775 -0.6599  0.5228  0.4062
   74MOL   H28622332   2.453   4.862   6.862 -3.1944  2.2833 -1.3599
   74MOL   C28722333   2.175   5.057   6.445  0.2616  0.4118 -0.3171
   74MOL   C28822334   2.085   4.932   6.433  0.2482 -0.8361 -0.1848
   74MOL   C28922335   1.932   4.976   6.444  0.5060 -0.3458 -0.1743
   74MOL   C29022336   2.101   4.853   6.300  0.2114 -0.3577 -0.2027
   74MOL   O29122337   2.108   4.728   6.297  0.1679 -0.0855 -0.5607
   74MOL   O29222338   2.121   4.926   6.191 -0.1199 -0.1354 -0.4945
   74MOL   C29322339   2.113   4.861   6.066 -1.1486  0.0132 -0.3703
   74MOL   H29422340   2.193   5.113   6.353  1.4174  2.0104  0.8410
   74MOL   H29522341   2.123   5.130   6.507  0.5114  1.7905 -1.7094
   74MOL   H29622342   1.899   5.023   6.351  0.1792 -0.4140 -0.0947
   74MOL   H29722343   1.866   4.891   6.464  1.5427 -0.6583  2.0122
   74MOL   H29822344   1.914   5.052   6.520  0.9534  0.5109 -0.9239
   74MOL   H29922345   2.172   4.771   6.055 -3.1110 -1.3008 -0.4301
   74MOL   H30022346   2.129   4.937   5.990  1.5582  0.3595  0.4833
   74MOL   H30122347   2.009   4.828   6.059 -0.6792 -1.8787  1.1275
   74MOL   H30222348   2.104   4.868   6.519 -1.4678  0.6222  1.3343
   75MOL     C122349   2.203   7.854   4.803  0.0765  0.0426  0.3332
   75MOL     C222350   2.125   7.719   4.822 -0.7081 -0.1239 -0.1129
   75MOL     C322351   2.233   7.613   4.858  0.2859  0.1865  0.4506
   75MOL     C422352   2.041   7.730   4.954  0.1348 -0.7812 -0.9674
   75MOL     O522353   2.027   7.634   5.039 -0.5871  0.6998 -0.3915
   75MOL     O622354   1.996   7.861   4.986  0.1393 -0.5236  0.1065
   75MOL     C722355   1.937   0.002   5.117 -0.5786  0.9010  1.7213
   75MOL     H822356   2.240   0.020   4.896 -0.5983 -0.3859  0.8058
   75MOL     H922357   2.280   7.851   4.725 -1.4244 -0.3219 -1.1740
   75MOL    H1022358   2.181   7.523   4.891  0.9205 -0.1958  0.3977
   75MOL    H1122359   2.287   7.597   4.765 -3.3888  0.6682 -1.8616
   75MOL    H1222360   2.306   7.653   4.928 -0.5657  1.5432  0.5892
   75MOL    H1322361   1.870   7.798   5.146  0.6302  0.0802  2.2222
   75MOL    H1422362   1.893   0.102   5.126 -1.4293  0.5704  1.3510
   75MOL    H1522363   2.023   7.867   5.182  1.3644 -0.2036 -0.9646
   75MOL    H1622364   2.137   0.055   4.765 -2.6771 -2.5868 -0.5233
   75MOL    C1722365   2.039   7.664   4.698 -0.1892  0.5501 -0.2782
   75MOL    C1822366   1.901   7.723   4.648 -0.9237 -0.0443  0.1974
   75MOL    C1922367   1.793   7.720   4.753 -0.3365 -0.0924 -0.3978
   75MOL    C2022368   1.918   7.870   4.604 -0.1591  0.4694 -0.6856
   75MOL    O2122369   1.845   0.082   4.639  0.4195  0.1238  0.5526
   75MOL    O2222370   2.024   0.005   4.528 -0.4174 -0.1532 -0.3302
   75MOL    C2322371   2.046   0.133   4.460 -0.3211 -0.4111  0.4073
   75MOL    H2422372   2.012   7.561   4.724 -1.0807  0.9650  0.4628
   75MOL    H2522373   2.104   7.651   4.612 -0.6678 -0.3274 -0.5187
   75MOL    H2622374   1.816   7.801   4.822  0.4373  0.7536 -1.6413
   75MOL    H2722375   1.700   7.759   4.715 -2.5949 -2.3614  2.5059
   75MOL    H2822376   1.783   7.628   4.811  0.8645  0.5263  0.8505
   75MOL    H2922377   2.046   0.215   4.531 -0.4794  0.2278 -0.3265
   75MOL    H3022378   1.972   0.141   4.380  1.5220 -0.1696 -1.3291
   75MOL    H3122379   2.149   0.131   4.423  0.1459  1.4764  1.5375
   75MOL    C3222380   1.853   7.663   4.508  0.1107  1.4982  0.0261
   75MOL    C3322381   1.800   7.514   4.484  0.1077  0.3466 -0.1483
   75MOL    C3422382   1.920   7.411   4.502  0.0281 -0.4199 -0.0553
   75MOL    C3522383   1.689   7.485   4.586 -0.0909 -0.5626  0.4323
   75MOL    O3622384   1.691   7.382   4.665  0.2416  0.4943  0.2799
   75MOL    O3722385   1.582   7.563   4.575  0.3109 -0.2436 -0.1291
   75MOL    C3822386   1.476   7.546   4.664 -0.6122 -0.0117 -0.3742
   75MOL    H3922387   1.936   7.675   4.439 -0.6836  0.7547 -1.0747
   75MOL    H4022388   1.774   7.727   4.466 -0.1962 -0.6475 -2.8396
   75MOL    H4122389   1.997   7.442   4.431  1.2442  0.2858  1.5409
   75MOL    H4222390   1.957   7.408   4.604  0.7477  0.7563 -0.2733
   75MOL    H4322391   1.884   7.310   4.482 -1.2622 -0.5819  2.9339
   75MOL    H4422392   1.393   7.600   4.620  0.0238  2.6189  1.5294
   75MOL    H4522393   1.499   7.591   4.761 -0.9232  0.5627 -0.5692
   75MOL    H4622394   1.440   7.444   4.673 -1.9146  0.3985 -0.8086
   75MOL    C4722395   1.746   7.511   4.333  0.2966 -0.3351 -0.6431
   75MOL    C4822396   1.734   7.388   4.237 -0.0823  0.0385 -0.2290
   75MOL    C4922397   1.880   7.342   4.205  0.0250 -0.6421  0.3948
   75MOL    C5022398   1.653   7.274   4.303 -0.2919 -0.2267  0.2635
   75MOL    O5122399   1.687   7.159   4.296  0.4969 -0.1087 -0.4942
   75MOL    O5222400   1.544   7.322   4.370 -0.1164 -0.5417  0.4439
   75MOL    C5322401   1.473   7.246   4.461 -0.0072  0.1801 -0.2924
   75MOL    H5422402   1.804   7.592   4.289  0.9556  0.0070  0.8197
   75MOL    H5522403   1.649   7.560   4.336  1.5268  2.1429  1.8240
   75MOL    H5622404   1.900   7.276   4.120 -1.3405 -2.5142  1.5002
   75MOL    H5722405   1.949   7.425   4.191  0.6830 -1.4096 -1.0741
   75MOL    H5822406   1.932   7.277   4.276  0.4566  0.4746  1.1042
   75MOL    H5922407   1.430   7.306   4.541 -2.6364 -0.2185 -1.3734
   75MOL    H6022408   1.545   7.175   4.503 -1.3173 -0.8958  0.1771
   75MOL    H6122409   1.405   7.183   4.404 -1.6175 -0.1754  1.9754
   75MOL    C6222410   1.658   7.445   4.118  0.6594 -0.4258  0.5281
   75MOL    C6322411   1.650   7.381   3.972  0.6397  0.4701 -0.3127
   75MOL    C6422412   1.518   7.437   3.909 -0.1791  0.4534  0.0255
   75MOL    C6522413   1.767   7.442   3.890 -0.3164  0.0629  0.4422
   75MOL    O6622414   1.742   7.537   3.816 -0.0416  0.1299 -0.4186
   75MOL    O6722415   1.891   7.394   3.914 -0.4250  0.0681 -0.5030
   75MOL    C6822416   2.010   7.441   3.850  0.1795  0.0261  0.6663
   75MOL    H6922417   1.696   7.545   4.096  1.0238 -1.0183 -1.6886
   75MOL    H7022418   1.558   7.460   4.159  2.0641  1.6838  3.3975
   75MOL    H7122419   1.504   7.541   3.939 -2.5941 -0.4214  2.1746
   75MOL    H7222420   1.511   7.430   3.801 -1.0242 -0.4943  0.1376
   75MOL    H7322421   1.427   7.385   3.939 -0.3634  0.4891 -0.4637
   75MOL    H7422422   2.021   7.418   3.744 -1.4878 -0.0564  0.5010
   75MOL    H7522423   2.098   7.406   3.904  0.5422  2.0359  1.3995
   75MOL    H7622424   2.032   7.547   3.849 -2.2509  0.5701 -2.1709
   75MOL    C7722425   1.649   7.225   3.977 -0.1111  0.1927  0.5895
   75MOL    C7822426   1.659   7.127   3.850  0.2792  1.2687  0.3873
   75MOL    C7922427   1.625   6.983   3.915 -0.0070  0.0207 -0.6376
   75MOL    C8022428   1.548   7.162   3.754 -0.1083 -0.1517  0.5126
   75MOL    O8122429   1.442   7.100   3.763  0.1020 -0.6071 -0.6939
   75MOL    O8222430   1.583   7.252   3.665 -0.7018 -0.4491  0.1726
   75MOL    C8322431   1.490   7.295   3.571 -0.3728 -0.1766 -0.2351
   75MOL    H8422432   1.560   7.194   4.032 -0.0525 -0.4712  0.3139
   75MOL    H8522433   1.730   7.204   4.047  0.9845  0.5922 -0.5406
   75MOL    H8622434   1.531   6.984   3.970  1.1874  0.4404  1.4288
   75MOL    H8722435   1.603   6.910   3.837  1.2062  1.2318 -2.1403
   75MOL    H8822436   1.704   6.947   3.980 -1.8618 -0.4086  1.4475
   75MOL    H8922437   1.411   7.231   3.534 -1.9689  0.6641  1.6162
   75MOL    H9022438   1.559   7.322   3.491  0.4857 -0.4478  0.3978
   75MOL    H9122439   1.448   7.385   3.615 -1.9963 -0.4199 -1.2660
   75MOL    C9222440   1.802   7.127   3.801 -0.1139 -0.1460  0.5095
   75MOL    C9322441   1.874   7.019   3.711  0.8987 -0.2792 -0.3102
   75MOL    C9422442   1.872   6.871   3.764  0.0115 -0.3288  0.2315
   75MOL    C9522443   1.812   7.018   3.573  0.1762  0.4804 -0.0074
   75MOL    O9622444   1.757   6.919   3.521  0.9146 -0.1706  0.4783
   75MOL    O9722445   1.806   7.140   3.514  0.1604  0.3456  0.4141
   75MOL    C9822446   1.761   7.157   3.376 -0.1180  0.0455 -0.2178
   75MOL    H9922447   1.869   7.124   3.887  0.5965  1.2749  0.0194
   75MOL   H10022448   1.811   7.229   3.763  0.8263 -0.6836 -0.7283
   75MOL   H10122449   1.915   6.793   3.700 -0.4793 -1.8083  1.6614
   75MOL   H10222450   1.917   6.862   3.862  1.6318 -0.1324 -0.4768
   75MOL   H10322451   1.770   6.835   3.748 -0.4189  1.2327 -0.5892
   75MOL   H10422452   1.816   7.229   3.316 -2.1949  2.3630  0.5682
   75MOL   H10522453   1.661   7.200   3.364 -1.0587 -2.1822 -0.7486
   75MOL   H10622454   1.755   7.066   3.315 -1.3811  0.6843 -1.0703
   75MOL   C10722455   2.021   7.065   3.703 -0.2687  0.2075 -0.3703
   75MOL   C10822456   2.132   7.018   3.596  0.4399 -0.6546 -0.7459
   75MOL   C10922457   2.120   6.873   3.564 -0.1447 -0.8054  0.7136
   75MOL   C11022458   2.114   7.112   3.476  0.2220  0.1859 -0.2694
   75MOL   O11122459   2.110   7.233   3.491  0.0528 -0.3840 -0.3329
   75MOL   O11222460   2.112   7.045   3.361 -0.1993 -0.0053 -0.1640
   75MOL   C11322461   2.100   7.120   3.235 -0.7144 -0.6656  0.2441
   75MOL   H11422462   2.068   7.040   3.798  0.8552 -2.6847 -1.6057
   75MOL   H11522463   2.020   7.174   3.705  2.7010  0.2977 -0.3816
   75MOL   H11622464   2.131   6.817   3.657  0.9285 -1.3600  0.2546
   75MOL   H11722465   2.023   6.843   3.523  0.9819 -0.6183 -2.1985
   75MOL   H11822466   2.197   6.837   3.496  0.9888  3.2208 -0.2704
   75MOL   H11922467   2.199   7.154   3.206 -1.4175  0.7826 -0.5140
   75MOL   H12022468   2.030   7.204   3.241  0.6162  0.5145 -0.5729
   75MOL   H12122469   2.064   7.055   3.155  1.2859 -0.0066 -1.2295
   75MOL   C12222470   2.265   7.052   3.670  0.0998  0.1264 -0.7681
   75MOL   C12322471   2.412   7.038   3.612 -0.1105  0.4105  0.1218
   75MOL   C12422472   2.504   7.086   3.727 -0.4481  0.4352 -0.3673
   75MOL   C12522473   2.441   6.887   3.591  0.3454  0.2212  0.1397
   75MOL   O12622474   2.484   6.838   3.487 -0.1057  0.2330 -0.3054
   75MOL   O12722475   2.411   6.811   3.698  0.3272 -0.5548  0.1411
   75MOL   C12822476   2.447   6.681   3.703  0.0776  0.2882  0.0972
   75MOL   H12922477   2.264   6.991   3.760 -0.2634 -2.5019 -2.4805
   75MOL   H13022478   2.270   7.156   3.702  0.3535 -0.4259  1.0310
   75MOL   H13122479   2.504   7.194   3.747  1.2628  0.3419  0.1521
   75MOL   H13222480   2.473   7.026   3.813 -1.7763 -0.9155 -1.7619
   75MOL   H13322481   2.608   7.056   3.719 -0.0316  1.0775  2.1799
   75MOL   H13422482   2.553   6.670   3.726  0.1150  2.2950  0.9273
   75MOL   H13522483   2.410   6.629   3.614  0.5299 -2.5707  1.5260
   75MOL   H13622484   2.396   6.632   3.787 -1.0129  1.1535 -0.0427
   75MOL   C13722485   2.436   7.121   3.482 -0.0299 -0.0142  0.6078
   75MOL   C13822486   2.575   7.173   3.431 -0.4958  0.0703  0.3826
   75MOL   C13922487   2.549   7.203   3.281 -0.8644 -0.4171  0.5815
   75MOL   C14022488   2.599   7.310   3.500 -0.0366  0.0264 -1.2249
   75MOL   O14122489   2.671   7.315   3.600  0.4887 -0.6690  0.2139
   75MOL   O14222490   2.532   7.416   3.443 -0.4522 -0.2334  0.2768
   75MOL   C14322491   2.559   7.547   3.485 -0.1761 -0.4887 -0.2463
   75MOL   H14422492   2.375   7.211   3.488 -1.5025 -0.8994 -0.7856
   75MOL   H14522493   2.395   7.061   3.401  0.3788 -0.8435  1.0081
   75MOL   H14622494   2.622   7.268   3.233 -2.8218  1.5503  0.1873
   75MOL   H14722495   2.545   7.109   3.224  1.5896  0.1375 -0.5821
   75MOL   H14822496   2.456   7.253   3.255 -0.6592 -0.4887 -0.3328
   75MOL   H14922497   2.534   7.624   3.412 -0.2214  0.6536  0.9446
   75MOL   H15022498   2.666   7.568   3.494 -0.1184  0.5404 -2.8094
   75MOL   H15122499   2.512   7.577   3.579  0.3238  3.4664 -1.1535
   75MOL   C15222500   2.704   7.082   3.450  0.2825  0.2715  0.6090
   75MOL   C15322501   2.845   7.092   3.376 -0.4721  0.0465 -0.3236
   75MOL   C15422502   2.820   7.042   3.229  0.1809 -0.1826  0.3815
   75MOL   C15522503   2.886   7.244   3.385  0.0706 -0.2657 -0.4051
   75MOL   O15622504   2.947   7.293   3.481  0.1483  0.3329 -0.0099
   75MOL   O15722505   2.849   7.320   3.274 -0.3923  0.0874  0.5409
   75MOL   C15822506   2.890   7.458   3.263  0.0058 -0.5680  0.6645
   75MOL   H15922507   2.668   6.980   3.441  2.0394 -0.4299  1.2653
   75MOL   H16022508   2.736   7.089   3.554 -0.6123 -0.9869  0.9860
   75MOL   H16122509   2.912   7.035   3.171 -0.3202  1.9341 -0.7290
   75MOL   H16222510   2.781   6.940   3.226  0.8436 -0.4270 -0.1904
   75MOL   H16322511   2.755   7.101   3.165  1.5675  1.4179  0.4153
   75MOL   H16422512   2.847   7.511   3.178 -1.0910 -2.1009  0.2398
   75MOL   H16522513   2.997   7.477   3.257 -0.0815  0.2698  1.6888
   75MOL   H16622514   2.851   7.502   3.355 -0.3489 -1.4868  0.9632
   75MOL   C16722515   2.947   6.999   3.458  0.1172  0.4243 -0.5553
   75MOL   C16822516   3.092   6.956   3.409 -0.0037 -0.8219 -0.5222
   75MOL   C16922517   3.172   7.073   3.331  0.3086 -0.1617  0.3184
   75MOL   C17022518   3.163   6.929   3.539 -0.2357  0.4892  0.3115
   75MOL   O17122519   3.278   6.980   3.562  0.1200 -0.4253 -0.6659
   75MOL   O17222520   3.098   6.844   3.620  0.1837 -0.0859 -0.8528
   75MOL   C17322521   3.166   6.812   3.743  0.1147  0.2427  0.1377
   75MOL   H17422522   2.889   6.911   3.489 -0.4075  0.4274 -1.5191
   75MOL   H17522523   2.958   7.043   3.557 -1.6382 -0.8679  0.2593
   75MOL   H17622524   3.276   7.043   3.325  0.1644 -0.3682 -1.1814
   75MOL   H17722525   3.124   7.089   3.234  2.3304 -0.8727 -0.8164
   75MOL   H17822526   3.161   7.167   3.385 -1.3206 -0.6461  0.8783
   75MOL   H17922527   3.261   6.762   3.728  0.3963  0.8174 -0.0220
   75MOL   H18022528   3.109   6.746   3.808  0.3487  0.7799  0.9010
   75MOL   H18122529   3.168   6.905   3.800 -3.2846  1.5992 -1.8384
   75MOL   C18222530   3.081   6.826   3.317  0.4233 -0.9711  0.0063
   75MOL   C18322531   3.186   6.776   3.216 -0.0784 -0.1811  0.2947
   75MOL   C18422532   3.178   6.870   3.092 -0.2402 -0.2990 -0.1050
   75MOL   C18522533   3.328   6.777   3.266  0.4103 -0.2233 -0.3105
   75MOL   O18622534   3.421   6.820   3.194 -0.3633 -0.2511  0.6615
   75MOL   O18722535   3.343   6.725   3.383 -0.0989 -0.1474 -0.4004
   75MOL   C18822536   3.469   6.717   3.436 -0.9993 -0.0083 -0.5049
   75MOL   H18922537   2.979   6.816   3.280  0.4531 -3.7002  0.6094
   75MOL   H19022538   3.084   6.748   3.393  0.1561  0.0308  1.0635
   75MOL   H19122539   3.183   6.823   2.994  1.1269  1.1097 -0.7264
   75MOL   H19222540   3.081   6.918   3.084  0.3050  0.6172 -1.3685
   75MOL   H19322541   3.252   6.949   3.086 -0.0189 -0.3897  1.2360
   75MOL   H19422542   3.530   6.640   3.390 -1.3652 -0.5664 -0.0575
   75MOL   H19522543   3.449   6.682   3.538  0.2791  0.0129 -0.2455
   75MOL   H19622544   3.518   6.814   3.432  0.4197 -0.6297  1.1283
   75MOL   C19722545   3.135   6.632   3.173  0.1738 -0.0494  0.2153
   75MOL   C19822546   3.211   6.522   3.085  0.9423 -0.3282 -0.6416
   75MOL   C19922547   3.291   6.589   2.970 -0.5117 -0.3953 -0.2148
   75MOL   C20022548   3.308   6.437   3.177 -0.7920 -0.4489 -0.2259
   75MOL   O20122549   3.306   6.435   3.300  0.2425  0.5457 -0.2530
   75MOL   O20222550   3.395   6.354   3.110 -0.2590  0.2559  0.8456
   75MOL   C20322551   3.498   6.283   3.172 -0.6359 -0.5659  0.1465
   75MOL   H20422552   3.041   6.651   3.122  0.9191 -0.8693 -1.4997
   75MOL   H20522553   3.106   6.587   3.268  0.9615  0.3933  0.6679
   75MOL   H20622554   3.362   6.664   3.006 -0.1039 -1.4953  1.3208
   75MOL   H20722555   3.343   6.511   2.914 -2.9746 -0.5767 -2.3139
   75MOL   H20822556   3.225   6.637   2.898  0.1845  2.4591  0.9724
   75MOL   H20922557   3.447   6.210   3.234  1.0806 -1.6704  0.2756
   75MOL   H21022558   3.550   6.348   3.242 -2.3431  0.2664  0.6665
   75MOL   H21122559   3.567   6.223   3.112 -2.3523 -2.7288  0.2972
   75MOL   C21222560   3.097   6.432   3.020 -0.0266  0.2367  0.4743
   75MOL   C21322561   2.958   6.366   3.080  0.1443 -0.3454  0.5051
   75MOL   C21422562   2.932   6.256   2.976  0.0049 -0.0249 -0.5367
   75MOL   C21522563   2.972   6.301   3.222 -0.0118 -0.2873  0.2132
   75MOL   O21622564   2.963   6.178   3.242  0.2453 -0.0656 -0.1296
   75MOL   O21722565   2.981   6.391   3.322  0.1479 -0.8302 -0.1566
   75MOL   C21822566   2.974   6.342   3.450 -0.3314  0.3123 -0.7012
   75MOL   H21922567   3.167   6.352   2.993  0.8551  0.2292  2.6639
   75MOL   H22022568   3.074   6.484   2.927 -0.0043  0.3772  0.5468
   75MOL   H22122569   2.920   6.284   2.871  0.7026 -1.8446 -1.1064
   75MOL   H22222570   3.010   6.180   2.975 -1.5846 -1.7120  0.7823
   75MOL   H22322571   2.849   6.189   2.997  0.4552 -0.5640 -0.4715
   75MOL   H22422572   2.876   6.295   3.463 -0.7575  0.9857 -1.4656
   75MOL   H22522573   2.987   6.404   3.538  0.2350  2.3154 -2.1644
   75MOL   H22622574   3.050   6.265   3.461  1.2107  1.6412 -1.8476
   75MOL   C22722575   2.835   6.459   3.067  0.5266 -0.8685  0.5315
   75MOL   C22822576   2.696   6.439   3.140 -0.3426 -0.0693 -0.1507
   75MOL   C22922577   2.652   6.289   3.148  0.0456 -0.7024 -0.1463
   75MOL   C23022578   2.692   6.494   3.287 -0.5631  0.4871  0.2119
   75MOL   O23122579   2.605   6.457   3.366  0.2638  0.2282 -0.1106
   75MOL   O23222580   2.780   6.584   3.317 -0.7279 -0.6087 -0.2853
   75MOL   C23322581   2.783   6.648   3.440  0.1170 -0.2322  0.2654
   75MOL   H23422582   2.809   6.465   2.961 -2.1152  3.8155  1.3049
   75MOL   H23522583   2.872   6.558   3.095 -0.6741 -0.5269  0.9249
   75MOL   H23622584   2.711   6.234   3.222  0.4414 -0.6606 -0.4327
   75MOL   H23722585   2.547   6.285   3.180  0.0869 -2.2000 -0.1581
   75MOL   H23822586   2.650   6.240   3.051 -2.7354 -1.5384  0.2639
   75MOL   H23922587   2.729   6.742   3.449  0.4722 -0.0280  0.2806
   75MOL   H24022588   2.888   6.662   3.466  0.4154 -0.9804 -0.5167
   75MOL   H24122589   2.739   6.580   3.512 -0.1480  0.4834  0.7794
   75MOL   C24222590   2.579   6.511   3.059  0.4341  0.1526 -0.3062
   75MOL   C24322591   2.566   6.666   3.025  0.1517  0.3442  0.0402
   75MOL   C24422592   2.542   6.748   3.155  0.1508  0.2990 -0.4358
   75MOL   C24522593   2.701   6.710   2.952 -0.2839  0.2436 -0.7461
   75MOL   O24622594   2.788   6.774   3.011  0.7622 -0.0666 -0.0094
   75MOL   O24722595   2.724   6.659   2.834 -0.1621 -1.0683  0.3377
   75MOL   C24822596   2.839   6.699   2.762  0.2374  0.4523  0.0364
   75MOL   H24922597   2.490   6.482   3.114  1.0879 -0.1257  0.6204
   75MOL   H25022598   2.568   6.450   2.969 -1.1031  0.2074 -0.1607
   75MOL   H25122599   2.634   6.746   3.213 -0.3343  2.6564  0.4524
   75MOL   H25222600   2.527   6.856   3.147 -2.7579  0.1917  2.5001
   75MOL   H25322601   2.463   6.701   3.213 -0.2173 -2.6874 -3.2000
   75MOL   H25422602   2.833   6.655   2.663  1.0428 -1.4244  0.8111
   75MOL   H25522603   2.932   6.660   2.803 -0.4532 -1.2071  0.0503
   75MOL   H25622604   2.836   6.808   2.761 -0.4861  0.4946  3.0802
   75MOL   C25722605   2.449   6.675   2.921 -0.1194  0.2433  0.3709
   75MOL   C25822606   2.377   6.809   2.871  0.0181 -0.5700 -0.5516
   75MOL   C25922607   2.279   6.857   2.981  0.2149  0.4333  0.1827
   75MOL   C26022608   2.483   6.911   2.838 -0.4081 -0.7881  0.2806
   75MOL   O26122609   2.551   6.912   2.733  0.4233 -0.2561  0.2505
   75MOL   O26222610   2.504   6.999   2.940 -0.0924  0.5052 -0.3695
   75MOL   C26322611   2.606   7.098   2.924 -0.0741 -0.3965 -0.1568
   75MOL   H26422612   2.369   6.615   2.965 -0.9215  0.6287 -0.5330
   75MOL   H26522613   2.487   6.620   2.835  2.0849 -1.8120  2.5815
   75MOL   H26622614   2.190   6.796   2.993  1.1951 -0.8243  1.1858
   75MOL   H26722615   2.332   6.858   3.076 -1.8652  1.6001  1.3847
   75MOL   H26822616   2.261   6.964   2.987 -0.8188  0.3216 -0.7330
   75MOL   H26922617   2.596   7.125   2.818  0.4454 -0.7891 -0.3067
   75MOL   H27022618   2.706   7.057   2.935 -0.3698 -1.0740  0.0309
   75MOL   H27122619   2.591   7.181   2.993 -3.2550  0.8056 -2.1829
   75MOL   C27222620   2.288   6.780   2.744 -0.2892 -0.1719  0.2705
   75MOL   C27322621   2.185   6.879   2.680  0.1160 -0.2181 -0.9238
   75MOL   C27422622   2.137   6.815   2.544  0.0859 -0.5400  0.3727
   75MOL   C27522623   2.059   6.894   2.765  0.2182 -0.0827  0.0881
   75MOL   O27622624   2.047   7.000   2.827  0.0708 -0.1156 -0.0072
   75MOL   O27722625   1.975   6.791   2.769 -0.1848  0.2661  0.2683
   75MOL   C27822626   1.871   6.794   2.855  0.3705 -0.6298 -0.6352
   75MOL   H27922627   2.246   6.685   2.780  1.5603 -0.6047  1.3410
   75MOL   H28022628   2.360   6.746   2.671  3.5773  1.2172  3.2802
   75MOL   H28122629   2.204   6.823   2.459  0.0493 -2.7457  0.0981
   75MOL   H28222630   2.129   6.707   2.556  0.1920 -0.6758 -0.7681
   75MOL   H28322631   2.040   6.853   2.513 -0.3390 -0.0805  2.1929
   75MOL   H28422632   1.823   6.892   2.863  0.7649 -0.3744 -1.4024
   75MOL   H28522633   1.900   6.746   2.949 -1.6870 -0.7176 -0.0220
   75MOL   H28622634   1.795   6.739   2.800 -0.6829 -2.0764  2.1394
   75MOL   C28722635   2.246   7.019   2.641 -0.8077  0.2361  0.3814
   75MOL   C28822636   2.159   7.131   2.575 -1.1391 -0.1033 -0.1860
   75MOL   C28922637   2.221   7.265   2.607 -0.6619 -0.2883  0.5240
   75MOL   C29022638   2.133   7.117   2.426  0.5509  0.1392  0.5767
   75MOL   O29122639   2.021   7.138   2.372 -0.5428  0.2664 -0.5546
   75MOL   O29222640   2.249   7.076   2.349 -0.2995 -0.2664 -0.7294
   75MOL   C29322641   2.247   7.054   2.208 -0.3737 -0.2944  1.1348
   75MOL   H29422642   2.333   6.994   2.580 -1.3883 -1.5920  0.2794
   75MOL   H29522643   2.293   7.063   2.730 -0.5060  1.4524 -0.3644
   75MOL   H29622644   2.250   7.283   2.710  0.8630  0.5801 -0.0424
   75MOL   H29722645   2.320   7.267   2.562  0.0738 -2.0027  2.0381
   75MOL   H29822646   2.170   7.354   2.570 -0.2335 -0.4538 -0.4845
   75MOL   H29922647   2.346   7.032   2.168 -0.2993 -2.1301  2.2502
   75MOL   H30022648   2.213   7.145   2.158 -0.5276 -0.0262  1.7206
   75MOL   H30122649   2.188   6.968   2.177 -0.2363  0.5363 -1.5848
   75MOL   H30222650   2.064   7.133   2.629  0.8226  4.0236  3.4570
   76MOL     C122651   2.638   5.881   3.584 -0.0711  0.0168 -0.3267
   76MOL     C222652   2.555   6.006   3.566  0.0248  0.1130 -0.5734
   76MOL     C322653   2.538   6.028   3.413 -0.2484 -0.4665  0.5535
   76MOL     C422654   2.408   5.996   3.621  0.1680 -0.0506  0.0250
   76MOL     O522655   2.357   6.086   3.684  0.2505 -0.2622 -0.4795
   76MOL     O622656   2.343   5.876   3.585 -0.0076 -0.3794 -0.3279
   76MOL     C722657   2.219   5.854   3.659  0.1260  0.5162 -0.4281
   76MOL     H822658   2.729   5.860   3.529 -0.0778 -0.8284 -0.0363
   76MOL     H922659   2.653   5.859   3.690 -0.0205 -1.0647 -0.5485
   76MOL    H1022660   2.474   5.957   3.359 -0.6164  0.3795 -0.1311
   76MOL    H1122661   2.514   6.131   3.388 -0.7913 -0.8057 -0.3425
   76MOL    H1222662   2.634   6.001   3.369  0.4338  0.4298  1.4827
   76MOL    H1322663   2.152   5.771   3.636  0.3312 -0.1850  1.3869
   76MOL    H1422664   2.165   5.947   3.641 -1.6150 -0.0774  1.4714
   76MOL    H1522665   2.241   5.829   3.763 -0.9022 -2.7518 -0.9314
   76MOL    H1622666   2.571   5.802   3.549 -1.8852  2.1376 -1.7064
   76MOL    C1722667   2.633   6.134   3.612  0.1981 -0.0699 -0.0806
   76MOL    C1822668   2.712   6.149   3.750 -0.2141  0.2087  0.1700
   76MOL    C1922669   2.620   6.104   3.865 -0.3191 -0.3571 -0.9726
   76MOL    C2022670   2.838   6.065   3.751  0.4034  0.4291  1.0066
   76MOL    O2122671   2.865   5.983   3.834 -0.0023  0.4253 -0.1638
   76MOL    O2222672   2.927   6.105   3.647  0.0464  0.8228  0.0926
   76MOL    C2322673   3.052   6.030   3.651  0.4522  0.0344  0.3454
   76MOL    H2422674   2.563   6.216   3.626 -0.0710 -0.4426  0.7481
   76MOL    H2522675   2.698   6.174   3.533  1.5099 -0.4955  0.7740
   76MOL    H2622676   2.536   6.172   3.883 -2.3289 -3.0100 -0.0701
   76MOL    H2722677   2.560   6.019   3.833 -1.8759  0.4862 -0.3925
   76MOL    H2822678   2.670   6.088   3.960 -0.1754  1.0384 -0.7963
   76MOL    H2922679   3.089   6.014   3.753  0.7805  2.1284  0.5889
   76MOL    H3022680   3.131   6.087   3.602 -1.4765  0.9763 -1.7561
   76MOL    H3122681   3.044   5.938   3.594  1.0251 -2.0950  3.5774
   76MOL    C3222682   2.749   6.303   3.773 -0.5225  0.5234  0.6720
   76MOL    C3322683   2.813   6.371   3.900 -0.1011  0.4107  0.1394
   76MOL    C3422684   2.777   6.520   3.892 -0.3965 -0.1646  0.0009
   76MOL    C3522685   2.756   6.321   4.039 -0.0980 -0.0149  0.8130
   76MOL    O3622686   2.814   6.236   4.101 -0.2380  0.6857  0.0962
   76MOL    O3722687   2.624   6.361   4.069 -0.1774 -0.0570 -0.3704
   76MOL    C3822688   2.554   6.302   4.178 -0.9177  0.1342  0.1967
   76MOL    H3922689   2.651   6.350   3.763 -0.2648  1.0019  0.3739
   76MOL    H4022690   2.798   6.341   3.683  3.6493 -0.7156  2.3094
   76MOL    H4122691   2.668   6.518   3.899 -0.4766  0.5202 -1.0060
   76MOL    H4222692   2.801   6.569   3.986  2.1979 -1.1090 -0.1310
   76MOL    H4322693   2.810   6.581   3.808 -0.2307  0.4428  0.5044
   76MOL    H4422694   2.493   6.219   4.142 -0.7840 -0.2795  0.9122
   76MOL    H4522695   2.481   6.371   4.220  0.0782  0.3375  1.6388
   76MOL    H4622696   2.617   6.281   4.265 -2.3307  0.7774  1.4023
   76MOL    C4722697   2.969   6.357   3.884  0.5515  0.0173 -0.3352
   76MOL    C4822698   3.077   6.379   3.995  0.1807  0.0234  0.3548
   76MOL    C4922699   3.026   6.503   4.082 -0.0432  0.1005  0.1397
   76MOL    C5022700   3.097   6.266   4.095 -0.5715 -0.2313 -0.6965
   76MOL    O5122701   3.123   6.290   4.212  0.3876  0.0491  0.0915
   76MOL    O5222702   3.088   6.138   4.043 -0.1635 -0.3461 -0.2718
   76MOL    C5322703   3.126   6.023   4.118  0.5306 -0.3159 -0.0483
   76MOL    H5422704   2.998   6.429   3.808  2.5278  0.3821  0.7192
   76MOL    H5522705   2.999   6.264   3.834  1.1166 -0.0598  0.1344
   76MOL    H5622706   2.937   6.469   4.135  0.5088  1.4297  1.9738
   76MOL    H5722707   3.092   6.535   4.162  0.0147 -2.2268  1.0505
   76MOL    H5822708   3.019   6.586   4.012  1.0018 -0.8287 -1.0778
   76MOL    H5922709   3.089   5.937   4.062  1.6565 -0.2634 -0.8966
   76MOL    H6022710   3.072   6.031   4.212 -1.0009  4.2696 -1.1857
   76MOL    H6122711   3.233   6.013   4.137  0.8191  0.0076 -1.4345
   76MOL    C6222712   3.214   6.436   3.944 -0.2684  0.3643 -0.5356
   76MOL    C6322713   3.315   6.364   3.837  0.3950 -0.5093 -0.3828
   76MOL    C6422714   3.249   6.366   3.701 -0.0814  0.2549  0.1235
   76MOL    C6522715   3.443   6.449   3.842  0.0840 -0.2640  0.1163
   76MOL    O6622716   3.484   6.498   3.739 -0.1370  0.2113 -0.5112
   76MOL    O6722717   3.487   6.461   3.964 -0.1707 -0.1427  0.3075
   76MOL    C6822718   3.594   6.547   3.988 -0.0994 -0.4916 -0.0847
   76MOL    H6922719   3.263   6.474   4.034 -0.2825 -1.6387  0.3476
   76MOL    H7022720   3.192   6.530   3.892  0.6184  0.5565 -0.5645
   76MOL    H7122721   3.315   6.346   3.617 -0.1633 -2.8131  0.7419
   76MOL    H7222722   3.181   6.282   3.693  0.7741 -0.3528 -0.9673
   76MOL    H7322723   3.202   6.461   3.676 -2.1994 -1.1292 -1.2916
   76MOL    H7422724   3.672   6.526   3.914  0.0742  0.0812 -0.0665
   76MOL    H7522725   3.635   6.542   4.089 -0.6220 -0.8816  0.1114
   76MOL    H7622726   3.577   6.650   3.959 -0.1749 -0.7113 -0.8379
   76MOL    C7722727   3.345   6.207   3.877  0.3472  0.1335 -0.3039
   76MOL    C7822728   3.459   6.113   3.819 -0.6628 -0.5103 -0.4698
   76MOL    C7922729   3.459   6.134   3.663  0.2538  0.5460 -0.4639
   76MOL    C8022730   3.600   6.153   3.873 -0.0604 -0.4019 -0.0991
   76MOL    O8122731   3.696   6.163   3.797 -0.7032 -0.0186 -0.4262
   76MOL    O8222732   3.612   6.161   4.001 -0.2294 -0.0518  0.0667
   76MOL    C8322733   3.743   6.188   4.048 -0.2661 -0.2516 -0.5564
   76MOL    H8422734   3.251   6.157   3.854  0.4319 -0.4799  0.6618
   76MOL    H8522735   3.345   6.195   3.985  0.2664 -0.4964 -0.3699
   76MOL    H8622736   3.485   6.236   3.635 -1.1488  1.7013  2.2267
   76MOL    H8722737   3.540   6.074   3.622  1.3833  0.8144  1.2708
   76MOL    H8822738   3.364   6.107   3.618  0.5526  1.0427 -1.3926
   76MOL    H8922739   3.811   6.107   4.022 -1.3845 -1.3004 -0.2477
   76MOL    H9022740   3.740   6.214   4.154 -1.6807  0.4789 -0.7751
   76MOL    H9122741   3.787   6.276   4.001  0.4020 -0.1197  0.2959
   76MOL    C9222742   3.420   5.965   3.860 -0.0910  0.6550 -0.5721
   76MOL    C9322743   3.503   5.841   3.883 -0.7613 -0.9405  0.8334
   76MOL    C9422744   3.596   5.826   3.754 -0.2865  0.2903  1.0159
   76MOL    C9522745   3.592   5.855   4.012 -0.0123  0.5767  0.0149
   76MOL    O9622746   3.719   5.852   4.005  0.9210  0.9928  0.6302
   76MOL    O9722747   3.522   5.872   4.119  0.0448  0.1044 -0.7267
   76MOL    C9822748   3.593   5.875   4.240 -0.1623 -0.2769  0.4436
   76MOL    H9922749   3.337   5.939   3.794  1.4044 -0.8798 -1.8826
   76MOL   H10022750   3.376   5.972   3.959  1.1698 -3.0201  0.3081
   76MOL   H10122751   3.550   5.793   3.660 -0.2994  0.6037  0.9101
   76MOL   H10222752   3.650   5.918   3.729  0.7698 -0.8521 -1.0204
   76MOL   H10322753   3.674   5.751   3.766  2.5384  2.5914 -1.8180
   76MOL   H10422754   3.631   5.773   4.246  0.0435 -0.2589 -0.4578
   76MOL   H10522755   3.515   5.873   4.316 -1.0846 -2.1161 -0.5141
   76MOL   H10622756   3.660   5.958   4.262  1.2122 -1.3481  0.3365
   76MOL   C10722757   3.400   5.719   3.880 -0.7866  0.3696  0.0247
   76MOL   C10822758   3.422   5.577   3.949  0.3389 -0.6730 -0.5553
   76MOL   C10922759   3.558   5.513   3.909  0.4614  0.1429  0.0448
   76MOL   C11022760   3.413   5.585   4.105 -0.5441 -0.2008 -0.0804
   76MOL   O11122761   3.496   5.529   4.173 -0.1264 -0.1901 -0.2091
   76MOL   O11222762   3.304   5.647   4.148 -0.0600 -0.0525 -0.2863
   76MOL   C11322763   3.287   5.630   4.284 -1.0498  0.2842  0.9520
   76MOL   H11422764   3.371   5.699   3.777  1.5746 -0.1854 -0.5668
   76MOL   H11522765   3.310   5.765   3.920 -2.5100  0.7654 -4.0955
   76MOL   H11622766   3.575   5.407   3.924 -0.6074 -0.2803 -1.5742
   76MOL   H11722767   3.580   5.519   3.802 -1.9996 -2.6136 -0.6569
   76MOL   H11822768   3.639   5.565   3.961  2.9475 -1.8611 -1.7196
   76MOL   H11922769   3.192   5.675   4.312 -1.4460  1.3093 -1.9199
   76MOL   H12022770   3.358   5.681   4.349 -1.8088  0.3613  1.7344
   76MOL   H12122771   3.304   5.527   4.315 -2.5323 -0.8589 -1.8739
   76MOL   C12222772   3.306   5.478   3.902 -0.2415 -0.0424  0.9120
   76MOL   C12322773   3.268   5.340   3.968  0.2567 -0.1102 -0.0900
   76MOL   C12422774   3.382   5.244   4.000  0.1227 -0.2761  0.5390
   76MOL   C12522775   3.177   5.361   4.090 -0.0691 -0.4997  0.2656
   76MOL   O12622776   3.181   5.299   4.197  0.2718  0.2752 -0.0445
   76MOL   O12722777   3.081   5.451   4.065  0.2860 -0.3150 -0.4805
   76MOL   C12822778   2.966   5.465   4.153  0.5906 -0.4367 -0.1147
   76MOL   H12922779   3.322   5.454   3.797 -0.6502  1.7664  0.4019
   76MOL   H13022780   3.216   5.539   3.900  0.1543  0.5392  0.5018
   76MOL   H13122781   3.450   5.228   3.917 -0.6371  0.9728 -0.3453
   76MOL   H13222782   3.446   5.293   4.074 -1.4278  2.0273  0.3951
   76MOL   H13322783   3.346   5.147   4.034 -0.7239 -0.9649 -2.2179
   76MOL   H13422784   2.938   5.569   4.163  0.4836 -0.3254 -1.4170
   76MOL   H13522785   2.983   5.435   4.256 -2.0876  3.1460  1.4784
   76MOL   H13622786   2.871   5.424   4.116  0.4537 -2.5658  2.4073
   76MOL   C13722787   3.165   5.264   3.873  0.0912  0.1372  0.6635
   76MOL   C13822788   3.190   5.189   3.736  0.3539 -0.4639 -0.3208
   76MOL   C13922789   3.303   5.249   3.647 -0.4595  0.2125 -0.8338
   76MOL   C14022790   3.239   5.047   3.773 -0.0083  0.6201 -0.3007
   76MOL   O14122791   3.345   4.999   3.729 -0.7258 -1.0748 -0.2159
   76MOL   O14222792   3.154   4.974   3.846  0.0750 -0.5454 -0.1581
   76MOL   C14322793   3.177   4.835   3.865  0.6823 -0.0948 -1.0790
   76MOL   H14422794   3.115   5.356   3.843 -0.2837  0.2325  1.5809
   76MOL   H14522795   3.093   5.213   3.936  3.1373 -1.4211  3.0200
   76MOL   H14622796   3.332   5.191   3.558  0.5705 -0.8225  0.1531
   76MOL   H14722797   3.272   5.348   3.613 -1.0615  0.9639  1.8147
   76MOL   H14822798   3.397   5.259   3.701 -0.4574  0.4382 -0.8790
   76MOL   H14922799   3.249   4.816   3.945  0.3542  0.2316 -0.7016
   76MOL   H15022800   3.221   4.795   3.774  0.4285 -0.9054 -0.8433
   76MOL   H15122801   3.087   4.780   3.892  1.3254  0.5095  2.5812
   76MOL   C15222802   3.059   5.170   3.651 -0.1055  0.6980  0.2092
   76MOL   C15322803   2.960   5.292   3.619 -0.3477  0.2130  0.5890
   76MOL   C15422804   3.021   5.425   3.592 -0.3293 -0.2501 -0.0116
   76MOL   C15522805   2.897   5.242   3.483 -0.6588  0.8428 -0.1711
   76MOL   O15622806   2.811   5.149   3.477 -0.1895  0.1161  0.0349
   76MOL   O15722807   2.955   5.296   3.375 -0.1975  0.7209  0.3860
   76MOL   C15822808   2.906   5.253   3.253  0.3305  0.0594 -0.3500
   76MOL   H15922809   2.997   5.092   3.695  1.3711  0.6211  2.2595
   76MOL   H16022810   3.081   5.113   3.561  2.6408 -2.4499  2.7674
   76MOL   H16122811   3.054   5.483   3.678 -0.1483  1.1792 -1.0324
   76MOL   H16222812   3.098   5.416   3.516  0.0003 -0.0938  0.3045
   76MOL   H16322813   2.943   5.485   3.543 -2.0524 -0.9503  1.7857
   76MOL   H16422814   2.916   5.144   3.247  0.6602  0.1306 -1.1003
   76MOL   H16522815   2.972   5.296   3.178  1.8564 -0.4283  0.6936
   76MOL   H16622816   2.801   5.270   3.229 -0.5960 -4.3999  0.0136
   76MOL   C16722817   2.856   5.302   3.741  0.7877 -0.0146  0.2336
   76MOL   C16822818   2.748   5.420   3.761  0.0208  0.7974 -0.1486
   76MOL   C16922819   2.824   5.546   3.816  0.4332  0.1443  0.5456
   76MOL   C17022820   2.669   5.443   3.635 -0.1434  0.0652  0.4731
   76MOL   O17122821   2.667   5.556   3.584 -0.4495 -0.0024 -0.1210
   76MOL   O17222822   2.605   5.336   3.583  0.3782  0.2296  0.0241
   76MOL   C17322823   2.539   5.340   3.450 -0.4792 -0.4580  0.5039
   76MOL   H17422824   2.916   5.285   3.830 -0.9352 -1.4673  1.1352
   76MOL   H17522825   2.809   5.204   3.736  0.9869 -0.0563 -1.1712
   76MOL   H17622826   2.766   5.613   3.879  0.5477  1.6425 -0.9080
   76MOL   H17722827   2.903   5.499   3.875  0.5934  0.3295  0.4796
   76MOL   H17822828   2.863   5.606   3.734 -2.2744  0.9274 -0.2306
   76MOL   H17922829   2.485   5.434   3.446 -1.7646 -1.2621 -1.8096
   76MOL   H18022830   2.472   5.257   3.428  0.5001 -0.5640 -2.2183
   76MOL   H18122831   2.611   5.348   3.368 -0.0143 -1.9871  0.7412
   76MOL   C18222832   2.650   5.375   3.885  0.3206  0.1811 -0.1979
   76MOL   C18322833   2.506   5.424   3.915  0.1638  0.2166  0.3741
   76MOL   C18422834   2.513   5.583   3.915 -0.4880 -1.0056 -0.1830
   76MOL   C18522835   2.410   5.364   3.812  0.1273 -0.4713  0.0534
   76MOL   O18622836   2.341   5.453   3.750  0.6306 -0.4269 -0.3111
   76MOL   O18722837   2.402   5.232   3.787 -0.5447  0.2537  0.1099
   76MOL   C18822838   2.304   5.186   3.702 -0.2737 -0.1658  0.7791
   76MOL   H18922839   2.711   5.389   3.975 -0.6951 -1.6222  0.7946
   76MOL   H19022840   2.633   5.270   3.863  0.8491  0.7489 -3.5577
   76MOL   H19122841   2.416   5.632   3.911  0.4429  1.1869  2.5165
   76MOL   H19222842   2.572   5.612   4.002  1.1988 -1.2462 -1.2250
   76MOL   H19322843   2.560   5.629   3.828 -0.0578 -0.1124  0.5114
   76MOL   H19422844   2.252   5.102   3.747  0.5978 -0.4053  1.3498
   76MOL   H19522845   2.346   5.153   3.607 -0.4401 -0.2841  0.7463
   76MOL   H19622846   2.232   5.265   3.680  1.3418  0.7040 -1.6406
   76MOL   C19722847   2.459   5.360   4.056 -0.6676  0.2294 -0.2588
   76MOL   C19822848   2.357   5.419   4.152  0.3343  0.7115  0.1066
   76MOL   C19922849   2.390   5.564   4.191 -0.5404 -0.3039 -0.2957
   76MOL   C20022850   2.218   5.426   4.080 -0.8075  0.8039 -0.4122
   76MOL   O20122851   2.162   5.532   4.060  0.0620  0.2344 -0.2363
   76MOL   O20222852   2.167   5.307   4.049  0.4088 -0.1743 -0.2892
   76MOL   C20322853   2.039   5.297   3.994 -0.5655 -0.4177 -0.3038
   76MOL   H20422854   2.541   5.324   4.119 -0.0140  1.7778 -0.1960
   76MOL   H20522855   2.411   5.267   4.027  1.6249 -1.2572  0.5997
   76MOL   H20622856   2.334   5.589   4.281 -1.8609 -1.4941 -0.7805
   76MOL   H20722857   2.494   5.587   4.215 -1.0714  0.2533  1.5650
   76MOL   H20822858   2.366   5.640   4.116 -1.6190 -0.7531 -0.4142
   76MOL   H20922859   1.999   5.196   4.003  0.2923 -0.6735  0.6445
   76MOL   H21022860   2.034   5.352   3.900  2.0498  2.5531  1.2117
   76MOL   H21122861   1.966   5.357   4.049  0.3559  1.8331 -1.4833
   76MOL   C21222862   2.362   5.330   4.287  0.2538  0.3294 -0.1764
   76MOL   C21322863   2.246   5.302   4.391  0.0980  0.5849  0.2872
   76MOL   C21422864   2.324   5.291   4.523 -0.8321  0.0069 -0.2001
   76MOL   C21522865   2.162   5.427   4.404 -0.3251  0.1526  0.1007
   76MOL   O21622866   2.172   5.506   4.498 -0.0907 -0.5593  0.3813
   76MOL   O21722867   2.063   5.431   4.311  0.0857 -0.4065 -0.5468
   76MOL   C21822868   1.960   5.531   4.327  0.7969 -0.4429  0.3815
   76MOL   H21922869   2.457   5.353   4.337 -0.4583 -0.8351  1.7706
   76MOL   H22022870   2.386   5.226   4.264 -1.2437 -0.0339 -0.0980
   76MOL   H22122871   2.260   5.299   4.611 -0.7383 -0.6001 -0.0778
   76MOL   H22222872   2.387   5.203   4.539  0.6134  1.1145  0.3076
   76MOL   H22322873   2.398   5.371   4.532 -1.0474  0.3008 -0.9711
   76MOL   H22422874   2.001   5.623   4.369 -0.7989 -0.5318  2.2093
   76MOL   H22522875   1.892   5.497   4.405 -0.0143 -1.8539 -0.9332
   76MOL   H22622876   1.907   5.555   4.235  1.1021 -4.0966 -0.8026
   76MOL   C22722877   2.170   5.165   4.364 -0.1496 -0.3891 -0.0985
   76MOL   C22822878   2.050   5.108   4.451  0.3650 -0.0836 -0.1398
   76MOL   C22922879   2.070   5.130   4.597 -0.1328  0.0038 -0.7527
   76MOL   C23022880   1.913   5.173   4.404 -0.0207 -0.9706 -0.0919
   76MOL   O23122881   1.830   5.215   4.484 -0.0330  0.3267  0.0160
   76MOL   O23222882   1.890   5.161   4.267 -0.2816  0.4804  0.1332
   76MOL   C23322883   1.774   5.209   4.209  0.1248 -0.1819  0.2120
   76MOL   H23422884   2.249   5.090   4.361  0.4583  0.2029  0.6704
   76MOL   H23522885   2.138   5.165   4.260 -0.5392  0.6005  0.0144
   76MOL   H23622886   2.164   5.087   4.633  0.4150  0.6486 -1.4005
   76MOL   H23722887   2.067   5.237   4.616 -1.7250  0.3138 -2.5422
   76MOL   H23822888   1.989   5.088   4.656  2.0804 -3.6781 -0.1368
   76MOL   H23922889   1.758   5.313   4.238  1.2445  0.2111 -0.5416
   76MOL   H24022890   1.693   5.145   4.243  0.6452 -1.3055 -0.6447
   76MOL   H24122891   1.780   5.227   4.102 -0.8226 -0.0630  0.1739
   76MOL   C24222892   2.053   4.950   4.418 -0.1061  0.1079  0.2999
   76MOL   C24322893   1.980   4.833   4.495 -0.5754  0.8670 -0.6608
   76MOL   C24422894   2.042   4.799   4.638  0.0820 -0.0235  0.1877
   76MOL   C24522895   1.837   4.875   4.516  0.1803  0.1659  0.1089
   76MOL   O24622896   1.789   4.908   4.624  0.3953 -0.0659  0.0138
   76MOL   O24722897   1.772   4.887   4.400 -0.2224 -0.1562 -0.4672
   76MOL   C24822898   1.635   4.920   4.407  0.0597  1.4608 -0.5867
   76MOL   H24922899   2.157   4.915   4.421 -0.2521 -0.2022  2.7130
   76MOL   H25022900   2.029   4.946   4.312  1.4234 -1.9509  0.0043
   76MOL   H25122901   2.001   4.858   4.721  2.6910 -1.8018  2.8084
   76MOL   H25222902   2.035   4.693   4.662  0.8494 -0.7329 -2.6568
   76MOL   H25322903   2.148   4.821   4.642 -0.2748  2.0969 -1.1497
   76MOL   H25422904   1.585   4.846   4.469  0.4275  0.3985 -1.5383
   76MOL   H25522905   1.604   4.919   4.303  0.9152  1.9019 -0.8558
   76MOL   H25622906   1.620   5.019   4.450 -3.2004  1.0124 -0.6158
   76MOL   C25722907   1.967   4.701   4.400  0.3179  0.7112 -0.3255
   76MOL   C25822908   2.086   4.619   4.346  0.2807  0.4577  0.3882
   76MOL   C25922909   2.183   4.708   4.259 -0.0297  0.1618  0.1701
   76MOL   C26022910   2.173   4.557   4.461 -0.1905 -0.2172 -0.5552
   76MOL   O26122911   2.293   4.590   4.477 -0.1412  0.6640 -0.3946
   76MOL   O26222912   2.097   4.476   4.542 -0.0160 -0.2796  0.4143
   76MOL   C26322913   2.152   4.431   4.668 -0.5776 -0.5645 -0.2090
   76MOL   H26422914   1.915   4.732   4.309 -0.7511  0.3275  0.1509
   76MOL   H26522915   1.910   4.621   4.447 -1.2518  1.0628 -1.5778
   76MOL   H26622916   2.134   4.790   4.205  1.4347  1.0383  0.1295
   76MOL   H26722917   2.261   4.762   4.312  0.6955  0.9972 -1.6929
   76MOL   H26822918   2.245   4.643   4.198  1.0833  0.9007  0.5088
   76MOL   H26922919   2.109   4.342   4.712  1.4520 -1.0042  0.9547
   76MOL   H27022920   2.163   4.518   4.733  1.1415 -0.4116 -0.6660
   76MOL   H27122921   2.250   4.388   4.649 -1.0963 -2.1055  0.5187
   76MOL   C27222922   2.038   4.491   4.274 -0.1290  0.2109 -0.2367
   76MOL   C27322923   1.982   4.489   4.130  0.4323 -0.1404 -0.2697
   76MOL   C27422924   1.850   4.564   4.109 -0.0101  0.0239  0.5191
   76MOL   C27522925   2.078   4.548   4.021  0.2130  0.4565  0.2789
   76MOL   O27622926   2.056   4.644   3.951 -0.3776 -0.0367  0.0660
   76MOL   O27722927   2.184   4.463   3.998 -0.0915  0.0402 -0.0309
   76MOL   C27822928   2.278   4.495   3.893 -0.3256  0.0449 -0.0833
   76MOL   H27922929   1.968   4.428   4.328  0.7608  0.2230  0.9506
   76MOL   H28022930   2.127   4.429   4.263 -1.1932 -1.9626  2.9368
   76MOL   H28122931   1.845   4.673   4.113 -0.2789  0.0777 -0.8360
   76MOL   H28222932   1.794   4.523   4.025  1.7932  0.1627 -0.7916
   76MOL   H28322933   1.787   4.533   4.192 -1.0407 -0.0621 -0.2799
   76MOL   H28422934   2.221   4.506   3.801 -1.5507  2.6570  0.9437
   76MOL   H28522935   2.350   4.414   3.880 -1.1733 -1.1533  2.3302
   76MOL   H28622936   2.332   4.587   3.914 -1.7643  1.0214 -0.5897
   76MOL   C28722937   1.953   4.340   4.089  0.1132 -0.2996  0.2432
   76MOL   C28822938   2.047   4.220   4.114  0.2018  0.1736  0.5140
   76MOL   C28922939   1.997   4.121   4.218 -0.4565  0.6348  0.0167
   76MOL   C29022940   2.071   4.142   3.983  0.0024  0.2954 -0.5201
   76MOL   O29122941   2.173   4.150   3.907  0.5299  0.5945 -0.0352
   76MOL   O29222942   1.964   4.065   3.955  0.1141  0.5773  0.1321
   76MOL   C29322943   1.937   4.005   3.829  0.5535 -0.7614  0.3740
   76MOL   H29422944   1.949   4.353   3.981 -0.3355  0.6585  0.3683
   76MOL   H29522945   1.854   4.319   4.129  0.2398 -0.4606  0.4728
   76MOL   H29622946   1.913   4.072   4.168  0.8417  1.8512 -3.5728
   76MOL   H29722947   2.065   4.044   4.255 -1.5274 -0.3202  0.0287
   76MOL   H29822948   1.970   4.185   4.302 -0.7249  1.5751 -0.7719
   76MOL   H29922949   1.987   3.908   3.821  2.7831  0.3985 -0.0917
   76MOL   H30022950   1.966   4.072   3.748 -2.4397  0.7844  0.4909
   76MOL   H30122951   1.830   3.988   3.813  0.1800  3.2473 -2.0953
   76MOL   H30222952   2.140   4.252   4.160 -0.3085  1.4663  0.6623
   77MOL     C122953   2.391   4.410   5.869 -0.7311  0.7498  0.2186
   77MOL     C222954   2.517   4.497   5.876  0.4840  0.1680 -0.0186
   77MOL     C322955   2.519   4.557   5.735  0.5325  0.0272 -0.2467
   77MOL     C422956   2.497   4.610   5.975  0.2579 -0.3582 -0.9962
   77MOL     O522957   2.496   4.727   5.952 -0.0803 -0.2562 -0.1535
   77MOL     O622958   2.473   4.559   6.097 -0.2911  0.5776 -0.0425
   77MOL     C722959   2.457   4.645   6.208 -0.0820 -0.2962  0.1119
   77MOL     H822960   2.405   4.335   5.791 -1.0059  0.5676  0.3445
   77MOL     H922961   2.382   4.347   5.957 -1.4060  0.1353 -0.2879
   77MOL    H1022962   2.526   4.475   5.664 -0.8289 -1.1388  0.9291
   77MOL    H1122963   2.437   4.628   5.718  1.0504  0.2397 -1.9617
   77MOL    H1222964   2.607   4.612   5.702  2.0008 -2.3658 -0.3857
   77MOL    H1322965   2.483   4.595   6.301  0.5518  0.5141  0.3790
   77MOL    H1422966   2.351   4.666   6.223  0.0359  1.7206 -1.6877
   77MOL    H1522967   2.500   4.744   6.196  1.7970 -1.1944 -0.7267
   77MOL    H1622968   2.297   4.464   5.855 -1.8726 -0.8225  1.7143
   77MOL    C1722969   2.642   4.410   5.904  0.4901 -0.3688 -0.3852
   77MOL    C1822970   2.789   4.459   5.923 -0.4301 -0.2028 -0.8795
   77MOL    C1922971   2.830   4.541   5.803 -0.4997 -0.7738 -0.1228
   77MOL    C2022972   2.800   4.541   6.056 -0.5822 -0.2160 -0.2189
   77MOL    O2122973   2.807   4.661   6.062 -0.4808  0.1219  0.6732
   77MOL    O2222974   2.782   4.463   6.169  0.6350 -0.5071 -0.5956
   77MOL    C2322975   2.813   4.517   6.290 -0.9508  0.1313  0.1914
   77MOL    H2422976   2.643   4.356   5.809 -0.3327  0.9615 -1.1580
   77MOL    H2522977   2.622   4.340   5.985  1.5795 -0.0413  0.1706
   77MOL    H2622978   2.777   4.636   5.814  3.9184  2.0582 -1.6192
   77MOL    H2722979   2.931   4.581   5.792 -0.9268  0.2366 -0.4247
   77MOL    H2822980   2.817   4.489   5.708 -3.4638 -0.2877 -0.0092
   77MOL    H2922981   2.918   4.547   6.296 -1.1955  1.0315  0.0099
   77MOL    H3022982   2.810   4.444   6.371  0.1511 -0.3097 -0.1487
   77MOL    H3122983   2.756   4.606   6.316 -1.2106 -0.0622  0.2863
   77MOL    C3222984   2.882   4.331   5.936  0.7861  0.2530  0.0429
   77MOL    C3322985   3.042   4.337   5.904  1.2508 -0.5106  0.1380
   77MOL    C3422986   3.066   4.322   5.753  0.0467 -0.8230  0.5699
   77MOL    C3522987   3.108   4.468   5.947 -0.6452 -0.2407 -0.0841
   77MOL    O3622988   3.166   4.540   5.872  0.6058  0.4574 -0.3121
   77MOL    O3722989   3.098   4.483   6.080  0.2392 -0.7042 -0.0203
   77MOL    C3822990   3.148   4.600   6.145  0.4804 -0.1433  0.3465
   77MOL    H3922991   2.849   4.270   5.852 -0.3916  0.8107  0.0973
   77MOL    H4022992   2.859   4.280   6.029 -2.9319  0.2821 -0.7683
   77MOL    H4122993   3.006   4.244   5.706  0.0829  0.3794 -1.5563
   77MOL    H4222994   3.043   4.412   5.695 -0.9760 -1.2663  0.2667
   77MOL    H4322995   3.170   4.300   5.729  1.1309  2.2795  2.1538
   77MOL    H4422996   3.250   4.626   6.120  0.0379  1.1116 -0.2039
   77MOL    H4522997   3.139   4.603   6.254  0.3924  0.2491  0.3306
   77MOL    H4622998   3.090   4.680   6.100  1.8514  0.6515 -0.0287
   77MOL    C4722999   3.102   4.212   5.984  0.4683 -0.4809 -0.7808
   77MOL    C4823000   3.245   4.153   5.959 -0.4561  0.1743 -0.2451
   77MOL    C4923001   3.230   4.055   5.835 -0.3230 -0.2350 -0.3597
   77MOL    C5023002   3.354   4.264   5.931 -0.3561  0.4237  0.0959
   77MOL    O5123003   3.406   4.277   5.821  0.3658 -0.2801 -0.1260
   77MOL    O5223004   3.391   4.320   6.049  0.2895  0.2766  0.0392
   77MOL    C5323005   3.501   4.411   6.050 -0.2839  0.3496 -0.2929
   77MOL    H5423006   3.035   4.129   5.961  0.0717 -0.9076  1.7681
   77MOL    H5523007   3.102   4.236   6.090 -0.1481 -1.8741 -0.4469
   77MOL    H5623008   3.314   4.046   5.766  2.5647  1.3692  2.8127
   77MOL    H5723009   3.215   3.952   5.866  0.5992 -0.9604 -2.2520
   77MOL    H5823010   3.144   4.078   5.772 -2.5599 -0.1466  2.6458
   77MOL    H5923011   3.585   4.352   6.012  1.2341  1.3428  1.3934
   77MOL    H6023012   3.522   4.436   6.154 -1.9892 -1.7187  0.5898
   77MOL    H6123013   3.496   4.492   5.977  0.4294  0.2137 -0.5049
   77MOL    C6223014   3.279   4.071   6.086 -0.8080 -0.4095 -0.2221
   77MOL    C6323015   3.415   3.979   6.108  0.5574 -0.0172 -0.2715
   77MOL    C6423016   3.466   3.933   5.974 -0.1676  0.3409  0.0478
   77MOL    C6523017   3.527   4.076   6.182  0.6888  0.4957 -1.1808
   77MOL    O6623018   3.631   4.116   6.128  0.1245 -0.9492  0.1492
   77MOL    O6723019   3.484   4.105   6.313 -0.1289 -0.1542 -0.0070
   77MOL    C6823020   3.570   4.175   6.412 -0.7003  0.0216  0.0725
   77MOL    H6923021   3.193   4.007   6.106  0.3313 -2.6583 -2.2290
   77MOL    H7023022   3.267   4.134   6.174 -1.2803 -0.1798 -0.4487
   77MOL    H7123023   3.407   3.873   5.905 -0.6913  0.5198  0.3377
   77MOL    H7223024   3.494   4.011   5.902  1.4381 -1.1962 -1.0298
   77MOL    H7323025   3.552   3.868   5.985 -0.2500  0.0652 -0.8616
   77MOL    H7423026   3.667   4.126   6.419  0.1953  1.7582  0.0428
   77MOL    H7523027   3.519   4.178   6.509 -0.2438  1.7097  0.2721
   77MOL    H7623028   3.590   4.272   6.367  0.3177  0.0713  0.6220
   77MOL    C7723029   3.394   3.857   6.206 -0.6327 -0.6426  0.5119
   77MOL    C7823030   3.319   3.722   6.156 -0.3490 -0.2526 -0.7211
   77MOL    C7923031   3.185   3.760   6.096  0.1284 -0.2244 -0.2448
   77MOL    C8023032   3.400   3.642   6.048 -0.7045 -0.4060  0.3004
   77MOL    O8123033   3.361   3.620   5.931  0.4134  0.0145  0.0989
   77MOL    O8223034   3.522   3.604   6.089  0.0964 -0.2467  0.3818
   77MOL    C8323035   3.595   3.519   6.000 -0.3819 -0.1502  0.1613
   77MOL    H8423036   3.337   3.897   6.290 -3.8644 -2.7556 -0.5908
   77MOL    H8523037   3.488   3.826   6.250 -0.5856 -0.5538  0.4733
   77MOL    H8623038   3.203   3.801   5.997  1.2520  1.0076  0.4657
   77MOL    H8723039   3.112   3.680   6.083  0.8539 -1.0964  0.9093
   77MOL    H8823040   3.133   3.835   6.157 -0.0914  0.0982 -0.8265
   77MOL    H8923041   3.695   3.486   6.028 -0.8142  0.0648  1.9755
   77MOL    H9023042   3.598   3.560   5.899  1.3165 -1.4739 -0.3469
   77MOL    H9123043   3.538   3.426   5.999  0.1607 -0.5091 -2.2196
   77MOL    C9223044   3.311   3.621   6.285 -0.3768  0.0849  0.4967
   77MOL    C9323045   3.190   3.520   6.288  0.0176  0.1623 -0.1398
   77MOL    C9423046   3.066   3.598   6.340 -0.0533  0.1385  0.3743
   77MOL    C9523047   3.163   3.446   6.162  0.2880  0.1003  0.1871
   77MOL    O9623048   3.057   3.447   6.104 -0.2372  0.6093 -0.1756
   77MOL    O9723049   3.272   3.374   6.127  0.5627 -0.2856  0.6980
   77MOL    C9823050   3.267   3.293   6.006 -0.0129  0.0752  0.4736
   77MOL    H9923051   3.293   3.682   6.373 -0.2918 -1.9705  1.9874
   77MOL   H10023052   3.408   3.574   6.302  0.2262  1.3962  0.6893
   77MOL   H10123053   3.069   3.619   6.447  1.0982 -1.7043  0.7249
   77MOL   H10223054   3.060   3.696   6.295 -2.4874 -1.2021 -2.4178
   77MOL   H10323055   2.974   3.542   6.317  0.0108  0.6486 -1.1440
   77MOL   H10423056   3.373   3.290   5.981 -0.0405 -1.1375  0.4876
   77MOL   H10523057   3.199   3.336   5.932  0.7473  1.2526  0.4442
   77MOL   H10623058   3.231   3.194   6.031  0.7010 -0.1088  0.7547
   77MOL   C10723059   3.232   3.417   6.401 -0.0307  0.1263 -1.2925
   77MOL   C10823060   3.150   3.284   6.444 -0.2756  0.3747 -0.2067
   77MOL   C10923061   3.191   3.253   6.590 -0.7522  0.2706  0.4302
   77MOL   C11023062   2.999   3.313   6.442 -0.5194  0.8692  0.6197
   77MOL   O11123063   2.946   3.371   6.536 -0.3002 -0.1725  0.3053
   77MOL   O11223064   2.932   3.266   6.338  0.2923 -0.1531 -0.6726
   77MOL   C11323065   2.794   3.297   6.331  1.0206 -0.8468 -0.8317
   77MOL   H11423066   3.230   3.476   6.493 -1.3529 -4.4663  1.7860
   77MOL   H11523067   3.337   3.387   6.402  0.1144  0.6355 -0.3775
   77MOL   H11623068   3.177   3.344   6.650 -1.3418 -0.3248  1.1972
   77MOL   H11723069   3.136   3.168   6.630 -2.4691  1.1893  0.0794
   77MOL   H11823070   3.299   3.244   6.605 -0.4242  0.4175 -1.6785
   77MOL   H11923071   2.740   3.270   6.422  0.9305 -1.6652 -1.1269
   77MOL   H12023072   2.746   3.239   6.252 -0.2336 -0.5644 -0.2872
   77MOL   H12123073   2.772   3.401   6.306  0.3364 -0.8951 -0.4307
   77MOL   C12223074   3.193   3.167   6.360  0.4765  0.1518  0.1317
   77MOL   C12323075   3.172   3.012   6.415  0.7975  0.5768  0.2763
   77MOL   C12423076   3.219   2.932   6.288  0.1214  0.7399  0.1770
   77MOL   C12523077   3.278   2.967   6.524 -0.8027 -0.8184  0.2755
   77MOL   O12623078   3.257   2.891   6.618 -0.5178  0.3277 -0.0684
   77MOL   O12723079   3.398   3.022   6.511  0.8344 -0.0271  1.0836
   77MOL   C12823080   3.507   2.996   6.593 -0.5088  0.3923  0.1770
   77MOL   H12923081   3.300   3.177   6.342  0.5101  3.1627  1.6274
   77MOL   H13023082   3.153   3.185   6.261  0.7021  1.8131  0.3172
   77MOL   H13123083   3.313   2.965   6.245  1.1458  0.6179  2.2417
   77MOL   H13223084   3.241   2.826   6.303  1.9416  0.7020 -2.3463
   77MOL   H13323085   3.144   2.939   6.210 -1.4383  0.0648  1.5834
   77MOL   H13423086   3.498   2.938   6.686  1.5575  0.1251  0.2219
   77MOL   H13523087   3.547   3.092   6.625 -1.2087 -0.4987  4.0813
   77MOL   H13623088   3.586   2.962   6.527  1.7405  3.2221  1.3498
   77MOL   C13723089   3.013   2.979   6.435 -0.3506  0.1925 -0.0111
   77MOL   C13823090   2.947   2.834   6.463 -0.4946 -0.3117 -0.0950
   77MOL   C13923091   3.008   2.729   6.367 -0.7401  0.4044  0.2297
   77MOL   C14023092   2.976   2.798   6.611 -0.4310  0.0876 -0.3307
   77MOL   O14123093   2.973   2.887   6.699 -0.0405  0.1013  0.1538
   77MOL   O14223094   2.989   2.667   6.633 -0.4549  0.9421 -0.0772
   77MOL   C14323095   3.035   2.607   6.752 -0.2592 -0.2818 -0.7193
   77MOL   H14423096   2.971   3.000   6.336 -3.8349 -1.6630  0.9687
   77MOL   H14523097   2.969   3.055   6.501  0.0070 -0.6297  1.1859
   77MOL   H14623098   3.028   2.768   6.268  1.9841 -0.6767  0.3089
   77MOL   H14723099   3.104   2.700   6.411  0.0574  0.2083 -1.6166
   77MOL   H14823100   2.962   2.631   6.350 -3.4720  1.5388  0.8113
   77MOL   H14923101   3.038   2.499   6.744 -2.3627 -0.5499  1.3873
   77MOL   H15023102   2.968   2.629   6.835  0.8120  3.9665 -0.8403
   77MOL   H15123103   3.134   2.647   6.774 -1.8307  2.7485  1.1752
   77MOL   C15223104   2.785   2.843   6.448  0.3243  0.6851 -0.2547
   77MOL   C15323105   2.704   2.825   6.316 -0.2361 -0.0091  0.0763
   77MOL   C15423106   2.778   2.893   6.202 -0.4935  0.8847  0.5985
   77MOL   C15523107   2.693   2.679   6.267 -0.3534  0.2411 -1.0163
   77MOL   O15623108   2.725   2.578   6.329 -0.0715 -0.2499  0.3047
   77MOL   O15723109   2.648   2.676   6.143 -0.1387 -0.4574  0.2232
   77MOL   C15823110   2.611   2.558   6.074 -0.1815 -0.1642  0.1866
   77MOL   H15923111   2.757   2.935   6.500  0.6957 -0.0160  1.2224
   77MOL   H16023112   2.751   2.763   6.514 -1.6350 -0.3612 -2.4530
   77MOL   H16123113   2.798   2.995   6.233  1.3953  0.4368  0.9107
   77MOL   H16223114   2.870   2.838   6.180 -1.8498 -2.0918  2.1061
   77MOL   H16323115   2.726   2.888   6.106 -0.2923 -0.2239  0.5311
   77MOL   H16423116   2.689   2.482   6.063 -0.6061 -0.5813  0.0456
   77MOL   H16523117   2.581   2.593   5.974  0.0357 -0.2481  0.0930
   77MOL   H16623118   2.529   2.509   6.126  0.3948 -1.1921  0.1318
   77MOL   C16723119   2.562   2.889   6.323 -0.1831 -0.1306  0.5959
   77MOL   C16823120   2.445   2.860   6.426 -0.3793  0.1262 -0.4809
   77MOL   C16923121   2.378   2.737   6.356 -0.6653 -0.6464 -0.2932
   77MOL   C17023122   2.493   2.821   6.571 -1.0007  0.1904  0.6732
   77MOL   O17123123   2.506   2.905   6.655  0.0726  0.5036 -0.0352
   77MOL   O17223124   2.521   2.685   6.588 -0.1739 -0.1835  0.1518
   77MOL   C17323125   2.542   2.631   6.716 -0.1752 -0.0381 -0.6430
   77MOL   H17423126   2.523   2.906   6.223 -0.0080  2.3249  0.8977
   77MOL   H17523127   2.599   2.988   6.351  1.3732 -0.9689  1.5388
   77MOL   H17623128   2.433   2.644   6.373  3.1287  1.6829  0.7394
   77MOL   H17723129   2.279   2.715   6.397 -0.6747 -0.2504 -0.1001
   77MOL   H17823130   2.370   2.749   6.248 -1.3977 -2.6418 -0.4757
   77MOL   H17923131   2.613   2.551   6.691 -1.4989 -1.6160  0.5333
   77MOL   H18023132   2.451   2.579   6.747  0.2904 -1.6486 -1.8651
   77MOL   H18123133   2.585   2.701   6.787 -0.2381  0.4224 -1.0575
   77MOL   C18223134   2.323   2.969   6.444 -0.1705  0.1129 -0.3292
   77MOL   C18323135   2.351   3.122   6.461  0.0230 -0.1321 -0.4199
   77MOL   C18423136   2.478   3.160   6.538 -0.4981  0.1475 -0.0899
   77MOL   C18523137   2.376   3.181   6.314 -1.0401  0.4388  0.3535
   77MOL   O18623138   2.373   3.107   6.212 -0.3231  0.2376 -0.4822
   77MOL   O18723139   2.398   3.312   6.308  0.0153 -0.0856  0.3439
   77MOL   C18823140   2.409   3.376   6.183 -0.5162  0.0650 -0.2833
   77MOL   H18923141   2.273   2.920   6.528 -0.1208  0.1002 -0.3082
   77MOL   H19023142   2.248   2.965   6.365 -1.9676  2.0762  1.2232
   77MOL   H19123143   2.562   3.099   6.506 -0.6381  0.7959 -1.7146
   77MOL   H19223144   2.512   3.264   6.535  0.6863 -0.2875 -3.3381
   77MOL   H19323145   2.456   3.132   6.641  0.9402 -0.0241  0.1712
   77MOL   H19423146   2.489   3.337   6.121  1.2956 -1.1886  2.7526
   77MOL   H19523147   2.430   3.482   6.192  2.9375 -0.4965 -0.9479
   77MOL   H19623148   2.314   3.377   6.129  0.1967  0.4296 -1.5451
   77MOL   C19723149   2.233   3.196   6.531 -0.5334  0.4252 -0.4190
   77MOL   C19823150   2.085   3.224   6.486  0.4527 -0.4185  0.2434
   77MOL   C19923151   2.090   3.329   6.372  0.1201 -0.0494  0.4889
   77MOL   C20023152   2.030   3.082   6.431  0.2351 -0.4056 -0.3407
   77MOL   O20123153   1.992   3.064   6.323 -0.4990 -0.0465 -0.1753
   77MOL   O20223154   2.022   2.988   6.523 -0.1538  0.1498 -0.4080
   77MOL   C20323155   1.974   2.860   6.493 -0.5178 -0.2672 -0.9314
   77MOL   H20423156   2.274   3.284   6.581 -0.0240  0.6093 -1.1607
   77MOL   H20523157   2.220   3.134   6.620  0.0117  1.3075  0.2858
   77MOL   H20623158   1.989   3.358   6.343  0.2436  1.6769  1.7011
   77MOL   H20723159   2.143   3.420   6.401  3.6888 -1.6257 -0.8328
   77MOL   H20823160   2.132   3.285   6.282  1.7711  2.9813 -0.2828
   77MOL   H20923161   1.881   2.873   6.437 -0.9418 -1.4628 -0.5407
   77MOL   H21023162   1.949   2.802   6.583  0.3827  1.2846  0.3535
   77MOL   H21123163   2.049   2.810   6.432  2.9302  2.0522  1.2786
   77MOL   C21223164   1.996   3.272   6.610  0.6009  0.3456  0.3266
   77MOL   C21323165   1.855   3.343   6.610  0.1105 -0.3254  0.2600
   77MOL   C21423166   1.884   3.496   6.579 -0.0609  0.7342  0.0159
   77MOL   C21523167   1.760   3.284   6.499 -0.6923  0.0403 -0.9182
   77MOL   O21623168   1.719   3.345   6.399 -0.0116 -0.3640 -0.2522
   77MOL   O21723169   1.730   3.159   6.519 -0.7185  0.2053  0.6544
   77MOL   C21823170   1.648   3.083   6.433  0.0442 -0.2561  0.3862
   77MOL   H21923171   2.070   3.343   6.647  1.5687  1.1741 -3.0016
   77MOL   H22023172   2.004   3.199   6.690  0.8486 -1.2933 -1.1796
   77MOL   H22123173   1.983   3.528   6.612 -0.0079  1.3319 -0.6963
   77MOL   H22223174   1.876   3.502   6.470  0.1851  2.0616  0.0688
   77MOL   H22323175   1.806   3.562   6.615 -0.9749 -1.4444  2.1590
   77MOL   H22423176   1.595   3.144   6.360  0.7601  0.9872  0.8880
   77MOL   H22523177   1.566   3.032   6.484 -2.0557 -0.5373 -3.0789
   77MOL   H22623178   1.699   2.996   6.390  0.3004 -0.3117  0.7917
   77MOL   C22723179   1.794   3.321   6.755 -0.7469  0.4936 -0.6769
   77MOL   C22823180   1.690   3.410   6.826 -0.4596 -0.0895 -0.5275
   77MOL   C22923181   1.755   3.528   6.885 -0.0446  0.2815 -0.1512
   77MOL   C23023182   1.581   3.452   6.726  0.5384 -0.6582  0.1817
   77MOL   O23123183   1.563   3.571   6.699  0.2957  0.0667  0.1554
   77MOL   O23223184   1.513   3.354   6.673 -0.3331 -0.0315 -0.2104
   77MOL   C23323185   1.419   3.385   6.576  0.0166  0.0503 -0.1656
   77MOL   H23423186   1.883   3.339   6.814  0.0313 -2.7560 -0.7467
   77MOL   H23523187   1.773   3.215   6.769 -1.4748  0.6241 -0.7421
   77MOL   H23623188   1.817   3.497   6.969 -2.2165 -0.8140  1.1104
   77MOL   H23723189   1.824   3.579   6.818  0.2952 -0.2221 -0.1828
   77MOL   H23823190   1.684   3.602   6.923  1.1537  1.1556  0.4049
   77MOL   H23923191   1.324   3.419   6.618 -0.4370  1.3735 -2.1836
   77MOL   H24023192   1.389   3.288   6.538  2.1836 -0.4300 -0.6801
   77MOL   H24123193   1.439   3.457   6.497 -0.2374  0.5074  0.1792
   77MOL   C24223194   1.610   3.333   6.937  0.0505  0.4491 -0.4076
   77MOL   C24323195   1.660   3.294   7.079  0.3023  0.6822 -0.2913
   77MOL   C24423196   1.555   3.190   7.130  0.1324 -0.1896 -1.1417
   77MOL   C24523197   1.801   3.225   7.074  0.4917  0.0896  0.0894
   77MOL   O24623198   1.811   3.103   7.077 -0.2559  0.0624 -0.0695
   77MOL   O24723199   1.902   3.307   7.058 -0.3500 -0.6130  0.3766
   77MOL   C24823200   2.034   3.253   7.048 -0.0889 -0.5291 -0.1809
   77MOL   H24923201   1.588   3.239   6.886 -0.8145 -0.5797  1.7867
   77MOL   H25023202   1.513   3.377   6.956 -0.3377  0.0462 -1.3898
   77MOL   H25123203   1.461   3.245   7.133  1.1728  1.5671  0.2811
   77MOL   H25223204   1.550   3.100   7.068 -1.7048 -1.1750  0.3986
   77MOL   H25323205   1.578   3.153   7.229 -0.9151 -1.0277 -1.2068
   77MOL   H25423206   2.101   3.299   7.120 -1.0898  0.7363 -0.0374
   77MOL   H25523207   2.076   3.266   6.949 -1.1997  4.0720 -0.1555
   77MOL   H25623208   2.046   3.149   7.077 -0.2465 -0.2772  0.8109
   77MOL   C25723209   1.632   3.430   7.171  0.0549 -0.6029 -0.2861
   77MOL   C25823210   1.710   3.473   7.306 -0.1997 -0.0535  0.3665
   77MOL   C25923211   1.624   3.589   7.371 -0.9176 -0.0452  0.3820
   77MOL   C26023212   1.701   3.351   7.407 -0.1449  0.0856 -0.8763
   77MOL   O26123213   1.804   3.288   7.433 -0.0763 -0.1354 -0.1689
   77MOL   O26223214   1.581   3.316   7.443 -0.0249  0.1572  0.7261
   77MOL   C26323215   1.564   3.191   7.505  0.1963  0.3072 -0.1672
   77MOL   H26423216   1.526   3.429   7.196  0.2341  0.0940  0.5473
   77MOL   H26523217   1.626   3.523   7.114  0.1705 -0.8244 -0.6576
   77MOL   H26623218   1.650   3.609   7.475 -2.3756 -0.9586  0.9437
   77MOL   H26723219   1.624   3.684   7.318 -0.7180  0.6977  1.6935
   77MOL   H26823220   1.518   3.565   7.368 -1.2833  1.4911  0.7505
   77MOL   H26923221   1.457   3.166   7.505 -0.3617  2.5349  2.2247
   77MOL   H27023222   1.604   3.210   7.604 -1.1860  0.7036  0.3356
   77MOL   H27123223   1.626   3.111   7.465 -1.1193 -1.2645  0.8743
   77MOL   C27223224   1.857   3.514   7.270 -0.7317 -0.0310 -0.0104
   77MOL   C27323225   1.962   3.617   7.342 -0.3559 -0.0828 -1.4564
   77MOL   C27423226   2.099   3.595   7.276  0.4231 -0.6683 -0.2780
   77MOL   C27523227   1.916   3.764   7.325 -0.2385 -0.4491  0.5176
   77MOL   O27623228   1.947   3.822   7.222  0.2338  0.8207  0.0474
   77MOL   O27723229   1.844   3.810   7.422  0.2732  0.1984 -0.2643
   77MOL   C27823230   1.805   3.940   7.419 -0.3206  0.3596  0.4096
   77MOL   H27923231   1.858   3.561   7.172  0.6286  0.2765  0.1335
   77MOL   H28023232   1.904   3.416   7.263 -0.9382 -0.2705  1.7826
   77MOL   H28123233   2.159   3.685   7.291 -1.3572  0.3490  1.0054
   77MOL   H28223234   2.159   3.511   7.311  0.3851 -0.1685  1.0103
   77MOL   H28323235   2.087   3.584   7.168  0.8982 -1.1783 -0.2805
   77MOL   H28423236   1.728   3.946   7.342 -1.4806 -0.4315  1.4980
   77MOL   H28523237   1.887   4.012   7.412 -0.1715  0.2042  0.5839
   77MOL   H28623238   1.758   3.978   7.510 -0.6300  1.0206 -0.0218
   77MOL   C28723239   1.971   3.576   7.494  0.2323  0.0717 -0.3034
   77MOL   C28823240   2.044   3.661   7.604  0.0322  0.5987  0.8853
   77MOL   C28923241   1.976   3.651   7.746 -0.3888  0.0457 -0.4305
   77MOL   C29023242   2.195   3.639   7.611  0.1443  0.4850 -0.7053
   77MOL   O29123243   2.274   3.724   7.575  0.3198 -0.0733  0.6270
   77MOL   O29223244   2.231   3.522   7.657  0.3604 -0.2087 -0.5282
   77MOL   C29323245   2.362   3.493   7.689 -0.0573 -0.0981  0.1133
   77MOL   H29423246   2.013   3.475   7.491 -0.7230 -0.3463  0.2057
   77MOL   H29523247   1.869   3.564   7.529  1.4855 -2.6921  2.6551
   77MOL   H29623248   1.926   3.554   7.759  0.5069 -0.1993  1.3278
   77MOL   H29723249   2.057   3.652   7.818  0.2057 -5.6059 -0.8001
   77MOL   H29823250   1.911   3.735   7.767 -0.6078 -0.1093 -0.4817
   77MOL   H29923251   2.373   3.466   7.794  2.2621 -1.2737 -0.4042
   77MOL   H30023252   2.426   3.579   7.667 -0.6409 -0.0136 -1.3199
   77MOL   H30123253   2.398   3.410   7.629  0.6118 -1.0204  1.7607
   77MOL   H30223254   2.040   3.768   7.582  2.3065  0.3520 -0.8277
   78MOL     C123255   4.920   1.209   7.355 -0.1296  0.2082  0.3323
   78MOL     C223256   4.945   1.346   7.288  0.0989 -1.0627 -0.2662
   78MOL     C323257   4.937   1.316   7.136  0.1020  0.0203  0.1062
   78MOL     C423258   4.833   1.433   7.332  0.2267 -0.1323 -0.0309
   78MOL     O523259   4.741   1.454   7.257 -0.4267 -0.1008 -0.7557
   78MOL     O623260   4.833   1.480   7.457  0.3493 -0.6096 -0.2153
   78MOL     C723261   4.731   1.571   7.500 -0.2358 -0.5106 -0.0506
   78MOL     H823262   4.931   1.211   7.464  1.3885  1.2034  0.1774
   78MOL     H923263   4.817   1.176   7.338 -0.6064  0.4663  2.5444
   78MOL    H1023264   5.019   1.253   7.101 -1.2063 -3.4436  2.8744
   78MOL    H1123265   4.866   1.236   7.111 -0.3633  0.7214 -0.8526
   78MOL    H1223266   4.935   1.407   7.077 -2.6623 -0.4383 -0.5859
   78MOL    H1323267   4.746   1.676   7.476 -1.2270 -0.1566  0.8037
   78MOL    H1423268   4.730   1.571   7.609 -3.3795  1.3482 -0.0197
   78MOL    H1523269   4.636   1.532   7.465 -0.2639 -1.1694  0.7382
   78MOL    H1623270   4.992   1.139   7.313 -2.3519 -0.8710 -1.7684
   78MOL    C1723271   5.080   1.400   7.340 -0.2751  0.0895 -0.3172
   78MOL    C1823272   5.157   1.521   7.280 -0.5804 -0.3162 -0.2741
   78MOL    C1923273   5.068   1.642   7.270 -0.3335 -0.3036 -0.2040
   78MOL    C2023274   5.258   1.556   7.392  0.4960  0.7144  0.3722
   78MOL    O2123275   5.243   1.650   7.469 -0.0562  0.2599  0.4049
   78MOL    O2223276   5.353   1.467   7.400  0.0925 -0.3435 -0.2687
   78MOL    C2323277   5.446   1.459   7.513  0.3315 -1.4316 -0.0049
   78MOL    H2423278   5.150   1.316   7.338 -0.9308 -0.4999  1.1444
   78MOL    H2523279   5.065   1.413   7.447  1.3524 -3.6171  0.4562
   78MOL    H2623280   5.125   1.733   7.254  1.0914 -1.1067  0.1948
   78MOL    H2723281   4.998   1.625   7.188  0.5674 -0.0912 -1.0201
   78MOL    H2823282   5.006   1.656   7.359 -0.1018  2.1592 -0.4073
   78MOL    H2923283   5.550   1.461   7.480 -0.4149 -1.0011 -2.3663
   78MOL    H3023284   5.429   1.367   7.570  0.1135 -1.2940  0.1547
   78MOL    H3123285   5.439   1.544   7.581  0.3751 -0.1975 -1.5196
   78MOL    C3223286   5.223   1.493   7.135  0.1804  0.4058  0.8002
   78MOL    C3323287   5.354   1.560   7.086 -0.2023 -0.9398 -0.4698
   78MOL    C3423288   5.333   1.714   7.101  0.0219 -0.7565 -0.4976
   78MOL    C3523289   5.485   1.514   7.151 -0.4035  0.0245  1.3859
   78MOL    O3623290   5.565   1.589   7.198  0.2112 -0.5367 -0.2428
   78MOL    O3723291   5.500   1.378   7.159  0.4607  0.3437  0.6549
   78MOL    C3823292   5.632   1.330   7.183 -0.4779  0.2233  0.5036
   78MOL    H3923293   5.147   1.511   7.059 -0.4660 -1.3787  0.9973
   78MOL    H4023294   5.227   1.385   7.131 -0.2954  0.2271  3.7714
   78MOL    H4123295   5.239   1.754   7.063 -0.6606 -2.0947 -0.2468
   78MOL    H4223296   5.324   1.734   7.208 -0.8477 -0.9300 -0.5350
   78MOL    H4323297   5.420   1.759   7.054 -0.9083  1.9489  0.2844
   78MOL    H4423298   5.705   1.368   7.112 -0.5504 -1.1551 -0.3180
   78MOL    H4523299   5.639   1.222   7.171  1.2259  0.4073 -0.2285
   78MOL    H4623300   5.661   1.354   7.286  0.0121  0.3917  0.3254
   78MOL    C4723301   5.360   1.542   6.926  0.2269  0.3707 -0.4097
   78MOL    C4823302   5.343   1.416   6.830 -0.4161  0.3326  0.0192
   78MOL    C4923303   5.417   1.292   6.883 -1.2243 -0.3953  0.2473
   78MOL    C5023304   5.192   1.376   6.819 -0.5223  0.4860 -0.2320
   78MOL    O5123305   5.160   1.257   6.841  0.7786  0.2870  0.0302
   78MOL    O5223306   5.100   1.468   6.794 -0.2614  0.0553  0.2375
   78MOL    C5323307   4.965   1.421   6.761 -0.1161 -0.0362  0.5005
   78MOL    H5423308   5.458   1.578   6.893  0.6756 -0.2165  0.2883
   78MOL    H5523309   5.280   1.609   6.893  0.8436 -0.3852 -3.6770
   78MOL    H5623310   5.379   1.263   6.981 -0.9690 -1.6071  0.0048
   78MOL    H5723311   5.404   1.201   6.825 -0.8898  0.4470 -1.1584
   78MOL    H5823312   5.525   1.306   6.886 -1.1724 -0.8809  0.7029
   78MOL    H5923313   4.891   1.495   6.734 -1.4703 -1.2900  0.7090
   78MOL    H6023314   4.913   1.362   6.837 -0.9774 -0.4555 -0.3999
   78MOL    H6123315   4.965   1.363   6.668  0.8922  0.1336  0.3838
   78MOL    C6223316   5.403   1.464   6.689 -0.2775 -1.1162 -0.3032
   78MOL    C6323317   5.371   1.420   6.542 -0.3016 -0.2137 -0.1247
   78MOL    C6423318   5.381   1.272   6.528  0.4726  0.6116  0.5702
   78MOL    C6523319   5.221   1.453   6.501  0.8311  0.0398 -0.1549
   78MOL    O6623320   5.144   1.371   6.458  0.0679  0.4040  0.0873
   78MOL    O6723321   5.193   1.583   6.508  0.5021  0.2124 -0.2788
   78MOL    C6823322   5.065   1.637   6.482 -1.2728  0.5286  0.2479
   78MOL    H6923323   5.512   1.465   6.690 -0.2834  1.6594 -0.8450
   78MOL    H7023324   5.386   1.571   6.682  0.2939 -1.1254 -1.9661
   78MOL    H7123325   5.331   1.228   6.441 -0.8168  0.6223  1.2904
   78MOL    H7223326   5.484   1.240   6.538  0.5554  1.4489  2.6233
   78MOL    H7323327   5.322   1.229   6.609 -0.1505 -0.6064 -0.5076
   78MOL    H7423328   5.085   1.737   6.445  2.5706  0.2344  1.2290
   78MOL    H7523329   5.012   1.632   6.577 -1.1909  0.7815  0.3060
   78MOL    H7623330   5.001   1.596   6.404  0.5126  0.6533 -1.3246
   78MOL    C7723331   5.479   1.503   6.446 -0.4830  0.1795  0.1618
   78MOL    C7823332   5.489   1.502   6.289 -0.2706 -0.3898  0.0812
   78MOL    C7923333   5.513   1.349   6.251 -0.0685 -0.1459  0.5332
   78MOL    C8023334   5.363   1.559   6.214 -0.0690 -0.2152 -0.0312
   78MOL    O8123335   5.307   1.499   6.124  0.2021 -0.3202 -0.1093
   78MOL    O8223336   5.317   1.673   6.269  0.2695  0.0709  0.1086
   78MOL    C8323337   5.212   1.738   6.205 -0.5029  0.2889  0.1183
   78MOL    H8423338   5.574   1.462   6.482 -0.0457  1.7178  0.8035
   78MOL    H8523339   5.474   1.610   6.465 -0.7535  0.0685  0.7632
   78MOL    H8623340   5.423   1.291   6.229 -0.9368  0.6961  1.7938
   78MOL    H8723341   5.582   1.355   6.166 -0.5495 -0.1276  0.1421
   78MOL    H8823342   5.574   1.282   6.312 -0.2735 -1.9829 -1.2051
   78MOL    H8923343   5.235   1.766   6.102 -0.8937  1.8975  0.4563
   78MOL    H9023344   5.194   1.832   6.256  0.8894  0.7831 -0.2897
   78MOL    H9123345   5.116   1.686   6.209 -2.1038  3.2452  1.3738
   78MOL    C9223346   5.617   1.588   6.256  1.0253  0.2745 -0.1853
   78MOL    C9323347   5.654   1.652   6.115  0.6342  0.2677  0.2285
   78MOL    C9423348   5.628   1.550   5.997  0.2281 -0.3917  0.9796
   78MOL    C9523349   5.552   1.770   6.091 -0.6139  0.1234 -0.2119
   78MOL    O9623350   5.472   1.774   5.998 -0.6244  0.5295  0.0735
   78MOL    O9723351   5.562   1.863   6.187 -0.5646  0.0176 -0.4253
   78MOL    C9823352   5.483   1.981   6.170  1.0955  0.1863  0.3615
   78MOL    H9923353   5.701   1.527   6.289 -0.3005 -1.8627 -0.6413
   78MOL   H10023354   5.616   1.666   6.332  1.4066 -0.5822  0.7163
   78MOL   H10123355   5.525   1.525   5.974  0.3315  0.4125 -0.3985
   78MOL   H10223356   5.652   1.601   5.904 -0.3245  1.1449  1.6628
   78MOL   H10323357   5.673   1.452   5.988 -0.8445 -0.6231 -2.7480
   78MOL   H10423358   5.525   2.058   6.236  2.0096 -0.3450  0.4107
   78MOL   H10523359   5.382   1.958   6.204  0.2124  1.2331 -1.4853
   78MOL   H10623360   5.488   2.011   6.066 -1.2138  0.8614  0.4164
   78MOL   C10723361   5.792   1.707   6.105  0.4552  0.1916  0.1733
   78MOL   C10823362   5.913   1.627   6.049 -0.2968  0.1409 -0.3398
   78MOL   C10923363   5.919   1.492   6.130  0.2592 -0.6647 -0.1712
   78MOL   C11023364   5.905   1.604   5.895 -0.7034  0.3253  0.2460
   78MOL   O11123365   5.920   1.487   5.858  0.1397  0.1877  0.1382
   78MOL   O11223366   5.894   1.720   5.821 -0.3716  0.0933 -0.4434
   78MOL   C11323367   5.872   1.709   5.685  0.0326  0.1780 -0.1374
   78MOL   H11423368   5.817   1.739   6.207  0.2388 -2.3236  1.0519
   78MOL   H11523369   5.788   1.790   6.034  0.7776  0.7950  0.8499
   78MOL   H11623370   6.006   1.433   6.100  1.0223 -0.1108  0.9280
   78MOL   H11723371   5.938   1.507   6.236 -1.3512  0.2509  0.0125
   78MOL   H11823372   5.825   1.437   6.134 -1.0490  1.5100 -0.2529
   78MOL   H11923373   5.940   1.637   5.638  0.6811  1.4519 -1.1686
   78MOL   H12023374   5.877   1.809   5.644 -2.4744  1.3505  2.2621
   78MOL   H12123375   5.766   1.684   5.684 -0.4838  2.3291 -2.4111
   78MOL   C12223376   6.043   1.723   6.074 -0.4247 -0.0085  0.2455
   78MOL   C12323377   6.189   1.672   6.099  0.7352  1.0294 -0.2255
   78MOL   C12423378   6.187   1.605   6.235 -0.8282  0.6878 -0.5206
   78MOL   C12523379   6.213   1.570   5.982  0.3056 -0.0467 -0.0520
   78MOL   O12623380   6.223   1.450   6.004 -0.1941 -0.9727  0.9251
   78MOL   O12723381   6.221   1.620   5.859 -0.5823  0.2602  0.2912
   78MOL   C12823382   6.244   1.531   5.752 -0.3916  0.1005  0.1204
   78MOL   H12923383   6.019   1.807   6.139  1.4892 -0.6897  1.8701
   78MOL   H13023384   6.046   1.779   5.980 -2.2334  1.1989  0.8733
   78MOL   H13123385   6.098   1.627   6.293 -1.0840  1.5781 -1.2368
   78MOL   H13223386   6.193   1.497   6.228 -2.5819  0.5555 -0.1727
   78MOL   H13323387   6.263   1.636   6.307 -1.2052 -2.0886  1.1304
   78MOL   H13423388   6.241   1.589   5.660  1.4477  0.7164  0.4351
   78MOL   H13523389   6.161   1.459   5.757 -0.1185 -0.1074  1.9259
   78MOL   H13623390   6.334   1.470   5.757 -1.8271 -2.1266 -0.1288
   78MOL   C13723391   6.288   1.796   6.085  0.4618  0.3856  0.2694
   78MOL   C13823392   6.439   1.783   6.089  0.0747  0.4565  0.6454
   78MOL   C13923393   6.485   1.682   6.195 -0.4126 -0.2869 -0.7009
   78MOL   C14023394   6.490   1.731   5.955  0.0923 -0.8439  0.1240
   78MOL   O14123395   6.549   1.625   5.954  0.6989 -0.2067  0.2621
   78MOL   O14223396   6.479   1.819   5.845  0.3803  0.5959  0.7386
   78MOL   C14323397   6.551   1.785   5.727  0.2635  0.1857 -1.4225
   78MOL   H14423398   6.248   1.883   6.137  1.6109  0.4482  1.0681
   78MOL   H14523399   6.259   1.843   5.991 -2.9575 -0.2194  0.9813
   78MOL   H14623400   6.591   1.661   6.182 -0.4758 -1.0771  0.0209
   78MOL   H14723401   6.483   1.723   6.297 -1.2756  0.8353 -1.1615
   78MOL   H14823402   6.437   1.585   6.187 -1.9605  0.2768  1.2459
   78MOL   H14923403   6.517   1.839   5.638 -2.2449  1.5085  0.2806
   78MOL   H15023404   6.545   1.678   5.705 -2.3834 -0.0188  0.1427
   78MOL   H15123405   6.657   1.809   5.719  0.4720 -0.4915 -0.7825
   78MOL   C15223406   6.498   1.926   6.104  0.2854 -0.6268 -0.2340
   78MOL   C15323407   6.652   1.966   6.137  0.1842 -0.2793  0.3254
   78MOL   C15423408   6.645   2.119   6.172 -0.3037  0.0027 -0.2627
   78MOL   C15523409   6.703   1.892   6.264  0.3255  0.7116 -0.2562
   78MOL   O15623410   6.803   1.818   6.252 -0.3075  0.3117 -0.7266
   78MOL   O15723411   6.636   1.929   6.383  0.3750  0.4120  0.1978
   78MOL   C15823412   6.672   1.875   6.507 -0.1114  0.3360 -0.3529
   78MOL   H15923413   6.447   1.965   6.192  0.0432 -1.6461  0.0820
   78MOL   H16023414   6.454   1.988   6.025  0.3854 -0.7234 -0.3630
   78MOL   H16123415   6.632   2.189   6.090  1.7891  0.2369 -0.4145
   78MOL   H16223416   6.579   2.146   6.254  2.5949  2.1792  1.4514
   78MOL   H16323417   6.739   2.160   6.209 -0.2438 -0.7595  0.4427
   78MOL   H16423418   6.779   1.871   6.522 -0.2383  1.0029  0.7705
   78MOL   H16523419   6.634   1.773   6.514  2.0608 -0.5510 -1.0498
   78MOL   H16623420   6.631   1.933   6.590  0.0355  1.2526 -0.9083
   78MOL   C16723421   6.746   1.934   6.012  0.1979 -0.1176 -0.4557
   78MOL   C16823422   6.889   1.997   5.985  0.4171  0.0066  0.6540
   78MOL   C16923423   6.954   1.893   5.891 -0.5506  0.2269 -0.6032
   78MOL   C17023424   6.861   2.129   5.897 -0.3970 -0.3629  0.1114
   78MOL   O17123425   6.828   2.233   5.948 -0.6251  0.2152  0.7920
   78MOL   O17223426   6.877   2.113   5.762  0.5579  0.3903 -0.0218
   78MOL   C17323427   6.865   2.229   5.687  0.0919 -0.7116 -0.4249
   78MOL   H17423428   6.684   1.956   5.926 -2.1920 -2.3906  0.6419
   78MOL   H17523429   6.766   1.827   6.021  0.1837 -0.0193  0.9260
   78MOL   H17623430   6.885   1.864   5.812  0.7240 -0.5242 -1.4633
   78MOL   H17723431   7.047   1.921   5.841 -0.0203 -1.6702 -0.7279
   78MOL   H17823432   6.990   1.801   5.936 -0.9089 -0.1155 -1.0188
   78MOL   H17923433   6.763   2.266   5.690 -0.1562 -1.5484  3.0919
   78MOL   H18023434   6.869   2.191   5.584 -0.4766 -1.7647 -0.0733
   78MOL   H18123435   6.952   2.293   5.700  0.8530 -1.7405 -0.3743
   78MOL   C18223436   6.978   2.016   6.112  0.3400  0.2207  0.1414
   78MOL   C18323437   7.109   2.109   6.115 -0.2811  0.5516 -0.6021
   78MOL   C18423438   7.189   2.085   5.988 -0.3160 -0.0750 -0.1263
   78MOL   C18523439   7.066   2.254   6.125  0.5783 -0.5337  0.4308
   78MOL   O18623440   7.118   2.340   6.051  0.0133  0.5653  0.4273
   78MOL   O18723441   6.967   2.292   6.209  0.4867  0.0404 -0.1481
   78MOL   C18823442   6.926   2.429   6.207  0.1489  0.4211  0.5166
   78MOL   H18923443   7.016   1.916   6.134  1.7236  0.2793 -1.8619
   78MOL   H19023444   6.920   2.053   6.197 -1.0665 -0.2655 -0.5782
   78MOL   H19123445   7.206   1.979   5.969  0.4517 -0.6218  3.3423
   78MOL   H19223446   7.146   2.135   5.901 -1.6248 -0.7642  0.0976
   78MOL   H19323447   7.285   2.132   6.008  1.2287 -2.6822 -1.2781
   78MOL   H19423448   6.847   2.434   6.131  0.4760 -3.2886 -0.1521
   78MOL   H19523449   7.003   2.501   6.180  1.3172 -0.2403  2.0275
   78MOL   H19623450   6.875   2.451   6.300  0.1708  2.3213  0.0993
   78MOL   C19723451   7.189   2.058   6.244 -0.0695  0.1616 -0.0369
   78MOL   C19823452   7.305   2.127   6.320 -0.1678 -0.1868  0.1780
   78MOL   C19923453   7.412   2.188   6.224  0.2346  0.4335  0.2945
   78MOL   C20023454   7.244   2.250   6.392 -0.4279  0.5222  0.7180
   78MOL   O20123455   7.269   2.366   6.352 -0.3520  0.5687  0.0565
   78MOL   O20223456   7.162   2.221   6.489 -0.1805  0.1887  0.1668
   78MOL   C20323457   7.119   2.323   6.578  0.3303  0.1873  0.4274
   78MOL   H20423458   7.227   1.962   6.208 -2.8844 -1.2192  0.5878
   78MOL   H20523459   7.109   2.047   6.316 -0.9126 -2.2297 -1.2998
   78MOL   H20623460   7.490   2.231   6.288  0.0160 -0.6692  1.3192
   78MOL   H20723461   7.450   2.107   6.162  0.8624 -0.2914  1.5833
   78MOL   H20823462   7.379   2.274   6.167  0.8049  0.1461 -0.4764
   78MOL   H20923463   7.027   2.276   6.613  0.1534 -1.4573 -2.1419
   78MOL   H21023464   7.084   2.414   6.529 -1.1079  0.3011  1.6104
   78MOL   H21123465   7.180   2.348   6.665  1.8001 -0.6166 -0.3552
   78MOL   C21223466   7.388   2.032   6.419 -0.5933 -1.0114 -0.2261
   78MOL   C21323467   7.345   1.969   6.560  0.2360  0.7258  0.3506
   78MOL   C21423468   7.350   2.075   6.665 -0.2490 -0.2194  0.5187
   78MOL   C21523469   7.208   1.900   6.546 -0.5862  0.3687 -0.7409
   78MOL   O21623470   7.105   1.937   6.599  0.0129  0.3312  0.8119
   78MOL   O21723471   7.215   1.802   6.451  0.3283 -0.0111 -0.3413
   78MOL   C21823472   7.100   1.729   6.410 -0.7418 -0.2717 -0.1514
   78MOL   H21923473   7.485   2.080   6.435 -0.4531 -1.0527 -0.9407
   78MOL   H22023474   7.412   1.951   6.350 -1.1109 -0.4489 -1.0872
   78MOL   H22123475   7.436   2.058   6.730  0.4470  0.9853 -0.0767
   78MOL   H22223476   7.367   2.170   6.615 -0.1723 -1.0780 -1.1196
   78MOL   H22323477   7.258   2.095   6.720 -0.4040 -2.2923  1.0585
   78MOL   H22423478   7.103   1.628   6.452  1.0344 -0.3772 -0.5159
   78MOL   H22523479   7.093   1.720   6.301  1.9237  0.2986 -0.4054
   78MOL   H22623480   7.007   1.778   6.440 -1.8114 -2.4815  0.2687
   78MOL   C22723481   7.453   1.856   6.597  0.6266 -0.3050 -0.0443
   78MOL   C22823482   7.444   1.755   6.720 -0.5958 -0.9874  0.2135
   78MOL   C22923483   7.388   1.623   6.669 -0.2402  0.0258  0.0903
   78MOL   C23023484   7.588   1.727   6.766  0.1651  0.4307  0.2149
   78MOL   O23123485   7.654   1.632   6.706  0.1299 -0.0199  0.2295
   78MOL   O23223486   7.636   1.825   6.848 -0.4276 -0.1636 -0.0553
   78MOL   C23323487   7.781   1.834   6.862  1.3075 -0.5065 -0.3079
   78MOL   H23423488   7.546   1.914   6.602  0.0306  0.4450  3.0265
   78MOL   H23523489   7.481   1.810   6.502  1.9825 -0.3243  0.3549
   78MOL   H23623490   7.386   1.552   6.752 -2.0012  0.5214  0.4967
   78MOL   H23723491   7.287   1.643   6.632 -0.3603 -0.4603  0.1504
   78MOL   H23823492   7.443   1.590   6.581 -0.3827  2.6051 -0.9938
   78MOL   H23923493   7.824   1.798   6.768  2.7728  2.6669 -0.9442
   78MOL   H24023494   7.811   1.766   6.942  0.3114 -2.0027 -1.1855
   78MOL   H24123495   7.809   1.938   6.881 -2.5135  0.3839  0.7431
   78MOL   C24223496   7.357   1.817   6.838  0.0626  0.5568  0.6790
   78MOL   C24323497   7.299   1.730   6.965  0.0291  1.1171  0.1602
   78MOL   C24423498   7.174   1.646   6.927  0.5112 -0.0334 -0.3967
   78MOL   C24523499   7.411   1.638   7.019  0.2492  0.2820 -0.2885
   78MOL   O24623500   7.396   1.515   7.022 -0.5175 -0.5955  0.6509
   78MOL   O24723501   7.518   1.705   7.070  0.1827  0.0191  0.2018
   78MOL   C24823502   7.616   1.630   7.145 -0.0098 -0.2212 -0.4874
   78MOL   H24923503   7.261   1.833   6.789  0.0530 -2.1929 -0.2731
   78MOL   H25023504   7.404   1.910   6.869 -1.5937  1.5632  0.2198
   78MOL   H25123505   7.096   1.704   6.878  0.6849  0.7194  0.2041
   78MOL   H25223506   7.204   1.568   6.857  1.5608 -0.3757  0.4226
   78MOL   H25323507   7.137   1.593   7.015  1.9250  1.2379  1.0043
   78MOL   H25423508   7.637   1.530   7.109  0.2081 -0.9344  1.5368
   78MOL   H25523509   7.592   1.629   7.252  1.9114 -0.2120 -0.0495
   78MOL   H25623510   7.703   1.695   7.141 -0.6546  0.7046  0.1766
   78MOL   C25723511   7.257   1.837   7.067  0.8647  0.1166 -0.9046
   78MOL   C25823512   7.158   1.819   7.192  0.4071 -0.1978  0.2731
   78MOL   C25923513   7.013   1.810   7.135 -0.0767 -0.0410 -0.7011
   78MOL   C26023514   7.181   1.686   7.268  0.1112 -0.9042  0.0905
   78MOL   O26123515   7.103   1.590   7.271 -0.4025 -0.4782 -0.2799
   78MOL   O26223516   7.308   1.683   7.319 -0.6457  0.1069 -0.3636
   78MOL   C26323517   7.352   1.561   7.386  0.1348  0.0872  0.6788
   78MOL   H26423518   7.231   1.928   7.012  2.1558  1.0762  0.0503
   78MOL   H26523519   7.344   1.873   7.121 -0.2538 -1.3036  1.9743
   78MOL   H26623520   6.930   1.833   7.202 -1.0153  0.8504 -2.1370
   78MOL   H26723521   6.988   1.883   7.058  0.9665  2.1991  1.0244
   78MOL   H26823522   6.978   1.712   7.101 -1.0890  0.4201 -1.0045
   78MOL   H26923523   7.370   1.474   7.323 -0.4833 -0.9825  1.9634
   78MOL   H27023524   7.278   1.524   7.457 -1.3305  1.0474 -0.3208
   78MOL   H27123525   7.448   1.589   7.428  0.2476 -0.8467  1.0557
   78MOL   C27223526   7.163   1.933   7.298  0.2933 -0.0317  0.4695
   78MOL   C27323527   7.170   2.085   7.261 -1.0814 -0.1444 -0.0534
   78MOL   C27423528   7.305   2.129   7.206  0.2102 -0.5459  0.2131
   78MOL   C27523529   7.056   2.125   7.161 -0.2039 -0.0943 -0.1107
   78MOL   O27623530   7.080   2.168   7.051 -0.2349 -0.3779  0.5775
   78MOL   O27723531   6.925   2.112   7.220  0.3149  0.9575  0.3602
   78MOL   C27823532   6.815   2.171   7.148  0.1245 -0.1080 -0.5358
   78MOL   H27923533   7.256   1.916   7.352 -0.6496 -4.0847  0.9664
   78MOL   H28023534   7.082   1.912   7.367  1.5961 -4.3028  0.8524
   78MOL   H28123535   7.323   2.236   7.193 -0.4477 -0.4812 -0.1712
   78MOL   H28223536   7.386   2.084   7.264 -1.3892 -2.3408  1.1114
   78MOL   H28323537   7.322   2.096   7.103 -0.3745 -1.7580  0.4946
   78MOL   H28423538   6.718   2.137   7.184  0.4875 -1.7299 -1.0574
   78MOL   H28523539   6.830   2.146   7.043  0.2394  0.2116 -0.5964
   78MOL   H28623540   6.816   2.280   7.156  0.9890 -0.1830  0.6013
   78MOL   C28723541   7.151   2.163   7.392 -0.2358 -0.2771 -0.3159
   78MOL   C28823542   7.149   2.322   7.393 -0.3990  0.2058 -0.0977
   78MOL   C28923543   7.008   2.372   7.376 -0.0762 -0.1206  0.9128
   78MOL   C29023544   7.218   2.375   7.524  0.9946  0.0094 -0.3800
   78MOL   O29123545   7.148   2.420   7.620  0.1744 -0.4851  0.1919
   78MOL   O29223546   7.350   2.354   7.521 -0.4230 -0.2469 -0.0122
   78MOL   C29323547   7.424   2.383   7.639 -0.4450  0.1572 -0.0825
   78MOL   H29423548   7.229   2.131   7.462 -2.3619 -0.5261  2.0035
   78MOL   H29523549   7.064   2.116   7.438  0.4786 -0.4289  0.9211
   78MOL   H29623550   6.939   2.320   7.442 -0.6599  0.0611  0.4502
   78MOL   H29723551   7.010   2.475   7.413 -2.0221 -0.4805  2.1148
   78MOL   H29823552   6.975   2.379   7.273  0.5947  3.0770  0.8663
   78MOL   H29923553   7.530   2.394   7.616 -0.0028  2.1019  2.5574
   78MOL   H30023554   7.427   2.285   7.685 -1.7343 -0.5701 -1.5166
   78MOL   H30123555   7.387   2.456   7.712 -0.7771 -0.0445 -0.0494
   78MOL   H30223556   7.217   2.350   7.313  1.0660 -4.1539 -0.5045
   79MOL     C123557   2.469   3.465   6.977 -0.2285 -0.2991 -0.2377
   79MOL     C223558   2.383   3.564   6.890 -0.1421  0.5152 -0.1177
   79MOL     C323559   2.261   3.489   6.834 -0.1410 -0.4779  0.1703
   79MOL     C423560   2.319   3.676   6.981  0.1377 -0.3254  0.4522
   79MOL     O523561   2.336   3.684   7.103 -0.5240  0.3779 -0.2973
   79MOL     O623562   2.248   3.769   6.911  0.0115 -0.2556 -0.2381
   79MOL     C723563   2.162   3.845   6.984 -0.1478 -0.6218  0.1934
   79MOL     H823564   2.412   3.417   7.057  1.9842 -1.6169  0.5995
   79MOL     H923565   2.495   3.380   6.914 -1.7765 -1.5384  0.7511
   79MOL    H1023566   2.275   3.383   6.814  1.6919 -0.5060  1.4464
   79MOL    H1123567   2.186   3.494   6.913  0.0773 -0.0641  0.3571
   79MOL    H1223568   2.208   3.529   6.748  1.2137  0.2377 -0.3453
   79MOL    H1323569   2.064   3.836   6.937  0.5962 -1.8273 -1.1356
   79MOL    H1423570   2.190   3.951   6.990 -0.8847 -0.3102 -1.5549
   79MOL    H1523571   2.143   3.808   7.085  0.8210 -0.1060  0.5746
   79MOL    H1623572   2.554   3.504   7.032  1.1001 -2.6241 -0.6262
   79MOL    C1723573   2.464   3.629   6.770 -0.3524 -0.1552 -0.5891
   79MOL    C1823574   2.605   3.692   6.791 -0.3684  0.2052  0.0713
   79MOL    C1923575   2.627   3.776   6.920 -0.3219  0.2946  0.5387
   79MOL    C2023576   2.709   3.581   6.777  0.3852  0.0837  0.2449
   79MOL    O2123577   2.682   3.464   6.734 -0.2930  0.0793  0.0544
   79MOL    O2223578   2.831   3.618   6.813  0.0041 -0.2606 -0.2282
   79MOL    C2323579   2.933   3.520   6.829 -0.0555  1.4275 -0.2821
   79MOL    H2423580   2.397   3.702   6.726 -0.4606  0.1546  0.0742
   79MOL    H2523581   2.471   3.552   6.693 -0.8233 -0.2929 -0.4967
   79MOL    H2623582   2.603   3.714   7.006  0.1765 -0.5421  0.0832
   79MOL    H2723583   2.728   3.811   6.942  0.2584 -1.1874  0.3485
   79MOL    H2823584   2.566   3.865   6.912  1.0679  1.2114 -0.0672
   79MOL    H2923585   2.887   3.421   6.823 -0.7706  1.7425 -0.0461
   79MOL    H3023586   3.001   3.533   6.913  0.0279 -1.5971  0.1876
   79MOL    H3123587   3.006   3.509   6.748  1.6020 -2.1524  1.5556
   79MOL    C3223588   2.626   3.813   6.683  0.2235  0.3464 -0.4496
   79MOL    C3323589   2.654   3.785   6.529  0.7348  0.1327 -0.4101
   79MOL    C3423590   2.799   3.728   6.511  0.1810 -0.2949 -0.5139
   79MOL    C3523591   2.551   3.684   6.466  0.9340  0.1744  0.3388
   79MOL    O3623592   2.581   3.572   6.423 -0.3394 -0.2779 -0.0558
   79MOL    O3723593   2.427   3.731   6.465  0.1670 -0.2353  0.4415
   79MOL    C3823594   2.314   3.644   6.446 -0.1849  0.2851  0.2689
   79MOL    H3923595   2.713   3.876   6.702  0.1826  0.3269 -0.1903
   79MOL    H4023596   2.541   3.878   6.701  0.5527  0.4936  0.6286
   79MOL    H4123597   2.866   3.769   6.586  1.6902 -1.5201 -1.1642
   79MOL    H4223598   2.812   3.620   6.515 -0.3270 -0.3162  0.6138
   79MOL    H4323599   2.848   3.766   6.421 -0.6387  1.3103 -0.3035
   79MOL    H4423600   2.301   3.572   6.527  0.1232 -2.6179 -2.1648
   79MOL    H4523601   2.323   3.595   6.348  0.5878  2.0527 -0.5634
   79MOL    H4623602   2.225   3.707   6.451  1.1040  2.3361 -1.5933
   79MOL    C4723603   2.625   3.934   6.461 -0.2153 -0.6022  0.7619
   79MOL    C4823604   2.619   3.958   6.299  0.1311 -0.5586  0.3921
   79MOL    C4923605   2.641   4.115   6.285  1.1435 -0.0237  0.2266
   79MOL    C5023606   2.729   3.882   6.221 -0.4221 -0.5906 -0.0908
   79MOL    O5123607   2.825   3.934   6.165  0.2518 -0.1644 -0.2841
   79MOL    O5223608   2.703   3.752   6.216  0.3930 -1.1221 -0.3457
   79MOL    C5323609   2.776   3.668   6.132  0.5259  0.1532 -0.0334
   79MOL    H5423610   2.675   4.014   6.514 -0.7540  0.0619  0.2825
   79MOL    H5523611   2.531   3.970   6.502  0.4883  2.0812  0.0829
   79MOL    H5623612   2.554   4.167   6.325  0.4800  0.3223 -1.5959
   79MOL    H5723613   2.733   4.142   6.338  0.5062 -0.2751  1.4695
   79MOL    H5823614   2.645   4.163   6.187  0.5407 -0.3127  0.0613
   79MOL    H5923615   2.720   3.638   6.043  1.8396  0.3161 -0.9272
   79MOL    H6023616   2.790   3.581   6.196  1.1979  0.7187  0.6020
   79MOL    H6123617   2.867   3.712   6.091 -0.4703  0.4675 -1.9674
   79MOL    C6223618   2.473   3.926   6.241 -0.1343 -0.1443  0.4760
   79MOL    C6323619   2.403   3.980   6.110 -0.8791 -0.0395 -0.2142
   79MOL    C6423620   2.346   4.126   6.142  0.1602  0.2650  0.3034
   79MOL    C6523621   2.499   3.985   5.986 -0.0317  0.5691  0.4034
   79MOL    O6623622   2.526   4.095   5.932 -0.2783  0.3968  0.2037
   79MOL    O6723623   2.554   3.872   5.965 -0.1781 -0.0693 -0.0438
   79MOL    C6823624   2.666   3.872   5.874  0.1603  0.1353  0.2949
   79MOL    H6923625   2.403   3.955   6.320  3.1136  0.6650  3.1879
   79MOL    H7023626   2.474   3.817   6.239 -2.4464 -0.2046  1.4201
   79MOL    H7123627   2.284   4.164   6.060  1.9642 -1.0056 -1.7059
   79MOL    H7223628   2.298   4.140   6.239  1.3650  0.6482  0.8589
   79MOL    H7323629   2.423   4.203   6.149 -0.1605  0.7889 -1.7200
   79MOL    H7423630   2.628   3.905   5.777  1.9738  0.5706 -0.2914
   79MOL    H7523631   2.698   3.768   5.860 -0.9768 -0.0169 -1.3143
   79MOL    H7623632   2.748   3.941   5.895  0.2973 -0.1656  0.7522
   79MOL    C7723633   2.275   3.901   6.083  0.7117  0.5453  0.3937
   79MOL    C7823634   2.203   3.878   5.944  0.2993 -0.0686 -0.2571
   79MOL    C7923635   2.201   4.009   5.853 -0.2414  0.3525  0.2749
   79MOL    C8023636   2.278   3.765   5.865 -0.2787 -0.2122 -0.0253
   79MOL    O8123637   2.270   3.762   5.739  0.0636  0.2014 -0.4582
   79MOL    O8223638   2.349   3.678   5.939 -0.3316 -0.1685  0.0117
   79MOL    C8323639   2.431   3.583   5.869 -0.9648  0.2694  0.5730
   79MOL    H8423640   2.200   3.948   6.146 -0.5247  1.4280 -1.7297
   79MOL    H8523641   2.283   3.798   6.120 -0.6008  0.1475 -0.4096
   79MOL    H8623642   2.300   4.043   5.822  0.1880 -0.1916  1.0069
   79MOL    H8723643   2.144   4.005   5.761  0.6589 -0.9638 -0.2465
   79MOL    H8823644   2.148   4.086   5.908 -0.0999 -0.8035  2.1194
   79MOL    H8923645   2.416   3.481   5.905  1.3853 -0.3939 -0.2251
   79MOL    H9023646   2.535   3.614   5.869 -0.9224  0.1423  1.7472
   79MOL    H9123647   2.404   3.579   5.764 -1.4649  1.1191  0.6576
   79MOL    C9223648   2.047   3.836   5.963 -0.1495 -0.5525  0.0523
   79MOL    C9323649   1.994   3.714   6.051 -0.8854  0.2015 -0.1079
   79MOL    C9423650   2.059   3.571   6.034  0.0992 -0.0904  0.1927
   79MOL    C9523651   2.008   3.751   6.198 -0.2544 -0.8649  0.1975
   79MOL    O9623652   2.064   3.675   6.276 -0.2872  0.0934  0.0748
   79MOL    O9723653   1.958   3.867   6.229  0.2122  0.1574 -0.7063
   79MOL    C9823654   1.957   3.916   6.366  0.0644  0.3124  0.7523
   79MOL    H9923655   2.020   3.811   5.861 -3.0892  1.6166  0.2172
   79MOL   H10023656   1.991   3.928   5.981  0.6096  0.2373 -1.5865
   79MOL   H10123657   2.015   3.501   6.104  0.7999  0.7094  1.4440
   79MOL   H10223658   2.044   3.538   5.931  0.4048  1.4817 -0.3732
   79MOL   H10323659   2.167   3.565   6.050  0.9183 -0.7682 -4.6244
   79MOL   H10423660   2.061   3.921   6.400  0.4246  0.2156 -0.3197
   79MOL   H10523661   1.891   3.858   6.431 -0.9650  0.7079  0.0696
   79MOL   H10623662   1.909   4.013   6.363  0.0680  0.3063  0.5031
   79MOL   C10723663   1.841   3.697   6.031 -0.1441  0.8230  0.1220
   79MOL   C10823664   1.763   3.655   5.901  0.3669  0.0651  0.6628
   79MOL   C10923665   1.792   3.750   5.778 -0.1358 -0.7203  0.2520
   79MOL   C11023666   1.782   3.510   5.847  0.6352 -0.3330 -0.4078
   79MOL   O11123667   1.837   3.423   5.917  0.3467 -0.2506  0.2887
   79MOL   O11223668   1.729   3.484   5.729 -0.6067  0.3940  0.4173
   79MOL   C11323669   1.721   3.352   5.686  0.3797  0.0688 -0.5140
   79MOL   H11423670   1.800   3.794   6.059 -2.9258 -0.8796  2.1781
   79MOL   H11523671   1.806   3.625   6.105  0.4590 -0.8568 -1.1838
   79MOL   H11623672   1.717   3.745   5.698  1.1171 -1.7801 -0.8800
   79MOL   H11723673   1.796   3.852   5.815 -1.8182 -0.6377  0.2718
   79MOL   H11823674   1.887   3.724   5.731  1.1687  2.6746  0.8546
   79MOL   H11923675   1.800   3.278   5.673  1.4661 -0.1037  5.5816
   79MOL   H12023676   1.693   3.370   5.582 -0.1728 -0.6146 -0.4883
   79MOL   H12123677   1.631   3.300   5.720 -0.2888  1.0416 -0.7643
   79MOL   C12223678   1.605   3.676   5.927  0.0926 -0.2264  0.5031
   79MOL   C12323679   1.527   3.629   6.052 -0.6998  0.0400  0.1521
   79MOL   C12423680   1.557   3.481   6.087  0.3792 -0.4745  0.2862
   79MOL   C12523681   1.554   3.725   6.174  0.0123 -0.1707  0.9146
   79MOL   O12623682   1.579   3.842   6.157  0.4433 -0.7436 -0.5117
   79MOL   O12723683   1.545   3.655   6.286  0.1540 -0.0612  0.0508
   79MOL   C12823684   1.575   3.717   6.410  0.6259  0.5590  0.3383
   79MOL   H12923685   1.554   3.647   5.835  1.1377  0.2870 -0.2377
   79MOL   H13023686   1.593   3.784   5.926 -0.6052 -0.3114 -1.7204
   79MOL   H13123687   1.516   3.403   6.023 -1.6424  1.3152 -0.6536
   79MOL   H13223688   1.665   3.468   6.097  0.5322  0.9779  0.6250
   79MOL   H13323689   1.540   3.455   6.192 -0.6828  0.5806  0.3953
   79MOL   H13423690   1.497   3.790   6.432 -0.2458  0.1242 -1.2146
   79MOL   H13523691   1.662   3.781   6.399  1.3225 -0.4611 -0.1196
   79MOL   H13623692   1.596   3.632   6.475  1.1446  0.4372  0.0080
   79MOL   C13723693   1.373   3.641   6.017 -0.4905  1.0732 -0.1601
   79MOL   C13823694   1.248   3.627   6.114 -0.7868  0.1743  0.0261
   79MOL   C13923695   1.126   3.608   6.024  0.5749 -0.0542 -0.3835
   79MOL   C14023696   1.260   3.497   6.193  0.9209 -0.1639  0.2537
   79MOL   O14123697   1.272   3.496   6.312  0.1854  0.6471 -0.5505
   79MOL   O14223698   1.268   3.391   6.119 -0.8526  0.0872  0.1800
   79MOL   C14323699   1.287   3.264   6.179 -0.2396 -0.8063 -0.8675
   79MOL   H14423700   1.361   3.575   5.931  0.1751  0.9246 -0.1398
   79MOL   H14523701   1.360   3.738   5.970 -2.0763 -0.0326 -2.0668
   79MOL   H14623702   1.136   3.528   5.950  0.6829  0.5326 -1.0162
   79MOL   H14723703   1.029   3.579   6.065 -0.7170  2.2097 -1.7183
   79MOL   H14823704   1.119   3.692   5.955  2.1653 -0.3318 -0.8953
   79MOL   H14923705   1.393   3.257   6.205 -0.4118  2.5335  1.0081
   79MOL   H15023706   1.258   3.182   6.113  0.9409 -0.4335 -1.8609
   79MOL   H15123707   1.244   3.246   6.278 -2.2753 -1.3772 -1.8327
   79MOL   C15223708   1.237   3.762   6.198 -0.4752  0.5573  0.5641
   79MOL   C15323709   1.108   3.809   6.281  0.9020 -0.4578  0.5461
   79MOL   C15423710   1.087   3.699   6.392  0.0842  0.0997 -0.6622
   79MOL   C15523711   1.149   3.942   6.352  0.4947 -0.1484  0.3111
   79MOL   O15623712   1.251   4.003   6.325 -0.5775 -0.2473 -0.6670
   79MOL   O15723713   1.068   3.976   6.453  0.3703  0.7806  0.4399
   79MOL   C15823714   1.095   4.098   6.525 -0.3240 -0.0749 -0.1963
   79MOL   H15923715   1.244   3.839   6.121 -0.6300 -0.0917 -0.1056
   79MOL   H16023716   1.322   3.764   6.267  0.3660  2.3819 -0.4997
   79MOL   H16123717   1.027   3.738   6.473  1.8327  3.3630 -0.8321
   79MOL   H16223718   1.038   3.615   6.343  1.9793 -2.5954  1.9189
   79MOL   H16323719   1.180   3.661   6.434  0.0566  0.7027 -0.0425
   79MOL   H16423720   1.104   4.182   6.456 -1.9124  0.5351  0.3160
   79MOL   H16523721   1.175   4.079   6.597 -1.0923 -1.0263  0.4273
   79MOL   H16623722   1.009   4.121   6.588 -0.1332 -1.3898  0.5663
   79MOL   C16723723   0.973   3.824   6.195  0.4829 -0.4877  0.3170
   79MOL   C16823724   0.836   3.889   6.243  0.0445 -0.1642  0.1875
   79MOL   C16923725   0.784   3.811   6.369  0.3356 -0.6410 -0.3407
   79MOL   C17023726   0.838   4.042   6.265  0.0814  0.1891  0.0755
   79MOL   O17123727   0.907   4.113   6.197  0.4627  0.1991  0.7226
   79MOL   O17223728   0.761   4.091   6.356 -0.0622 -0.2578  0.0979
   79MOL   C17323729   0.777   4.221   6.395 -0.4128  0.3251 -0.4315
   79MOL   H17423730   0.940   3.726   6.162  1.0749  0.2495 -2.5808
   79MOL   H17523731   1.002   3.878   6.105 -0.6911 -1.2279 -0.5188
   79MOL   H17623732   0.819   3.708   6.371 -0.2824 -0.8385  0.5073
   79MOL   H17723733   0.821   3.865   6.456 -0.7647  1.0921 -0.9208
   79MOL   H17823734   0.676   3.804   6.375  0.2920 -1.0820 -1.4928
   79MOL   H17923735   0.730   4.246   6.490 -0.8890 -1.9253 -0.0379
   79MOL   H18023736   0.753   4.294   6.318 -1.2501  1.4310  0.8638
   79MOL   H18123737   0.883   4.241   6.408 -0.3293  0.5971 -1.5231
   79MOL   C18223738   0.733   3.862   6.128  0.1472 -0.4093 -0.4936
   79MOL   C18323739   0.588   3.922   6.103  0.4638 -0.1733  0.0728
   79MOL   C18423740   0.504   3.921   6.227  0.3259 -0.1215 -0.2552
   79MOL   C18523741   0.590   4.073   6.057  0.0065  0.1993 -0.2916
   79MOL   O18623742   0.497   4.154   6.081 -0.6204  0.1793  0.0986
   79MOL   O18723743   0.699   4.107   5.986 -0.0347 -0.2162  0.0784
   79MOL   C18823744   0.722   4.235   5.936 -0.6388  0.2900 -0.2318
   79MOL   H18923745   0.734   3.754   6.117  0.7108 -0.3760 -0.8003
   79MOL   H19023746   0.799   3.890   6.046  1.3013 -0.3759  0.4354
   79MOL   H19123747   0.401   3.954   6.215  1.2873  3.8890  1.6409
   79MOL   H19223748   0.493   3.819   6.264  0.3864  0.3437  1.0780
   79MOL   H19323749   0.544   3.981   6.309 -0.7895 -0.7074  0.7323
   79MOL   H19423750   0.640   4.270   5.873 -0.5814  1.7367  0.4696
   79MOL   H19523751   0.816   4.240   5.882 -0.8148 -0.4569 -0.6155
   79MOL   H19623752   0.724   4.305   6.019 -1.3567  1.2876 -1.0444
   79MOL   C19723753   0.514   3.838   6.000 -0.0845  0.4339 -0.1921
   79MOL   C19823754   0.543   3.826   5.841 -0.0749  0.1901  0.2351
   79MOL   C19923755   0.696   3.790   5.818  1.0272  0.4148  0.5210
   79MOL   C20023756   0.456   3.710   5.798  0.4125 -0.1458  0.3704
   79MOL   O20123757   0.498   3.607   5.751 -0.1030 -0.2642 -0.0734
   79MOL   O20223758   0.331   3.731   5.825  1.1009  0.2445 -0.3118
   79MOL   C20323759   0.243   3.617   5.820 -1.1453 -0.3640 -0.5634
   79MOL   H20423760   0.410   3.870   6.012 -1.3234 -3.2208 -0.4698
   79MOL   H20523761   0.523   3.738   6.041 -1.0320 -0.5495 -2.2930
   79MOL   H20623762   0.723   3.752   5.719  0.4899  1.1970  0.0580
   79MOL   H20723763   0.750   3.883   5.833  0.3379  0.8892  0.0941
   79MOL   H20823764   0.717   3.704   5.881 -0.6811  0.1470  0.7731
   79MOL   H20923765   0.291   3.523   5.849  0.7664  0.3234 -1.4234
   79MOL   H21023766   0.201   3.597   5.722  0.2013  1.1697 -1.4734
   79MOL   H21123767   0.167   3.635   5.896  0.1912  2.7378  0.0984
   79MOL   C21223768   0.511   3.959   5.759  0.2203 -0.2546 -0.0326
   79MOL   C21323769   0.481   3.952   5.602 -0.2328 -0.1001  0.4463
   79MOL   C21423770   0.524   4.086   5.547 -0.3365  0.4911  0.0943
   79MOL   C21523771   0.558   3.838   5.520 -0.3297 -0.4250 -0.7076
   79MOL   O21623772   0.509   3.733   5.484  0.2795  0.1702  0.4062
   79MOL   O21723773   0.687   3.875   5.505  0.3589 -0.1475 -0.3879
   79MOL   C21823774   0.758   3.795   5.416 -0.0162  0.9070 -0.3774
   79MOL   H21923775   0.597   4.024   5.773 -0.0569 -0.2032  1.5313
   79MOL   H22023776   0.434   4.020   5.806  0.2850 -0.3623  0.2096
   79MOL   H22123777   0.513   4.103   5.440 -1.0033 -1.8528 -0.2386
   79MOL   H22223778   0.464   4.158   5.603 -0.9338  0.4753 -0.5125
   79MOL   H22323779   0.627   4.111   5.573  0.0269 -2.8926  2.2406
   79MOL   H22423780   0.855   3.772   5.460 -0.1306  0.4031 -0.3884
   79MOL   H22523781   0.767   3.856   5.326 -0.2197  1.7424  0.1606
   79MOL   H22623782   0.715   3.696   5.401 -0.2923  0.4384  3.2351
   79MOL   C22723783   0.327   3.937   5.582 -0.2519 -0.3641 -0.0842
   79MOL   C22823784   0.241   3.982   5.451 -0.1110 -0.2275 -0.4330
   79MOL   C22923785   0.104   3.902   5.470 -0.4356 -0.8808 -0.4545
   79MOL   C23023786   0.194   4.137   5.446 -0.0892 -0.6824 -0.3714
   79MOL   O23123787   0.079   4.165   5.437  0.8692 -0.3250 -0.8163
   79MOL   O23223788   0.295   4.227   5.462  0.1272  0.2662  0.4274
   79MOL   C23323789   0.269   4.362   5.463  0.8308 -0.0723  0.2337
   79MOL   H23423790   0.271   3.968   5.671  1.0566  1.5953  0.0980
   79MOL   H23523791   0.305   3.831   5.584  0.9065 -0.6175 -0.3129
   79MOL   H23623792   0.020   3.932   5.407  0.2865  1.2238 -0.4454
   79MOL   H23723793   0.116   3.794   5.459  1.4228 -0.5604 -1.9447
   79MOL   H23823794   0.070   3.921   5.571 -0.7601  0.4893 -0.8081
   79MOL   H23923795   0.204   4.379   5.377  2.0505 -0.9604 -0.8669
   79MOL   H24023796   0.361   4.419   5.452  0.8820 -0.4751 -1.5441
   79MOL   H24123797   0.215   4.388   5.554 -0.7286  2.7495 -1.4174
   79MOL   C24223798   0.317   3.936   5.315  0.0690 -0.4240  0.3393
   79MOL   C24323799   0.266   3.978   5.170 -0.0910  0.7749 -0.2905
   79MOL   C24423800   0.283   4.130   5.154  0.0958  0.3590 -0.2987
   79MOL   C24523801   0.353   3.904   5.065  0.4082  0.0588 -0.0576
   79MOL   O24623802   0.420   3.968   4.986 -0.0588 -0.3200  0.2002
   79MOL   O24723803   0.354   3.767   5.080  0.0224  0.0432  0.5567
   79MOL   C24823804   0.418   3.692   4.979 -0.2254 -0.0466 -0.6903
   79MOL   H24923805   0.321   3.827   5.321 -1.7224 -0.6366 -1.6811
   79MOL   H25023806   0.424   3.961   5.318  0.0024 -0.1317  0.3056
   79MOL   H25123807   0.379   4.158   5.198  0.6813 -0.9191 -0.7386
   79MOL   H25223808   0.289   4.169   5.052  1.5053  1.8605  0.3325
   79MOL   H25323809   0.203   4.190   5.197 -0.7408  0.0729 -1.4429
   79MOL   H25423810   0.363   3.696   4.885  1.4340 -0.4743 -1.7058
   79MOL   H25523811   0.420   3.585   5.003  3.1590 -0.3534 -2.0160
   79MOL   H25623812   0.518   3.727   4.954 -0.0648  0.7471  0.9801
   79MOL   C25723813   0.119   3.943   5.141  0.3250 -0.3842  0.3350
   79MOL   C25823814   0.038   3.943   5.004  0.1453 -0.1528 -0.0708
   79MOL   C25923815   0.085   4.053   4.904  0.5179  0.2258 -0.6664
   79MOL   C26023816   0.056   3.808   4.930 -0.4995 -0.7563 -0.0379
   79MOL   O26123817   0.056   3.706   4.991 -0.3996  0.0797  0.5851
   79MOL   O26223818   0.075   3.815   4.799  0.1019 -0.6328 -0.4465
   79MOL   C26323819   0.091   3.700   4.718  0.6198  0.1577 -0.3511
   79MOL   H26423820   0.070   4.010   5.211 -0.0500 -0.8523  0.5216
   79MOL   H26523821   0.114   3.840   5.176  1.7573 -1.3310 -2.1797
   79MOL   H26623822   0.190   4.045   4.877  0.3453 -1.7634 -0.7847
   79MOL   H26723823   0.020   4.063   4.817 -0.5549 -1.4491 -0.0845
   79MOL   H26823824   0.070   4.145   4.960 -0.5399  1.1978 -2.4871
   79MOL   H26923825   0.042   3.711   4.621  0.2968 -0.7548 -0.2919
   79MOL   H27023826   0.044   3.614   4.766  1.8267 -0.4927 -0.3373
   79MOL   H27123827   0.197   3.684   4.698  0.4831 -1.3777  0.1126
   79MOL   C27223828   7.762   3.951   5.043 -0.1869 -0.0419  0.4855
   79MOL   C27323829   7.654   4.009   4.949 -0.2165  0.7042  0.0533
   79MOL   C27423830   7.660   4.170   4.935 -0.4465 -0.1797 -0.4052
   79MOL   C27523831   7.660   3.944   4.813 -0.2452 -0.9576  0.3469
   79MOL   O27623832   7.684   3.999   4.707 -0.9980 -0.1407 -0.1825
   79MOL   O27723833   7.631   3.817   4.821  0.1638  0.1901 -0.0948
   79MOL   C27823834   7.618   3.738   4.709  0.6831 -1.0515 -0.1855
   79MOL   H27923835   7.755   4.016   5.130 -1.8457 -3.8584  3.3483
   79MOL   H28023836   7.731   3.854   5.082  1.5505 -0.6678  0.3751
   79MOL   H28123837   7.741   4.198   4.867  1.1674 -0.1064  1.5034
   79MOL   H28223838   7.574   4.218   4.889  0.2417  0.4353 -1.0612
   79MOL   H28323839   7.685   4.209   5.034  0.9099  1.0000 -1.1805
   79MOL   H28423840   7.706   3.676   4.694 -0.8557 -2.7294 -2.5578
   79MOL   H28523841   7.590   3.795   4.621 -2.5024 -0.5626  1.0967
   79MOL   H28623842   7.528   3.678   4.720 -0.0938  0.1484  0.0661
   79MOL   C28723843   7.506   3.976   5.017 -0.1367 -0.4277 -0.3581
   79MOL   C28823844   7.462   4.049   5.146 -0.1444  0.4679  0.2902
   79MOL   C28923845   7.308   4.052   5.152 -0.3185 -0.4155 -0.8004
   79MOL   C29023846   7.511   3.985   5.277 -0.3768 -0.0908 -0.2018
   79MOL   O29123847   7.494   3.866   5.307 -0.3973 -0.5160  0.1770
   79MOL   O29223848   7.582   4.077   5.353  0.4355  0.2761  0.0553
   79MOL   C29323849   7.652   4.024   5.464  0.9013 -0.3433  0.4500
   79MOL   H29423850   7.501   3.868   5.035  2.9594 -0.4432  0.6305
   79MOL   H29523851   7.430   4.007   4.945  0.6186  1.6441 -0.2969
   79MOL   H29623852   7.274   4.123   5.076 -0.5159  2.6586  2.0443
   79MOL   H29723853   7.268   3.953   5.132 -1.6661  0.4317 -2.3897
   79MOL   H29823854   7.264   4.092   5.244 -0.8788  2.6835 -2.3459
   79MOL   H29923855   7.699   3.927   5.448 -1.3226 -1.6071  1.3290
   79MOL   H30023856   7.586   4.025   5.551  0.0381 -1.9610 -0.1699
   79MOL   H30123857   7.734   4.087   5.498 -0.8532  1.5730  1.2456
   79MOL   H30223858   7.488   4.155   5.151 -1.0240  0.6194  1.7959
   80MOL     C123859   6.445   6.008   5.891 -0.2403 -0.3646 -0.2010
   80MOL     C223860   6.398   5.876   5.970  0.2308 -0.0548 -0.1547
   80MOL     C323861   6.383   5.923   6.115 -0.1130 -0.3484 -0.9659
   80MOL     C423862   6.263   5.827   5.908  0.2311  0.2318 -0.7543
   80MOL     O523863   6.173   5.787   5.982 -0.8183 -0.5717  0.0699
   80MOL     O623864   6.267   5.816   5.764  0.3816  0.5283  0.3403
   80MOL     C723865   6.140   5.780   5.707  0.8688 -0.2402  0.1635
   80MOL     H823866   6.445   5.991   5.784 -0.6384 -1.2201 -0.0696
   80MOL     H923867   6.375   6.091   5.901 -1.0083 -0.2333 -5.6419
   80MOL    H1023868   6.362   5.849   6.193 -1.2785  1.9971  1.0073
   80MOL    H1123869   6.473   5.973   6.149 -1.0372 -1.3051  3.1402
   80MOL    H1223870   6.299   5.991   6.127  0.7062  0.6317 -0.7886
   80MOL    H1323871   6.059   5.845   5.738 -0.2113 -1.9556  1.0499
   80MOL    H1423872   6.103   5.682   5.738 -1.4268  0.3692 -0.5216
   80MOL    H1523873   6.149   5.784   5.599  0.5097 -0.9346  0.0999
   80MOL    H1623874   6.542   6.050   5.918 -0.3038 -0.7155  0.6156
   80MOL    C1723875   6.511   5.768   5.959  0.0352 -0.1835  0.5830
   80MOL    C1823876   6.495   5.613   5.992  0.2303  0.4242 -0.1480
   80MOL    C1923877   6.410   5.592   6.120 -0.0344 -0.2109  0.2938
   80MOL    C2023878   6.427   5.528   5.884  0.2373 -0.3751  0.0647
   80MOL    O2123879   6.365   5.427   5.905 -0.0608 -0.0762  0.6509
   80MOL    O2223880   6.450   5.588   5.762 -0.0937  0.8312 -0.0111
   80MOL    C2323881   6.398   5.516   5.649 -0.0784 -0.1950  0.5137
   80MOL    H2423882   6.590   5.806   6.023  1.0564 -0.4798 -0.4879
   80MOL    H2523883   6.545   5.779   5.856  1.0963 -0.4271  0.9033
   80MOL    H2623884   6.447   5.656   6.201  1.3733  1.1802 -1.4059
   80MOL    H2723885   6.302   5.605   6.114 -0.1212  1.1722  3.4627
   80MOL    H2823886   6.415   5.488   6.153 -0.5383 -0.4576 -0.4224
   80MOL    H2923887   6.291   5.532   5.638  0.2752  1.0160 -1.5922
   80MOL    H3023888   6.416   5.409   5.656 -0.7787 -0.3992 -0.6476
   80MOL    H3123889   6.451   5.547   5.558 -0.5124 -1.8384 -0.3276
   80MOL    C3223890   6.642   5.562   6.033  0.8113 -0.4408 -0.1108
   80MOL    C3323891   6.765   5.535   5.932  0.7312  0.3538  0.5126
   80MOL    C3423892   6.723   5.424   5.824  0.2583  0.3336  0.1414
   80MOL    C3523893   6.806   5.663   5.838 -0.1135  0.7441 -0.0560
   80MOL    O3623894   6.848   5.650   5.718 -0.0775  0.0750  0.4032
   80MOL    O3723895   6.804   5.780   5.898  0.4157  0.0298 -0.3198
   80MOL    C3823896   6.855   5.897   5.831 -0.1154 -0.0698  0.4151
   80MOL    H3923897   6.614   5.463   6.069  0.1360 -0.3141 -0.2824
   80MOL    H4023898   6.679   5.617   6.120  1.6079  1.5711 -1.6714
   80MOL    H4123899   6.656   5.345   5.857 -1.2251 -0.0349 -3.4614
   80MOL    H4223900   6.663   5.465   5.742 -1.8361  0.4733  1.7030
   80MOL    H4323901   6.805   5.372   5.774 -1.5335 -0.8858 -1.6475
   80MOL    H4423902   6.813   5.992   5.866  1.1877  1.7429 -2.7617
   80MOL    H4523903   6.850   5.901   5.722 -2.5721 -1.5126  0.4267
   80MOL    H4623904   6.960   5.906   5.860 -0.1249 -2.0305  1.1210
   80MOL    C4723905   6.888   5.475   6.008  0.1939  0.1804 -0.0980
   80MOL    C4823906   6.953   5.525   6.142 -0.4247  0.2426 -0.0247
   80MOL    C4923907   6.971   5.683   6.146 -0.1840 -0.0100 -0.5090
   80MOL    C5023908   6.878   5.488   6.273 -0.4706  0.8174 -0.1001
   80MOL    O5123909   6.785   5.414   6.269 -0.1303 -0.0382 -0.4830
   80MOL    O5223910   6.935   5.542   6.378  0.0397  0.1267  0.6770
   80MOL    C5323911   6.862   5.536   6.497  1.0928  0.0406  0.6777
   80MOL    H5423912   6.962   5.492   5.930 -0.6706 -0.2122 -1.0149
   80MOL    H5523913   6.863   5.369   6.014 -2.8794  0.9012  0.9028
   80MOL    H5623914   7.005   5.713   6.245  1.1445 -1.4573 -0.5030
   80MOL    H5723915   7.039   5.713   6.066 -1.6117 -0.3535 -1.8915
   80MOL    H5823916   6.885   5.746   6.125  0.6967  0.6757 -2.1595
   80MOL    H5923917   6.923   5.564   6.582  1.6946 -0.1288  0.3068
   80MOL    H6023918   6.838   5.431   6.515  0.0176 -0.0618 -1.1702
   80MOL    H6123919   6.774   5.599   6.490  2.1871  1.4486 -0.7018
   80MOL    C6223920   7.103   5.479   6.153  0.0988  1.1058 -0.5178
   80MOL    C6323921   7.146   5.324   6.133 -0.0838  0.4223 -0.3829
   80MOL    C6423922   7.049   5.233   6.213  0.2308  0.5375  0.2651
   80MOL    C6523923   7.135   5.283   5.984 -0.6503 -0.5552 -0.0042
   80MOL    O6623924   7.110   5.168   5.956  0.2574  0.1980  0.6704
   80MOL    O6723925   7.161   5.372   5.903  0.0509  0.9698  0.1139
   80MOL    C6823926   7.142   5.346   5.761 -0.1795  0.8759  0.2584
   80MOL    H6923927   7.129   5.509   6.255  0.5722  1.4670 -0.7441
   80MOL    H7023928   7.171   5.546   6.100  1.2199 -0.8975 -1.6734
   80MOL    H7123929   6.947   5.225   6.176  0.3498 -0.8168  0.2166
   80MOL    H7223930   7.088   5.132   6.220 -0.6946  0.2014  0.7499
   80MOL    H7323931   7.045   5.269   6.316 -0.6078  0.4570  0.2675
   80MOL    H7423932   7.125   5.440   5.709 -0.8833  1.0129  0.7180
   80MOL    H7523933   7.051   5.287   5.748  0.7539 -0.1584 -1.7179
   80MOL    H7623934   7.223   5.293   5.713 -1.1337  1.8215 -2.4790
   80MOL    C7723935   7.284   5.279   6.181 -0.4176 -0.8225  0.2785
   80MOL    C7823936   7.412   5.367   6.185 -0.0793  0.3702 -0.2889
   80MOL    C7923937   7.434   5.422   6.040  0.4228  0.1579 -0.6918
   80MOL    C8023938   7.404   5.484   6.290 -1.2433 -0.1512 -0.3102
   80MOL    O8123939   7.421   5.600   6.260  0.8353  0.1206 -0.2509
   80MOL    O8223940   7.360   5.441   6.411  0.3728  0.3546 -0.4826
   80MOL    C8323941   7.331   5.541   6.506 -0.2665  0.4263  0.1335
   80MOL    H8423942   7.315   5.187   6.131 -1.6599 -0.7227 -0.7097
   80MOL    H8523943   7.268   5.245   6.283  2.1908 -0.1347  0.9520
   80MOL    H8623944   7.467   5.346   5.969  0.1756 -2.9751  2.4125
   80MOL    H8723945   7.352   5.480   5.999 -2.8804 -3.2624  0.7366
   80MOL    H8823946   7.516   5.493   6.042 -1.0265  1.8576 -0.6472
   80MOL    H8923947   7.268   5.502   6.586  0.5674 -0.1186  0.5346
   80MOL    H9023948   7.272   5.613   6.450  2.5709  2.5282 -0.2472
   80MOL    H9123949   7.430   5.563   6.546  0.4768 -0.0328 -1.4210
   80MOL    C9223950   7.525   5.266   6.219  0.3695  0.5253  0.1116
   80MOL    C9323951   7.671   5.299   6.269  0.1303  0.6221 -0.1818
   80MOL    C9423952   7.741   5.166   6.239 -0.6014 -0.4136  0.2624
   80MOL    C9523953   7.731   5.411   6.188  0.6567  0.2121 -0.1686
   80MOL    O9623954   7.753   5.526   6.231  0.9878  0.5255  0.1040
   80MOL    O9723955   7.737   5.390   6.050 -0.0262  0.4348  0.1830
   80MOL    C9823956   7.798   5.487   5.964 -0.2685  0.3183 -0.2605
   80MOL    H9923957   7.532   5.205   6.128  0.7202  0.0676  0.4436
   80MOL   H10023958   7.489   5.201   6.299  0.0709 -1.2487 -1.4143
   80MOL   H10123959   7.848   5.172   6.262 -0.7449  0.4283  0.7348
   80MOL   H10223960   7.713   5.079   6.297  0.2695  0.0100  1.3264
   80MOL   H10323961   7.740   5.133   6.135 -0.6459 -0.2082  0.1985
   80MOL   H10423962   7.837   5.452   5.869  3.5677  0.2632  1.2750
   80MOL   H10523963   0.010   5.528   6.010 -0.5834  1.2864 -0.4887
   80MOL   H10623964   7.730   5.571   5.948  0.4394  0.5414 -2.2302
   80MOL   C10723965   7.668   5.339   6.422  0.4904 -0.1289 -0.4544
   80MOL   C10823966   7.787   5.343   6.517  0.3427  0.0382 -0.4795
   80MOL   C10923967   7.744   5.435   6.634 -0.1871 -0.2316  0.1926
   80MOL   C11023968   7.798   5.207   6.587 -0.3172 -0.4299  0.1063
   80MOL   O11123969   7.759   5.101   6.537 -0.3939  0.3159 -0.1358
   80MOL   O11223970   7.859   5.205   6.705  0.1305 -0.2402 -0.0762
   80MOL   C11323971   7.865   5.092   6.785 -0.0338 -0.0981 -0.5589
   80MOL   H11423972   7.596   5.265   6.458 -0.9206  1.5535  0.2366
   80MOL   H11523973   7.615   5.434   6.430 -0.5311 -0.8577  1.9233
   80MOL   H11623974   7.825   5.441   6.706 -0.7083  0.2570  0.7481
   80MOL   H11723975   7.720   5.534   6.595 -0.5379 -0.0670  0.8066
   80MOL   H11823976   7.656   5.405   6.693 -1.9470  1.7611 -1.3411
   80MOL   H11923977   0.088   5.087   6.826  0.3777  2.3349 -1.1848
   80MOL   H12023978   7.854   4.996   6.734  1.1692 -0.5797  0.0839
   80MOL   H12123979   7.797   5.094   6.870  1.0684 -1.4007  0.3710
   80MOL   C12223980   0.043   5.407   6.459 -0.3924 -0.1006 -0.5175
   80MOL   C12323981   0.193   5.385   6.510  0.2097  0.4203  0.1588
   80MOL   C12423982   0.209   5.436   6.659  0.7294 -0.3353 -0.6976
   80MOL   C12523983   0.230   5.228   6.499  0.5709  1.2307  0.1795
   80MOL   O12623984   0.192   5.156   6.404  0.6901 -0.1318 -0.1460
   80MOL   O12723985   0.299   5.182   6.607 -0.1809  0.3072 -0.4712
   80MOL   C12823986   0.318   5.044   6.615  0.1862 -0.5163 -0.5093
   80MOL   H12923987   0.020   5.512   6.439  2.4041  0.4629 -1.0728
   80MOL   H13023988   0.050   5.361   6.360  2.3110  0.8397 -0.8069
   80MOL   H13123989   0.314   5.429   6.687  0.4969  1.9246  0.9368
   80MOL   H13223990   0.158   5.531   6.675  2.5912  0.3570  1.4631
   80MOL   H13323991   0.172   5.367   6.735  4.5054  0.1059  1.6779
   80MOL   H13423992   0.366   5.016   6.522 -2.2389  0.7053 -2.1737
   80MOL   H13523993   0.223   4.991   6.614  0.6342 -1.3494  0.2633
   80MOL   H13623994   0.379   5.013   6.700 -3.1371 -1.7397  1.5105
   80MOL   C13723995   0.277   5.479   6.413  0.1730  0.1863  0.0564
   80MOL   C13823996   0.436   5.494   6.403  0.6312 -0.0906 -0.5299
   80MOL   C13923997   0.491   5.516   6.541 -0.2903  0.2040 -0.4471
   80MOL   C14023998   0.514   5.372   6.346 -0.8396 -0.2788 -0.4536
   80MOL   O14123999   0.614   5.328   6.402  0.9368 -0.4744 -0.3108
   80MOL   O14224000   0.452   5.321   6.231  0.2833 -0.4069  0.0053
   80MOL   C14324001   0.496   5.196   6.184  0.2980  0.2872  0.8601
   80MOL   H14424002   0.239   5.578   6.437  0.1820  0.1164  0.3632
   80MOL   H14524003   0.237   5.470   6.312 -0.2705  3.0537 -0.0628
   80MOL   H14624004   0.497   5.426   6.602  1.9212  0.8404  0.3429
   80MOL   H14724005   0.594   5.553   6.537  0.3604 -1.3944  0.9062
   80MOL   H14824006   0.436   5.587   6.604 -0.3382  0.8990 -1.2551
   80MOL   H14924007   0.453   5.121   6.250 -2.4207  1.1606  0.1366
   80MOL   H15024008   0.605   5.186   6.186  0.1909 -1.8323 -1.2584
   80MOL   H15124009   0.469   5.181   6.079  1.2716  1.2592  0.4566
   80MOL   C15224010   0.471   5.616   6.318 -0.5016  0.2879 -0.2152
   80MOL   C15324011   0.410   5.764   6.341  0.2043  0.0806  0.2634
   80MOL   C15424012   0.394   5.795   6.487 -0.6592  0.3047 -0.8799
   80MOL   C15524013   0.513   5.858   6.279  0.0332 -0.3175 -0.2137
   80MOL   O15624014   0.558   5.950   6.341 -0.8024 -0.3146 -0.7190
   80MOL   O15724015   0.528   5.841   6.147  0.5536 -0.0120 -0.0197
   80MOL   C15824016   0.603   5.926   6.069  0.4075 -0.7826 -0.1512
   80MOL   H15924017   0.455   5.594   6.212  0.0391  0.3943 -0.3178
   80MOL   H16024018   0.580   5.613   6.325 -0.2066  5.0139 -1.2186
   80MOL   H16124019   0.487   5.779   6.542  0.2512  2.6143 -1.6732
   80MOL   H16224020   0.372   5.901   6.499 -1.0129  0.1254  0.1583
   80MOL   H16324021   0.314   5.736   6.533  1.0595 -0.5435  1.1480
   80MOL   H16424022   0.706   5.922   6.106  0.6698  0.2530 -0.7342
   80MOL   H16524023   0.587   6.033   6.084  0.6905 -1.3623  5.1954
   80MOL   H16624024   0.612   5.895   5.965  0.5160 -0.6423 -0.1835
   80MOL   C16724025   0.275   5.776   6.262  0.4242  0.4132 -0.3435
   80MOL   C16824026   0.169   5.891   6.279  0.1573 -0.8159 -0.6789
   80MOL   C16924027   0.086   5.866   6.411 -0.3297 -0.3675 -0.6126
   80MOL   C17024028   0.238   6.029   6.285 -0.5476  0.0118 -0.6391
   80MOL   O17124029   0.256   6.097   6.390  0.2673 -0.1380 -0.5350
   80MOL   O17224030   0.287   6.064   6.168 -0.4708 -0.2114  0.2022
   80MOL   C17324031   0.346   6.193   6.159 -0.1721  0.8380  0.7480
   80MOL   H17424032   0.227   5.679   6.275  0.3518  0.7975  2.4466
   80MOL   H17524033   0.301   5.765   6.156  3.5228  1.0930  0.3010
   80MOL   H17624034   0.050   5.764   6.407  0.7224 -0.7143 -1.9735
   80MOL   H17724035   0.150   5.881   6.498 -0.0606 -2.1308 -0.4805
   80MOL   H17824036   7.878   5.931   6.426  0.6692  0.4305  1.9958
   80MOL   H17924037   0.427   6.211   6.231 -0.6719  3.4499  0.7250
   80MOL   H18024038   0.266   6.265   6.176 -1.5200 -0.6225  0.6997
   80MOL   H18124039   0.395   6.209   6.063 -1.7790 -0.1494 -0.2463
   80MOL   C18224040   0.064   5.873   6.160 -1.7324  0.0474  0.3006
   80MOL   C18324041   7.837   5.972   6.114 -1.6987  0.2089  0.3131
   80MOL   C18424042   7.773   6.046   6.227  0.7526  0.8947  0.1281
   80MOL   C18524043   0.022   6.057   6.005  0.2895  0.0989  0.2464
   80MOL   O18624044   0.055   6.173   6.027  0.0256  0.1566  0.1445
   80MOL   O18724045   0.048   5.994   5.903  0.0724 -0.3973  0.0700
   80MOL   C18824046   0.151   6.042   5.816  0.6106 -0.3370  0.1513
   80MOL   H18924047   0.012   5.779   6.179  0.0602 -1.5078 -2.1898
   80MOL   H19024048   0.120   5.833   6.075 -1.3263  3.8305 -1.2762
   80MOL   H19124049   7.697   6.114   6.189 -0.6970 -0.4216  0.6287
   80MOL   H19224050   7.718   5.978   6.292  0.1929  0.4738 -0.7681
   80MOL   H19324051   7.850   6.097   6.284  1.6080  3.0576 -2.8587
   80MOL   H19424052   0.160   6.149   5.801 -1.0370 -0.3069 -0.7028
   80MOL   H19524053   0.132   5.997   5.718  2.6635 -1.7096  0.3596
   80MOL   H19624054   0.246   6.005   5.855  1.0745 -0.7550 -1.3200
   80MOL   C19724055   7.719   5.888   6.042 -0.2462  0.2284  0.2877
   80MOL   C19824056   7.614   5.947   5.927  0.1674  0.2530  0.0612
   80MOL   C19924057   7.566   6.086   5.964 -0.3283  0.2907  0.3512
   80MOL   C20024058   7.678   5.952   5.788 -0.3021  0.1229 -0.1476
   80MOL   O20124059   7.664   6.051   5.714 -0.4909 -0.0906 -0.5685
   80MOL   O20224060   7.724   5.835   5.751 -0.3015 -0.3296 -0.2605
   80MOL   C20324061   7.764   5.825   5.616 -0.1320  0.4024 -0.8431
   80MOL   H20424062   7.655   5.860   6.126  1.3039 -0.6074  1.2193
   80MOL   H20524063   7.754   5.795   5.998 -1.2988 -0.6673  1.3075
   80MOL   H20624064   7.526   6.098   6.065 -0.0427 -1.5630  0.7001
   80MOL   H20724065   7.646   6.159   5.967  0.4060 -0.5356  1.4391
   80MOL   H20824066   7.492   6.127   5.896  0.8952  0.3852 -0.9288
   80MOL   H20924067   7.846   5.884   5.576  0.6968  0.0897  0.3681
   80MOL   H21024068   7.679   5.864   5.560  0.7966  0.5162 -2.1908
   80MOL   H21124069   7.774   5.721   5.584  0.7238  0.7528 -1.7311
   80MOL   C21224070   7.501   5.843   5.935 -0.6536  0.2814 -0.1950
   80MOL   C21324071   7.362   5.848   5.856 -0.1109 -0.1508  0.2587
   80MOL   C21424072   7.289   5.710   5.855 -0.3520 -0.4854 -0.1139
   80MOL   C21524073   7.272   5.954   5.934  0.5743  0.8370  0.2273
   80MOL   O21624074   7.240   6.065   5.893 -0.2656  0.4950 -0.2973
   80MOL   O21724075   7.249   5.904   6.060  0.2212  0.2760 -0.6174
   80MOL   C21824076   7.200   5.989   6.157  0.4215  0.3868 -0.5400
   80MOL   H21924077   7.470   5.837   6.039 -0.2059  0.5607 -0.0457
   80MOL   H22024078   7.550   5.746   5.931  2.0621  1.6611 -1.5212
   80MOL   H22124079   7.290   5.670   5.957 -0.1000 -1.1371 -0.3721
   80MOL   H22224080   7.185   5.712   5.823  0.2364 -1.9436 -2.2154
   80MOL   H22324081   7.345   5.636   5.798 -2.0648 -2.4842  0.7058
   80MOL   H22424082   7.270   6.057   6.206  0.2664 -0.1802  0.4759
   80MOL   H22524083   7.151   5.925   6.229 -1.1862  2.6910  0.4674
   80MOL   H22624084   7.129   6.047   6.097 -1.2440 -0.2339  0.8116
   80MOL   C22724085   7.393   5.899   5.714 -0.0352 -0.0593  0.3953
   80MOL   C22824086   7.304   5.899   5.584  0.2555  0.7937  0.3281
   80MOL   C22924087   7.163   5.942   5.619 -0.4095  0.0309 -0.2073
   80MOL   C23024088   7.361   6.004   5.489 -0.5991  0.1422 -0.1222
   80MOL   O23124089   7.290   6.078   5.421  0.3488 -0.0707 -0.8197
   80MOL   O23224090   7.486   5.987   5.460 -0.7062  0.4844 -0.0953
   80MOL   C23324091   7.547   6.060   5.361  0.4957  0.5458  0.6161
   80MOL   H23424092   7.473   5.836   5.677  0.5602  0.9358 -0.0289
   80MOL   H23524093   7.421   6.004   5.723 -0.2629  0.0868 -0.4879
   80MOL   H23624094   7.116   5.868   5.685  2.5137 -0.6182  1.2478
   80MOL   H23724095   7.163   6.040   5.666 -1.0327  0.5278 -1.2267
   80MOL   H23824096   7.088   5.950   5.541  0.0181  1.5520 -0.4772
   80MOL   H23924097   7.648   6.018   5.357  0.1567 -0.2467  0.2151
   80MOL   H24024098   7.558   6.165   5.385 -1.6697  1.3640 -1.8218
   80MOL   H24124099   7.509   6.043   5.261  2.1085  0.5223 -0.0046
   80MOL   C24224100   7.307   5.751   5.523  0.6205 -1.1831 -0.2454
   80MOL   C24324101   7.251   5.705   5.387  0.2693  0.5687  1.2993
   80MOL   C24424102   7.281   5.554   5.382 -0.0113  0.6908  0.2461
   80MOL   C24524103   7.097   5.726   5.380 -0.6223 -0.4307  0.2359
   80MOL   O24624104   7.017   5.639   5.418  0.3976 -0.8261 -0.2599
   80MOL   O24724105   7.063   5.841   5.326  0.9104  0.3242  0.3287
   80MOL   C24824106   6.933   5.888   5.311  0.5011  0.6298  0.7597
   80MOL   H24924107   7.268   5.681   5.597 -0.3214 -0.5148 -0.1062
   80MOL   H25024108   7.413   5.727   5.513  0.6136 -0.9099 -0.9432
   80MOL   H25124109   7.250   5.493   5.297  1.4815 -1.3269  1.0869
   80MOL   H25224110   7.388   5.535   5.376 -0.0482  0.4060  0.4207
   80MOL   H25324111   7.238   5.490   5.460  1.7566  0.4946  1.0769
   80MOL   H25424112   6.890   5.920   5.406  0.6282  1.3510  0.5762
   80MOL   H25524113   6.876   5.799   5.286  3.7938 -1.3528  0.0689
   80MOL   H25624114   6.936   5.969   5.238 -1.6030  0.6943  0.7180
   80MOL   C25724115   7.332   5.765   5.265  0.1356  0.4697 -0.3595
   80MOL   C25824116   7.318   5.721   5.105 -0.5779 -0.0002  0.0631
   80MOL   C25924117   7.172   5.701   5.066 -0.2945 -0.0955  0.3742
   80MOL   C26024118   7.366   5.841   5.021 -1.0302 -0.4912 -0.3665
   80MOL   O26124119   7.308   5.883   4.925  0.2725  0.2455 -0.1992
   80MOL   O26224120   7.483   5.893   5.069 -0.4047 -0.4037  0.7553
   80MOL   C26324121   7.557   5.974   4.987  0.0961  0.4489  0.5939
   80MOL   H26424122   7.437   5.772   5.296 -0.5178 -1.5645  2.5732
   80MOL   H26524123   7.301   5.870   5.267 -1.2673  0.0605  0.4361
   80MOL   H26624124   7.106   5.786   5.083  0.2587  0.4793 -0.2931
   80MOL   H26724125   7.153   5.695   4.959  0.2407 -1.8286  0.3718
   80MOL   H26824126   7.130   5.608   5.105  0.1785 -1.5147 -2.3922
   80MOL   H26924127   7.610   6.044   5.051  0.3584  1.0679 -0.2814
   80MOL   H27024128   7.493   6.038   4.924 -0.5255 -0.5993  0.1461
   80MOL   H27124129   7.622   5.918   4.920 -1.6456  0.1807 -0.9247
   80MOL   C27224130   7.412   5.595   5.062 -0.5226 -0.2487  0.1713
   80MOL   C27324131   7.459   5.560   4.911  0.2467 -0.1998 -0.3458
   80MOL   C27424132   7.333   5.565   4.820 -0.4724  0.0265  0.3511
   80MOL   C27524133   7.575   5.647   4.858 -0.2161  0.4798  0.1264
   80MOL   O27624134   7.660   5.694   4.935  0.0978  0.1527  0.5060
   80MOL   O27724135   7.582   5.655   4.724 -0.3511 -0.1212 -0.3599
   80MOL   C27824136   7.680   5.741   4.661 -0.1956  0.3281  0.1599
   80MOL   H27924137   7.374   5.502   5.104 -0.0847  0.0831  1.3364
   80MOL   H28024138   7.502   5.612   5.121 -0.2191 -0.6330 -0.1840
   80MOL   H28124139   7.243   5.507   4.841 -1.2880  1.5703  1.1518
   80MOL   H28224140   7.306   5.670   4.810  0.5232  0.1391 -1.4916
   80MOL   H28324141   7.360   5.532   4.719 -0.4046 -0.1515  0.4276
   80MOL   H28424142   7.638   5.834   4.623  0.0151  0.3158 -0.1041
   80MOL   H28524143   7.737   5.687   4.585  1.5250  0.1778  1.5152
   80MOL   H28624144   7.753   5.777   4.734 -0.1580  1.6513 -0.5274
   80MOL   C28724145   7.514   5.411   4.902 -0.1058  0.3883  0.2442
   80MOL   C28824146   7.572   5.347   4.767  0.1788 -0.4648 -0.7157
   80MOL   C28924147   7.695   5.258   4.775  0.5746 -0.2468  0.1650
   80MOL   C29024148   7.472   5.267   4.686  0.3311 -0.3475  0.0688
   80MOL   O29124149   7.421   5.308   4.580 -0.0928  0.0871 -0.3177
   80MOL   O29224150   7.447   5.146   4.737  0.5198 -0.4539 -0.4565
   80MOL   C29324151   7.374   5.051   4.663 -0.0565  0.1697  0.4787
   80MOL   H29424152   7.439   5.346   4.948 -0.1291 -0.7972 -1.4215
   80MOL   H29524153   7.586   5.412   4.984  0.0758  0.6917  0.0789
   80MOL   H29624154   7.788   5.312   4.791  0.7310  0.0358 -1.5701
   80MOL   H29724155   7.698   5.186   4.856  1.8957 -0.0963  0.2590
   80MOL   H29824156   7.711   5.205   4.681  0.9696 -0.5278  0.3891
   80MOL   H29924157   7.419   5.039   4.565 -0.7455  0.5342  0.1100
   80MOL   H30024158   7.274   5.094   4.652  0.0101  0.6771  1.8069
   80MOL   H30124159   7.366   4.952   4.709  1.0244 -1.1243 -2.0198
   80MOL   H30224160   7.596   5.424   4.694  0.2265  0.9612  0.7567
   81MOL     C124161   5.306   7.349   0.376 -0.3097  0.4936 -0.2156
   81MOL     C224162   5.379   7.483   0.359 -0.5332  0.1620 -0.4025
   81MOL     C324163   5.352   7.559   0.491  0.2848 -0.1159  0.0804
   81MOL     C424164   5.532   7.460   0.345 -0.4964  0.2614  0.1920
   81MOL     O524165   5.589   7.352   0.347  0.3208  0.1535  0.2592
   81MOL     O624166   5.598   7.575   0.334  0.1690 -0.0736 -0.2318
   81MOL     C724167   5.735   7.580   0.328  1.3365  1.3778 -0.8533
   81MOL     H824168   5.329   7.312   0.476 -0.1067  0.7865 -0.1542
   81MOL     H924169   5.197   7.351   0.381 -0.3983 -0.2602 -1.6279
   81MOL    H1024170   5.378   7.503   0.581  2.8030 -0.5808 -0.8909
   81MOL    H1124171   5.424   7.641   0.497  1.9488 -1.5483  0.0910
   81MOL    H1224172   5.255   7.609   0.497 -0.1416 -0.8311 -0.7881
   81MOL    H1324173   5.779   7.537   0.418  0.4460  0.0335 -1.0396
   81MOL    H1424174   5.764   7.685   0.326 -1.1605  2.1074 -0.1004
   81MOL    H1524175   5.775   7.522   0.245  0.8978  0.5877 -0.5236
   81MOL    H1624176   5.342   7.273   0.306 -1.0205 -1.1316  1.1592
   81MOL    C1724177   5.318   7.567   0.239 -0.0035  0.4189 -0.1160
   81MOL    C1824178   5.349   7.538   0.078  0.2354  0.0758 -0.2267
   81MOL    C1924179   5.331   7.383   0.061  0.9261 -0.3572  1.0462
   81MOL    C2024180   5.245   7.620   7.876  0.0056 -0.6740 -0.0411
   81MOL    O2124181   5.158   7.558   7.806 -0.7147 -0.2044 -0.6976
   81MOL    O2224182   5.251   7.749   0.013  0.5303 -0.1724 -0.6967
   81MOL    C2324183   5.178   7.837   7.801 -0.1812  0.2096 -0.2648
   81MOL    H2424184   5.340   7.672   0.257  0.0485  0.3907 -0.0125
   81MOL    H2524185   5.210   7.574   0.250 -0.2076 -1.0683 -0.9973
   81MOL    H2624186   5.407   7.321   0.110 -0.4010 -1.3078  1.9291
   81MOL    H2724187   5.239   7.348   0.107  0.6038  0.1514  0.7937
   81MOL    H2824188   5.319   7.346   7.837 -0.6514 -0.0271  1.1143
   81MOL    H2924189   5.199   7.823   7.695  1.0714  3.6486 -0.5363
   81MOL    H3024190   5.204   0.058   7.840 -0.7746 -0.3808  1.7230
   81MOL    H3124191   5.075   7.811   7.829  0.4942 -0.6738  1.4993
   81MOL    C3224192   5.492   7.580   0.033 -0.1831 -0.1593 -0.0800
   81MOL    C3324193   5.544   7.591   7.762  0.4890 -0.7793  0.2697
   81MOL    C3424194   5.493   7.482   7.670 -0.6164  0.5306 -0.4524
   81MOL    C3524195   5.495   7.730   7.708 -0.0100  0.7746  0.7797
   81MOL    O3624196   5.410   7.747   7.616  0.3893  0.0587 -0.0954
   81MOL    O3724197   5.546   7.827   7.777 -0.3563 -0.6460 -0.4066
   81MOL    C3824198   5.504   0.083   7.752 -0.2272 -0.7113  0.2273
   81MOL    H3924199   5.550   7.497   0.073  0.3070 -0.5095 -1.5232
   81MOL    H4024200   5.529   7.665   0.091 -1.0086  0.9381 -1.1424
   81MOL    H4124201   5.509   7.509   7.565  1.5629  0.9676 -0.0392
   81MOL    H4224202   5.538   7.383   7.674  0.7532  1.1352 -0.4927
   81MOL    H4324203   5.387   7.462   7.685 -0.6909  1.5071  0.4157
   81MOL    H4424204   5.401   0.102   7.783 -0.9375  0.6998 -2.8084
   81MOL    H4524205   5.514   0.108   7.647 -2.4994  2.2500  0.6408
   81MOL    H4624206   5.580   0.142   7.804  0.2976  1.6094 -3.0502
   81MOL    C4724207   5.702   7.567   7.779  0.1080  0.0099 -0.2204
   81MOL    C4824208   5.808   7.598   7.667 -0.0159  0.1466  0.5870
   81MOL    C4924209   5.783   7.506   7.541  0.2732 -0.0329 -0.3068
   81MOL    C5024210   5.798   7.746   7.615  0.2360 -0.0350  0.4647
   81MOL    O5124211   5.803   7.840   7.695 -0.0732  0.3119  0.7190
   81MOL    O5224212   5.790   7.764   7.483  0.4438 -0.0748 -0.3923
   81MOL    C5324213   5.774   0.022   7.438  0.2289 -0.1636  0.8579
   81MOL    H5424214   5.710   7.462   7.808  0.6677 -0.0306 -0.5211
   81MOL    H5524215   5.731   7.618   7.871 -1.9682 -0.4698  0.7503
   81MOL    H5624216   5.859   7.525   7.466  1.5155  1.7151  1.3701
   81MOL    H5724217   5.760   7.402   7.565  0.5637 -0.2093 -0.8018
   81MOL    H5824218   5.694   7.544   7.490  0.7572  0.3305 -0.8715
   81MOL    H5924219   5.778   0.023   7.329  0.9885 -0.4107  0.8814
   81MOL    H6024220   5.863   0.084   7.450  1.5149 -1.6058 -0.9004
   81MOL    H6124221   5.681   0.066   7.474 -0.1626 -0.3556  0.0884
   81MOL    C6224222   5.943   7.557   7.734 -0.2410 -0.2922  0.0294
   81MOL    C6324223   6.092   7.571   7.672  0.1858  0.3076  0.5332
   81MOL    C6424224   6.180   7.599   7.799  0.2612 -0.3773 -0.2377
   81MOL    C6524225   6.145   7.429   7.620  0.1905 -0.4847  0.3366
   81MOL    O6624226   6.245   7.379   7.669 -0.3395  0.2703 -0.8464
   81MOL    O6724227   6.072   7.375   7.528  0.4760 -0.3398  0.1837
   81MOL    C6824228   6.098   7.245   7.478  0.6578 -0.0598 -0.5829
   81MOL    H6924229   5.940   7.460   7.782  1.5116 -0.7033 -0.6537
   81MOL    H7024230   5.948   7.624   7.820  0.0067 -0.4700  0.1524
   81MOL    H7124231   6.157   7.534   0.006  1.2018  0.3270  0.5639
   81MOL    H7224232   6.287   7.583   7.788  0.2571 -1.0120  0.6053
   81MOL    H7324233   6.166   7.698   7.843  1.0108 -0.2420 -0.2943
   81MOL    H7424234   6.195   7.243   7.427 -0.3882 -0.4296 -2.5985
   81MOL    H7524235   6.017   7.217   7.412  1.7993 -0.0868 -2.0033
   81MOL    H7624236   6.104   7.176   7.563 -0.9964  0.6572  0.1282
   81MOL    C7724237   6.100   7.682   7.561 -0.0984 -0.4941 -0.7241
   81MOL    C7824238   6.236   7.743   7.498 -0.6424  0.5056  0.5685
   81MOL    C7924239   6.190   7.844   7.389  0.7095 -0.1227 -0.6458
   81MOL    C8024240   6.296   7.823   7.618 -0.3050  0.1609  0.4686
   81MOL    O8124241   6.392   7.785   7.687  0.4991  0.1761  0.5250
   81MOL    O8224242   6.208   0.056   7.660 -0.5810 -0.5856 -0.1298
   81MOL    C8324243   6.243   0.146   7.766  0.3451 -0.3474  0.1930
   81MOL    H8424244   6.055   7.763   7.619 -0.2727  0.9954 -2.8840
   81MOL    H8524245   6.031   7.656   7.480 -0.6400  0.8354 -0.7058
   81MOL    H8624246   6.130   0.043   7.437  1.3894 -0.8002  1.3543
   81MOL    H8724247   6.259   0.032   7.334  1.8113  1.0842  2.0732
   81MOL    H8824248   6.131   7.789   7.316  2.7170 -3.2720  0.0219
   81MOL    H8924249   6.216   0.095   7.858 -1.5084  0.6545  0.2295
   81MOL    H9024250   6.178   0.233   7.771  0.3827 -0.2812 -0.4299
   81MOL    H9124251   6.349   0.169   7.767  0.4051 -0.5019 -1.2925
   81MOL    C9224252   6.323   7.623   7.438 -0.2604 -0.2461  0.1299
   81MOL    C9324253   6.431   7.634   7.328 -0.8382  0.2968 -0.6240
   81MOL    C9424254   6.352   7.629   7.194 -0.2180 -0.4384  0.0380
   81MOL    C9524255   6.520   7.760   7.348 -0.0878 -0.3656  0.5689
   81MOL    O9624256   6.534   7.848   7.261  0.0926 -0.4632  0.0098
   81MOL    O9724257   6.582   7.769   7.465  0.5680  0.2535  0.3278
   81MOL    C9824258   6.642   0.012   7.501 -0.0155  0.4345 -0.0199
   81MOL    H9924259   6.261   7.539   7.407 -0.5722 -0.3451  0.9905
   81MOL   H10024260   6.364   7.568   7.523 -1.6161 -0.6033  0.5641
   81MOL   H10124261   6.282   7.712   7.178 -0.0635 -0.6405 -1.6817
   81MOL   H10224262   6.410   7.643   7.103 -2.3985 -0.1630 -1.3373
   81MOL   H10324263   6.290   7.543   7.173 -1.9848  0.7392  0.2757
   81MOL   H10424264   6.684   7.868   7.599 -0.3040  2.4467  0.5741
   81MOL   H10524265   6.563   0.084   7.523 -0.9474 -1.1330  1.9365
   81MOL   H10624266   6.722   0.039   7.432  0.6528 -0.4083  0.4219
   81MOL   C10724267   6.535   7.510   7.358 -0.1767  0.3556 -0.0062
   81MOL   C10824268   6.645   7.448   7.256  0.3954 -0.0108  0.9718
   81MOL   C10924269   6.568   7.362   7.149 -0.0567 -0.0199  0.2038
   81MOL   C11024270   6.722   7.560   7.181  0.2824  0.6308  0.4392
   81MOL   O11124271   6.736   7.551   7.057  0.3469 -0.4575 -0.1643
   81MOL   O11224272   6.786   7.645   7.260 -0.0195  0.4275  0.5333
   81MOL   C11324273   6.864   7.747   7.209  0.2769  0.3854 -0.0698
   81MOL   H11424274   6.464   7.429   7.373 -1.8543  1.6085 -0.9255
   81MOL   H11524275   6.581   7.524   7.456 -0.0256 -1.0806  0.1362
   81MOL   H11624276   6.524   7.270   7.188  2.6095 -0.6651  1.7483
   81MOL   H11724277   6.486   7.415   7.099 -0.7347 -0.8577  0.4171
   81MOL   H11824278   6.631   7.323   7.069 -1.3548  0.4406 -1.0932
   81MOL   H11924279   6.832   7.845   7.244 -0.7904  0.4470 -1.2079
   81MOL   H12024280   6.876   7.751   7.101 -1.2460  1.9981 -0.1981
   81MOL   H12124281   6.962   7.740   7.258 -0.0922  2.6786  1.0301
   81MOL   C12224282   6.743   7.358   7.347  0.4583  0.6246  0.4899
   81MOL   C12324283   6.847   7.243   7.286 -0.5594 -0.5225  0.0199
   81MOL   C12424284   6.764   7.110   7.244  0.6032 -1.2705 -0.3773
   81MOL   C12524285   6.920   7.311   7.167 -0.0695 -0.9111  0.1616
   81MOL   O12624286   7.002   7.401   7.182 -0.3270 -0.4080  0.0973
   81MOL   O12724287   6.895   7.258   7.041 -0.0988  0.8788 -0.2438
   81MOL   C12824288   6.962   7.311   6.931  0.3045 -0.4640  0.8479
   81MOL   H12924289   6.680   7.310   7.423  3.2726 -2.3366  1.0711
   81MOL   H13024290   6.796   7.436   7.402  1.8040  0.8032 -1.0365
   81MOL   H13124291   6.671   7.109   7.300  1.2022 -1.1824  0.6434
   81MOL   H13224292   6.732   7.113   7.140  1.1046 -0.1486 -0.5074
   81MOL   H13324293   6.814   7.013   7.254 -0.9700 -1.9134  1.4186
   81MOL   H13424294   6.914   7.399   6.890  2.3945  0.0041 -0.6886
   81MOL   H13524295   6.955   7.237   6.851 -0.5061  0.9641 -0.4171
   81MOL   H13624296   7.069   7.330   6.944  0.2170 -0.0486  0.9797
   81MOL   C13724297   6.950   7.201   7.398 -0.6082  1.1064 -0.2158
   81MOL   C13824298   7.085   7.111   7.384 -0.0800  0.5968  0.0177
   81MOL   C13924299   7.081   7.009   7.264  0.4612 -0.7763 -0.0354
   81MOL   C14024300   7.200   7.206   7.355 -0.8427 -0.7631 -0.2360
   81MOL   O14124301   7.245   7.282   7.441  0.1309  0.5211 -0.5170
   81MOL   O14224302   7.249   7.215   7.229  0.2467 -0.4356  0.5561
   81MOL   C14324303   7.322   7.328   7.182  0.3221  0.0865  0.0172
   81MOL   H14424304   6.881   7.156   7.469 -1.0877  1.2824 -0.5702
   81MOL   H14524305   6.978   7.294   7.448 -1.4074  1.1104  0.2316
   81MOL   H14624306   7.045   7.061   7.175 -0.4250 -0.1533  0.6747
   81MOL   H14724307   7.180   6.972   7.239  0.8596  0.2293  0.0356
   81MOL   H14824308   7.017   6.925   7.292 -2.5738  1.2710 -0.5763
   81MOL   H14924309   7.343   7.307   7.077 -0.7874 -2.0755  0.2153
   81MOL   H15024310   7.410   7.325   7.245 -1.1063  1.4091  2.1339
   81MOL   H15124311   7.259   7.417   7.191 -2.4535 -1.9734  1.6909
   81MOL   C15224312   7.098   7.035   7.520  0.2646 -0.3685  0.3361
   81MOL   C15324313   7.226   6.974   7.582  0.4512  0.4191 -0.4274
   81MOL   C15424314   7.304   6.890   7.485 -0.4045  0.3671  0.1098
   81MOL   C15524315   7.318   7.082   7.656 -0.5115 -0.2334 -0.1067
   81MOL   O15624316   7.432   7.114   7.622  0.4804 -1.0567  0.5615
   81MOL   O15724317   7.254   7.136   7.765 -0.4619 -0.0055 -0.6787
   81MOL   C15824318   7.321   7.215   7.862  0.4273  0.0857 -0.7389
   81MOL   H15924319   7.014   6.966   7.518 -0.4527  0.4817  0.8317
   81MOL   H16024320   7.066   7.106   7.596 -0.4762  0.6483 -0.9062
   81MOL   H16124321   7.344   6.964   7.415  1.4683 -0.3755  0.3745
   81MOL   H16224322   7.395   6.856   7.534 -0.0875  0.7360 -0.2213
   81MOL   H16324323   7.240   6.823   7.429  2.1998  0.1922 -2.8014
   81MOL   H16424324   7.359   7.303   7.810  2.0976  0.4411  1.0179
   81MOL   H16524325   7.409   7.169   0.029  0.3575 -0.2483 -0.9477
   81MOL   H16624326   7.253   7.259   0.058  2.6435  1.9835  0.2364
   81MOL   C16724327   7.160   6.883   7.695 -0.3227  0.1692  0.1658
   81MOL   C16824328   7.236   6.768   7.773 -0.7936  0.6234  0.0116
   81MOL   C16924329   7.382   6.820   7.806  0.1170 -0.6275  0.2969
   81MOL   C17024330   7.158   6.754   0.030  0.6486 -0.2430 -0.2462
   81MOL   O17124331   7.210   6.773   0.136  0.1168  0.4458 -0.3417
   81MOL   O17224332   7.026   6.717   0.012 -0.0858  0.4387 -0.0817
   81MOL   C17324333   6.935   6.723   0.116  0.3968 -0.3251 -0.6382
   81MOL   H17424334   7.085   6.821   7.647 -1.2743 -0.5974  2.5795
   81MOL   H17524335   7.112   6.949   7.767  1.2065  1.1268  0.3524
   81MOL   H17624336   7.430   6.754   0.001  0.7292  1.1363  1.5377
   81MOL   H17724337   7.453   6.819   7.724  1.1566  1.9160  1.1398
   81MOL   H17824338   7.385   6.913   7.863  1.5274 -0.1078 -0.6128
   81MOL   H17924339   6.963   6.682   0.213  0.9260  3.5057  0.8981
   81MOL   H18024340   6.845   6.669   0.086 -0.4541 -0.1465  1.5156
   81MOL   H18124341   6.916   6.828   0.137 -1.4836 -0.7255 -0.2716
   81MOL   C18224342   7.229   6.632   7.689 -0.1857  0.5813  0.5596
   81MOL   C18324343   7.326   6.505   7.733  0.3154 -0.1610  0.7855
   81MOL   C18424344   7.334   6.476   0.008 -0.7435  0.1737 -0.5302
   81MOL   C18524345   7.258   6.381   7.666 -0.3582 -0.2936  0.0759
   81MOL   O18624346   7.225   6.281   7.731  0.1497  0.3191 -0.1816
   81MOL   O18724347   7.230   6.394   7.535 -0.1520  0.1867 -0.4627
   81MOL   C18824348   7.163   6.294   7.464 -0.4941 -0.1920  0.6430
   81MOL   H18924349   7.248   6.648   7.583 -2.6651  0.7489  0.1280
   81MOL   H19024350   7.126   6.597   7.691 -0.3191  0.8715 -0.5548
   81MOL   H19124351   7.377   6.550   0.076  1.0741 -1.1915 -0.1484
   81MOL   H19224352   7.239   6.468   0.060 -0.3391 -2.2517 -0.1170
   81MOL   H19324353   7.381   6.380   0.032  1.5924  1.7885  1.6560
   81MOL   H19424354   7.133   6.211   7.529  1.3446  0.3999  2.3208
   81MOL   H19524355   7.221   6.250   7.382 -1.0866 -0.3447  0.3081
   81MOL   H19624356   7.080   6.347   7.419  1.7889  3.6371  0.7561
   81MOL   C19724357   7.478   6.531   7.681  0.1539  0.1468 -0.3132
   81MOL   C19824358   7.585   6.419   7.643 -0.0280  0.0115  0.1706
   81MOL   C19924359   7.599   6.327   7.770  0.0794 -0.5673  0.2775
   81MOL   C20024360   7.547   6.341   7.520 -0.3470 -0.7772 -0.2229
   81MOL   O20124361   7.512   6.401   7.418 -0.3402 -0.2716 -0.3180
   81MOL   O20224362   7.564   6.211   7.527  0.1200  0.0233 -0.0406
   81MOL   C20324363   7.536   6.129   7.413 -0.2897 -0.6189  0.1609
   81MOL   H20424364   7.527   6.587   7.761  1.5246 -0.2965 -0.8348
   81MOL   H20524365   7.469   6.589   7.589 -1.5512 -0.1904 -0.3724
   81MOL   H20624366   7.671   6.246   7.759 -1.3145 -1.6066 -1.4101
   81MOL   H20724367   7.625   6.384   7.859 -1.4372 -0.7970  0.8856
   81MOL   H20824368   7.514   6.264   7.796  1.0468 -2.6505 -1.3970
   81MOL   H20924369   7.560   6.025   7.436 -0.5991 -1.2271 -2.2224
   81MOL   H21024370   7.590   6.125   7.319 -1.5120  2.0313 -0.7099
   81MOL   H21124371   7.433   6.122   7.378  0.3267  0.1834 -1.8800
   81MOL   C21224372   7.717   6.497   7.618  0.3650 -0.0724  0.0963
   81MOL   C21324373   7.856   6.426   7.602 -0.8562 -0.9458  0.0906
   81MOL   C21424374   0.029   6.388   7.744 -0.8655 -0.0403  0.8395
   81MOL   C21524375   7.860   6.305   7.507 -0.0366 -0.2106 -0.1502
   81MOL   O21624376   7.856   6.186   7.543 -0.1876  0.6180  0.4163
   81MOL   O21724377   7.866   6.347   7.382  0.0085 -0.2366  0.1307
   81MOL   C21824378   7.867   6.255   7.272 -0.2211 -0.3637  0.1114
   81MOL   H21924379   7.729   6.559   7.707 -1.9013 -2.3379  2.1101
   81MOL   H22024380   7.691   6.558   7.532 -1.9329 -0.4769  0.4600
   81MOL   H22124381   7.862   6.295   7.779  1.5211 -0.4263  2.9904
   81MOL   H22224382   0.130   6.345   7.743  0.1713  2.3177 -1.1720
   81MOL   H22324383   0.021   6.461   7.824  0.7904  1.4706 -0.3234
   81MOL   H22424384   0.059   6.176   7.301  0.0980  0.3543  1.3389
   81MOL   H22524385   0.027   6.295   7.178 -0.2045  0.9684  0.6772
   81MOL   H22624386   7.769   6.210   7.261  0.1466 -0.9260 -0.9503
   81MOL   C22724387   0.079   6.544   7.553  0.5477 -0.0491  0.4011
   81MOL   C22824388   0.234   6.547   7.547  0.1240 -0.0078  0.9826
   81MOL   C22924389   0.289   6.590   7.688 -0.3837  0.2767  0.4178
   81MOL   C23024390   0.295   6.415   7.500  1.0867 -0.4864  0.4682
   81MOL   O23124391   0.327   6.391   7.382  0.4440  0.5226 -0.1583
   81MOL   O23224392   0.304   6.320   7.596 -0.4854  0.8428  0.0479
   81MOL   C23324393   0.330   6.188   7.560 -0.0281 -0.5005  0.1225
   81MOL   H23424394   0.057   6.631   7.615  2.2992  0.6032  0.1224
   81MOL   H23524395   0.026   6.570   7.461  0.4451  1.3982  0.8526
   81MOL   H23624396   0.395   6.615   7.682 -0.8226  2.1359  0.3238
   81MOL   H23724397   0.247   6.688   7.708 -0.4617  0.7314 -1.8408
   81MOL   H23824398   0.270   6.518   7.768  0.5386 -1.7144 -1.0873
   81MOL   H23924399   0.345   6.125   7.648  0.7750 -1.5320 -0.7406
   81MOL   H24024400   0.419   6.186   7.497  0.5239 -0.2024  0.8851
   81MOL   H24124401   0.242   6.154   7.505  0.0533 -0.7413  0.1394
   81MOL   C24224402   0.281   6.662   7.449  0.4181  0.5485  0.0385
   81MOL   C24324403   0.217   6.721   7.326 -0.2735 -0.4554  0.5140
   81MOL   C24424404   0.177   6.605   7.223 -0.2087  0.3634  0.2578
   81MOL   C24524405   0.090   6.793   7.376  0.3240 -0.5591  0.1538
   81MOL   O24624406   0.100   6.875   7.470  0.3607 -0.2283  0.2765
   81MOL   O24724407   7.852   6.769   7.305 -0.0264  0.3438  0.8754
   81MOL   C24824408   7.735   6.848   7.326  0.5836 -0.1035  0.4553
   81MOL   H24924409   0.379   6.629   7.415  0.5610  2.4990 -1.5563
   81MOL   H25024410   0.308   6.748   7.512 -0.6601 -0.2585  1.6262
   81MOL   H25124411   0.133   6.524   7.281  0.4172  0.0352  0.2817
   81MOL   H25224412   0.096   6.624   7.153  0.8691 -0.6664 -1.3058
   81MOL   H25324413   0.262   6.560   7.171 -0.8321  0.5063 -0.9191
   81MOL   H25424414   7.749   6.946   7.281 -0.5311 -0.2780 -0.2853
   81MOL   H25524415   7.732   6.855   7.435  0.0113 -0.8644  0.4941
   81MOL   H25624416   7.645   6.802   7.287  0.8290  0.2400 -0.5228
   81MOL   C25724417   0.323   6.825   7.259  0.2784 -0.3121 -0.1926
   81MOL   C25824418   0.294   6.939   7.150  0.3872 -0.1972  0.2744
   81MOL   C25924419   0.422   7.011   7.132  0.4537 -0.2441  0.3099
   81MOL   C26024420   0.258   6.873   7.012  0.0908  0.4238  0.0641
   81MOL   O26124421   0.347   6.859   6.927  0.6697  0.2040 -0.0829
   81MOL   O26224422   0.137   6.822   7.011 -0.2645  0.0138  0.3313
   81MOL   C26324423   0.097   6.773   6.889 -1.0974  0.2172 -0.7711
   81MOL   H26424424   0.398   6.758   7.216 -1.2845 -1.8443 -0.5895
   81MOL   H26524425   0.383   6.871   7.338 -0.8964 -0.4692  0.8002
   81MOL   H26624426   0.407   7.084   7.052  2.8076  0.4267  0.4541
   81MOL   H26724427   0.454   7.066   7.221 -4.7750 -0.3958  2.4499
   81MOL   H26824428   0.508   6.950   7.103  2.4003  2.3460  0.4405
   81MOL   H26924429   0.075   6.859   6.825  2.3332  1.3557 -0.4999
   81MOL   H27024430   0.012   6.705   6.896  0.7693 -2.0113  0.8245
   81MOL   H27124431   0.175   6.716   6.840  0.2705  0.8257  0.6698
   81MOL   C27224432   0.188   7.052   7.201 -0.5039 -0.7950  1.2190
   81MOL   C27324433   0.144   7.186   7.121 -0.6637  0.4481 -0.1254
   81MOL   C27424434   0.027   7.238   7.202  0.5947  0.0810  0.1049
   81MOL   C27524435   0.253   7.295   7.124  1.2141 -0.0596 -0.2408
   81MOL   O27624436   0.303   7.342   7.019  0.1746 -0.5297 -0.1418
   81MOL   O27724437   0.291   7.330   7.246  1.1824 -0.8588  0.2976
   81MOL   C27824438   0.415   7.406   7.249 -0.3598  0.5123  0.1678
   81MOL   H27924439   0.206   7.078   7.305 -1.7400  0.6501  1.0993
   81MOL   H28024440   0.099   6.990   7.209 -0.7310 -0.3522  2.2837
   81MOL   H28124441   7.874   7.337   7.170  1.7500 -0.3219 -2.4117
   81MOL   H28224442   7.817   7.176   7.183 -1.3095  3.1827 -1.6037
   81MOL   H28324443   0.051   7.244   7.308 -0.8077  0.0416  0.4287
   81MOL   H28424444   0.452   7.438   7.347  1.8193 -1.0259 -0.0953
   81MOL   H28524445   0.424   7.495   7.187 -0.7125  0.8412  0.5825
   81MOL   H28624446   0.500   7.349   7.212 -0.6814  0.1971 -0.0868
   81MOL   C28724447   0.111   7.158   6.975  0.1325 -0.2680 -0.2495
   81MOL   C28824448   0.045   7.255   6.873 -0.5702 -0.2551 -0.1161
   81MOL   C28924449   0.070   7.215   6.729  0.2946  0.7003 -0.0106
   81MOL   C29024450   7.770   7.268   6.898 -0.2611 -0.1768 -0.3239
   81MOL   O29124451   7.689   7.176   6.891  0.2254 -0.0032 -0.1321
   81MOL   O29224452   7.739   7.390   6.950 -0.2975 -0.2009  0.1753
   81MOL   C29324453   7.608   7.430   6.975 -0.7946  0.1255  0.3909
   81MOL   H29424454   0.055   7.065   6.983 -1.0944  0.5202  0.5770
   81MOL   H29524455   0.211   7.135   6.937  0.6475  1.6326 -0.0870
   81MOL   H29624456   0.023   7.120   6.704  0.9965  0.1961  0.5388
   81MOL   H29724457   0.019   7.295   6.676 -1.4136 -0.0969  0.4062
   81MOL   H29824458   0.169   7.230   6.686  0.0946  2.5473  0.1384
   81MOL   H29924459   7.542   7.380   6.904  0.8068  1.5704 -2.2076
   81MOL   H30024460   7.609   7.539   6.965  0.8260  0.4900  3.7974
   81MOL   H30124461   7.591   7.411   7.081  1.8192 -0.8185  0.6757
   81MOL   H30224462   0.082   7.355   6.893 -1.8410 -0.4155  3.4564
   82MOL     C124463   3.515   4.692   0.083  0.3257  0.4277 -0.0857
   82MOL     C224464   3.386   4.614   0.057 -0.1778  0.3754 -0.7832
   82MOL     C324465   3.408   4.476   0.138 -0.6314  0.5439 -0.6260
   82MOL     C424466   3.270   4.686   0.132  0.5727  0.6835  0.2752
   82MOL     O524467   3.162   4.695   0.077 -0.2722 -0.3357  0.2559
   82MOL     O624468   3.294   4.720   0.253 -0.2799  0.3978  0.1486
   82MOL     C724469   3.191   4.774   0.338 -0.2757  0.5362 -0.0796
   82MOL     H824470   3.601   4.649   0.031 -0.8386 -1.5786 -0.3950
   82MOL     H924471   3.502   4.794   0.048 -0.5096  0.0303 -0.9544
   82MOL    H1024472   3.436   4.484   0.243 -0.7288 -1.0168 -0.4789
   82MOL    H1124473   3.317   4.418   0.145  0.2179 -0.6634  0.6252
   82MOL    H1224474   3.480   4.415   0.084 -0.2841  2.4824 -2.4460
   82MOL    H1324475   3.252   4.817   0.417  0.4922 -0.7554  0.0453
   82MOL    H1424476   3.121   4.697   0.369 -0.7456  0.3151 -1.6327
   82MOL    H1524477   3.133   4.844   0.278  1.2370  2.4086  0.5869
   82MOL    H1624478   3.538   4.706   0.188 -0.8579 -2.2037  0.5789
   82MOL    C1724479   3.356   4.575   7.784 -0.0561 -0.4819 -0.5806
   82MOL    C1824480   3.366   4.682   7.661  0.1647  0.5917  0.3388
   82MOL    C1924481   3.268   4.796   7.693 -0.0317  0.4460  0.2611
   82MOL    C2024482   3.507   4.737   7.649 -0.3917  0.2116 -0.1034
   82MOL    O2124483   3.527   4.854   7.646 -0.3432 -0.4312 -0.2991
   82MOL    O2224484   3.599   4.646   7.647 -0.1243 -0.0278  0.4412
   82MOL    C2324485   3.745   4.674   7.654  0.7253 -0.1280  0.2614
   82MOL    H2424486   3.252   4.543   7.786 -1.0269  2.3467 -2.2607
   82MOL    H2524487   3.413   4.486   7.758  0.6294 -0.1252 -0.3059
   82MOL    H2624488   3.161   4.789   7.673 -0.0856 -0.1055  0.7320
   82MOL    H2724489   3.272   4.830   7.796  2.5990 -0.1620  0.4035
   82MOL    H2824490   3.296   4.879   7.629  2.4478 -0.6313 -0.1450
   82MOL    H2924491   3.802   4.583   7.668  2.0561  0.8262  1.2028
   82MOL    H3024492   3.759   4.744   7.737  2.4553  0.0665 -0.1675
   82MOL    H3124493   3.772   4.727   7.562 -1.7938 -1.8370 -1.5197
   82MOL    C3224494   3.332   4.594   7.535 -0.1901 -0.5319 -0.3576
   82MOL    C3324495   3.319   4.654   7.391 -0.1556  0.3559 -0.2440
   82MOL    C3424496   3.437   4.755   7.365 -0.0233  0.0406 -0.4322
   82MOL    C3524497   3.330   4.546   7.283 -0.3485  0.4653 -0.2267
   82MOL    O3624498   3.336   4.425   7.313 -0.2315  0.6812 -0.8366
   82MOL    O3724499   3.322   4.597   7.157 -0.0761  0.5498  0.1606
   82MOL    C3824500   3.315   4.504   7.049  0.7164  0.2827  0.2849
   82MOL    H3924501   3.242   4.536   7.557 -1.3827  2.1742  2.3373
   82MOL    H4024502   3.419   4.529   7.525  1.6574  1.5538  1.5321
   82MOL    H4124503   3.427   4.771   7.257  0.0620 -4.0011 -1.1225
   82MOL    H4224504   3.419   4.850   7.416 -0.7872 -1.3688  1.9485
   82MOL    H4324505   3.537   4.721   7.388 -0.1804 -1.0444 -1.3216
   82MOL    H4424506   3.225   4.529   6.991  0.8633  0.4925  0.1452
   82MOL    H4524507   3.290   4.404   7.082  1.4150 -0.0392 -0.1569
   82MOL    H4624508   3.407   4.490   6.991  0.6610  1.3374 -0.0746
   82MOL    C4724509   3.177   4.726   7.366  0.7781 -0.4661 -0.0363
   82MOL    C4824510   3.036   4.656   7.342 -0.3473 -0.0486 -0.1080
   82MOL    C4924511   3.021   4.605   7.199 -0.0640  0.1261 -0.2437
   82MOL    C5024512   3.021   4.538   7.436  0.7544  0.0868  0.2575
   82MOL    O5124513   3.028   4.417   7.395  0.0235 -0.5062  0.2225
   82MOL    O5224514   2.994   4.566   7.566 -0.5415 -1.1299  0.1289
   82MOL    C5324515   2.985   4.460   7.657  0.0205 -0.8863 -0.0941
   82MOL    H5424516   3.195   4.806   7.295  1.6750  0.4145  1.1712
   82MOL    H5524517   3.158   4.786   7.455  0.3227  0.4131 -0.7190
   82MOL    H5624518   2.918   4.575   7.180 -0.2736  0.8605 -0.2800
   82MOL    H5724519   3.047   4.674   7.119  0.2636 -0.7125 -0.8659
   82MOL    H5824520   3.089   4.521   7.188  0.3962  0.0701  2.7383
   82MOL    H5924521   2.966   4.359   7.618  0.6867 -0.7336 -0.8296
   82MOL    H6024522   2.902   4.499   7.715 -0.6955  1.8602 -2.8200
   82MOL    H6124523   3.077   4.449   7.715 -1.2324 -0.7930  1.9526
   82MOL    C6224524   2.921   4.753   7.387  0.2226 -0.2265 -0.1662
   82MOL    C6324525   2.855   4.868   7.298 -1.3360  0.0592  0.0621
   82MOL    C6424526   2.977   4.963   7.255 -0.5144  0.6963  0.2786
   82MOL    C6524527   2.783   4.821   7.173 -0.0315 -0.3957  0.0714
   82MOL    O6624528   2.790   4.874   7.062  0.5629 -0.2315 -0.0233
   82MOL    O6724529   2.700   4.722   7.203 -0.1841  0.0337  0.1576
   82MOL    C6824530   2.628   4.659   7.100  0.2260  0.3655 -0.6929
   82MOL    H6924531   2.950   4.788   7.486 -0.3539 -3.6741  1.2870
   82MOL    H7024532   2.836   4.692   7.416 -3.1272  3.5614 -1.5339
   82MOL    H7124533   2.954   5.056   7.204  0.7237  0.5026 -0.6456
   82MOL    H7224534   3.039   4.987   7.342  1.1614 -2.4018  0.0053
   82MOL    H7324535   3.039   4.924   7.175 -2.4229  1.4025 -1.5990
   82MOL    H7424536   2.554   4.588   7.137  0.7555 -0.1540 -0.6256
   82MOL    H7524537   2.692   4.603   7.031 -1.5823 -0.2470 -1.9176
   82MOL    H7624538   2.581   4.738   7.041 -1.3902  1.0781  1.5081
   82MOL    C7724539   2.748   4.966   7.366 -0.4216  0.7769 -0.4068
   82MOL    C7824540   2.785   5.064   7.487  0.1271  0.1842 -0.3705
   82MOL    C7924541   2.869   5.001   7.602  0.2349 -0.2622  0.5371
   82MOL    C8024542   2.863   5.190   7.447  0.3607  0.2918  0.0285
   82MOL    O8124543   2.913   5.270   7.531 -0.4098  0.7116 -0.3306
   82MOL    O8224544   2.843   5.222   7.321  0.2942 -0.0387 -0.5725
   82MOL    C8324545   2.849   5.356   7.277  0.5961 -0.5616  0.4257
   82MOL    H8424546   2.666   4.903   7.401 -0.0395  0.3046 -0.3544
   82MOL    H8524547   2.716   5.025   7.280 -0.6063  0.2958 -0.6721
   82MOL    H8624548   2.875   5.068   7.688  0.5418 -2.1436  1.9972
   82MOL    H8724549   2.818   4.910   7.632 -0.0564 -0.2546  0.0624
   82MOL    H8824550   2.974   4.988   7.573 -0.7070 -0.2738 -3.0708
   82MOL    H8924551   2.881   5.364   7.173  1.8631 -0.9071  0.7762
   82MOL    H9024552   2.910   5.418   7.343 -0.3623  0.2648  0.5458
   82MOL    H9124553   2.752   5.405   7.284  0.6738 -0.3112 -0.2372
   82MOL    C9224554   2.651   5.096   7.560  0.0220  0.4393 -0.1865
   82MOL    C9324555   2.531   5.188   7.510 -0.0695 -0.0217  0.0658
   82MOL    C9424556   2.561   5.338   7.550 -0.0339  0.2414  0.0945
   82MOL    C9524557   2.500   5.167   7.356 -0.3114 -0.1541 -0.2070
   82MOL    O9624558   2.461   5.055   7.323  0.4092 -0.4269 -0.1481
   82MOL    O9724559   2.525   5.276   7.277 -0.4116 -0.5468  0.4382
   82MOL    C9824560   2.532   5.258   7.134 -0.2983  0.1001  0.4391
   82MOL    H9924561   2.669   5.147   7.654 -0.6503  0.7092 -0.2011
   82MOL   H10024562   2.614   4.997   7.587  1.4153 -0.1305 -0.3324
   82MOL   H10124563   2.498   5.414   7.505 -0.8784 -0.5340 -0.0493
   82MOL   H10224564   2.552   5.359   7.657 -2.0301  0.6385 -0.1364
   82MOL   H10324565   2.659   5.364   7.511 -0.5690  0.3882 -1.1694
   82MOL   H10424566   2.560   5.353   7.087  0.6052 -1.4902 -2.3883
   82MOL   H10524567   2.432   5.239   7.096 -0.5849 -0.4291  1.4618
   82MOL   H10624568   2.603   5.183   7.100  0.5631  1.3319 -0.5316
   82MOL   C10724569   2.417   5.134   7.607  0.4263  0.3167 -0.1598
   82MOL   C10824570   2.260   5.162   7.592  0.0816 -0.6982 -0.4100
   82MOL   C10924571   2.200   5.083   7.712  0.1688  0.3280 -0.1076
   82MOL   C11024572   2.233   5.313   7.607 -0.0749  0.4677  0.2813
   82MOL   O11124573   2.198   5.374   7.511  0.3149  0.2150 -0.2034
   82MOL   O11224574   2.273   5.362   7.721  0.0466 -0.2999 -1.2565
   82MOL   C11324575   2.253   5.504   7.725  0.7192  1.0137 -0.2883
   82MOL   H11424576   2.442   5.177   7.704 -2.0292 -1.5711  1.3937
   82MOL   H11524577   2.420   5.028   7.630 -2.0328  0.6445  1.9107
   82MOL   H11624578   2.218   4.976   7.707 -0.7939  0.1613  0.0435
   82MOL   H11724579   2.246   5.105   7.809 -1.3346 -0.7179  0.8706
   82MOL   H11824580   2.095   5.105   7.729  0.5089  0.2634  2.2575
   82MOL   H11924581   2.161   5.542   7.680  1.2926  0.7593 -1.6712
   82MOL   H12024582   2.341   5.545   7.677 -0.0337 -1.3420 -3.8906
   82MOL   H12124583   2.259   5.536   7.829  0.2278  1.6190 -0.4456
   82MOL   C12224584   2.191   5.106   7.459  0.0699  0.1926 -0.6605
   82MOL   C12324585   2.043   5.078   7.434  0.1478  0.0125 -0.2951
   82MOL   C12424586   1.950   5.198   7.481 -0.1254 -0.3186  0.1596
   82MOL   C12524587   2.028   5.078   7.276 -0.3584 -0.6204  0.2453
   82MOL   O12624588   1.926   5.117   7.219 -0.5868  0.4488  0.5253
   82MOL   O12724589   2.133   5.020   7.207 -0.4467  0.4114  0.4117
   82MOL   C12824590   2.150   5.039   7.069 -0.1110 -0.2906 -0.0214
   82MOL   H12924591   2.252   5.021   7.429  0.9639  0.2574  0.9045
   82MOL   H13024592   2.208   5.187   7.387 -1.9517  1.1449 -0.0966
   82MOL   H13124593   1.982   5.290   7.431 -0.4390  0.0185  0.5896
   82MOL   H13224594   1.846   5.185   7.454  0.4429 -3.1009 -0.8419
   82MOL   H13324595   1.954   5.208   7.589 -1.0871 -0.2464  0.1925
   82MOL   H13424596   2.222   4.963   7.036 -0.3292 -0.6750  0.3814
   82MOL   H13524597   2.187   5.139   7.047 -0.1067 -0.4542 -0.7873
   82MOL   H13624598   2.053   5.037   7.019  0.2148 -0.3434 -0.6581
   82MOL   C13724599   1.996   4.937   7.482  0.1135 -0.1956 -0.2829
   82MOL   C13824600   1.843   4.899   7.506  0.7247 -0.3103  0.5645
   82MOL   C13924601   1.841   4.751   7.561  0.1257 -0.6218  0.0132
   82MOL   C14024602   1.794   4.982   7.626  0.2801  0.3577  0.2944
   82MOL   O14124603   1.873   5.011   7.717  1.1658 -0.1950 -0.5117
   82MOL   O14224604   1.660   5.002   7.633 -0.1781  0.1984  0.3761
   82MOL   C14324605   1.596   5.091   7.724 -1.2409 -0.6947  0.9924
   82MOL   H14424606   2.045   4.923   7.578  0.3286  1.5019 -0.1236
   82MOL   H14524607   2.033   4.863   7.411  0.5141  0.0158 -0.2987
   82MOL   H14624608   1.744   4.724   7.603 -1.1170  2.2201 -0.9067
   82MOL   H14724609   1.869   4.670   7.494  1.1941  0.0131 -0.3164
   82MOL   H14824610   1.910   4.736   7.645 -0.0679  0.2230  0.3291
   82MOL   H14924611   1.583   5.049   7.823  0.0572  2.0186  2.3808
   82MOL   H15024612   1.500   5.121   7.682 -0.3547  0.1010 -0.5111
   82MOL   H15124613   1.653   5.182   7.745 -0.9589 -0.7313  0.4201
   82MOL   C15224614   1.741   4.911   7.384 -0.5823  0.1771  0.2912
   82MOL   C15324615   1.725   4.815   7.265  0.1685 -0.2939  0.9253
   82MOL   C15424616   1.861   4.763   7.214 -1.0982 -0.0342  0.2995
   82MOL   C15524617   1.636   4.693   7.306  0.7537  0.2087  0.7691
   82MOL   O15624618   1.571   4.691   7.412 -0.4607 -0.7051  0.2015
   82MOL   O15724619   1.629   4.593   7.216  0.4380  0.3128 -0.6891
   82MOL   C15824620   1.550   4.482   7.242 -0.2738  0.2034  0.2181
   82MOL   H15924621   1.761   5.013   7.352 -0.9951  0.9095  2.3106
   82MOL   H16024622   1.637   4.924   7.412 -0.5641 -1.4991  1.2222
   82MOL   H16124623   1.848   4.701   7.125  1.4632 -0.3767  0.1286
   82MOL   H16224624   1.926   4.845   7.181 -1.9232  0.6739  0.4229
   82MOL   H16324625   1.918   4.697   7.280 -0.0866  0.4547 -0.0754
   82MOL   H16424626   1.594   4.401   7.183  1.7320 -0.2756  2.2770
   82MOL   H16524627   1.443   4.493   7.227 -0.3202  2.6031  1.9919
   82MOL   H16624628   1.559   4.443   7.343  1.3206 -0.4636 -0.1557
   82MOL   C16724629   1.670   4.887   7.129 -0.2152 -0.2926  0.2209
   82MOL   C16824630   1.542   4.973   7.123 -0.3244  0.0828  1.0362
   82MOL   C16924631   1.419   4.909   7.176  0.5936 -0.3050 -0.1748
   82MOL   C17024632   1.568   5.105   7.205  0.1913 -0.9954  0.0178
   82MOL   O17124633   1.493   5.142   7.298  0.4837  0.8497  0.2437
   82MOL   O17224634   1.668   5.183   7.163 -0.0593 -0.1309  0.4604
   82MOL   C17324635   1.680   5.315   7.209  0.7933  0.1352  0.5542
   82MOL   H17424636   1.668   4.805   7.057 -1.2238  0.8263 -1.0527
   82MOL   H17524637   1.755   4.947   7.097 -0.5621 -0.0774 -0.2985
   82MOL   H17624638   1.422   4.879   7.280 -1.2122  0.8235  0.2320
   82MOL   H17724639   1.330   4.972   7.164 -0.7147 -2.4387 -2.0313
   82MOL   H17824640   1.405   4.815   7.123 -2.4910  0.1556 -0.3018
   82MOL   H17924641   1.771   5.350   7.160 -0.3844  2.5225 -0.0078
   82MOL   H18024642   1.695   5.326   7.317 -0.1344  0.8570  0.6170
   82MOL   H18124643   1.596   5.379   7.182  0.5645  0.1540  1.2949
   82MOL   C18224644   1.535   5.002   6.963 -0.2832  0.1749  1.0842
   82MOL   C18324645   1.406   5.057   6.891 -0.4069 -0.7428  0.4716
   82MOL   C18424646   1.298   4.950   6.881  0.2805  0.2464  0.2560
   82MOL   C18524647   1.345   5.180   6.973 -0.7270  0.2682 -0.9580
   82MOL   O18624648   1.412   5.280   6.991  0.8553  0.4203  0.0903
   82MOL   O18724649   1.213   5.167   7.013 -0.2189 -0.0752 -0.0193
   82MOL   C18824650   1.187   5.235   7.134 -0.7325  0.3091  0.0285
   82MOL   H18924651   1.527   4.900   6.925 -0.3587  0.3697  0.5664
   82MOL   H19024652   1.628   5.040   6.921 -0.2060  0.5443  1.5889
   82MOL   H19124653   1.214   4.979   6.818  0.9289  0.5667 -0.4652
   82MOL   H19224654   1.332   4.854   6.842 -1.3398  0.6036 -2.1883
   82MOL   H19324655   1.248   4.933   6.976 -0.9362 -2.1287 -0.7533
   82MOL   H19424656   1.102   5.195   7.189 -0.3898  1.1919  1.2324
   82MOL   H19524657   1.175   5.344   7.138 -0.4181  0.3139  0.9584
   82MOL   H19624658   1.273   5.220   7.199 -0.4189 -1.1882 -0.7071
   82MOL   C19724659   1.449   5.122   6.752 -0.0187 -0.3712  0.3220
   82MOL   C19824660   1.452   5.037   6.619 -0.3410 -0.1986  0.0521
   82MOL   C19924661   1.539   4.909   6.635  0.2726  0.4799  0.3059
   82MOL   C20024662   1.308   5.007   6.566 -0.3606 -0.8253 -0.6731
   82MOL   O20124663   1.293   4.898   6.508 -0.2894  0.1024 -0.5831
   82MOL   O20224664   1.217   5.106   6.584  0.6793 -0.2357 -0.0263
   82MOL   C20324665   1.079   5.073   6.537 -0.4604 -0.5245 -0.7966
   82MOL   H20424666   1.544   5.168   6.780 -0.4344  1.0568 -0.5544
   82MOL   H20524667   1.386   5.208   6.730 -1.2750 -1.0155  1.3630
   82MOL   H20624668   1.646   4.928   6.639  0.5185 -0.3373 -1.6627
   82MOL   H20724669   1.521   4.852   6.726 -2.3537  1.3591  0.3947
   82MOL   H20824670   1.529   4.832   6.559 -1.7726 -0.1171  1.1587
   82MOL   H20924671   1.076   5.043   6.433 -2.9275 -1.9645 -0.3522
   82MOL   H21024672   1.013   5.161   6.534  0.2426  0.1897  2.4944
   82MOL   H21124673   1.019   4.997   6.587  1.6149 -1.0040  1.0538
   82MOL   C21224674   1.532   5.140   6.524  0.2362 -1.2533  0.4083
   82MOL   C21324675   1.530   5.124   6.366 -0.4459  0.2864  0.9074
   82MOL   C21424676   1.578   4.982   6.329  0.1522 -0.8852 -0.5611
   82MOL   C21524677   1.385   5.157   6.307  0.1056 -0.2247  0.8276
   82MOL   O21624678   1.324   5.259   6.352  0.3330 -0.1811 -0.0232
   82MOL   O21724679   1.350   5.076   6.207  0.2768  0.1219  0.0312
   82MOL   C21824680   1.221   5.087   6.149  0.3426 -0.4805  0.9903
   82MOL   H21924681   1.633   5.155   6.563 -0.1096 -2.2070  1.6865
   82MOL   H22024682   1.489   5.240   6.535  3.0246  0.1284 -0.7707
   82MOL   H22124683   1.655   4.947   6.397  0.3725 -1.7322 -1.2348
   82MOL   H22224684   1.494   4.913   6.341 -0.7355  0.6390  2.4084
   82MOL   H22324685   1.594   4.965   6.222  2.3605  2.1175 -0.7582
   82MOL   H22424686   1.151   5.141   6.213 -0.2356  0.6171 -0.5332
   82MOL   H22524687   1.178   4.986   6.144  0.5279 -0.5303  0.4373
   82MOL   H22624688   1.223   5.128   6.048 -0.1169 -1.8466  0.4018
   82MOL   C22724689   1.634   5.232   6.321 -0.9134  0.1962  0.6171
   82MOL   C22824690   1.639   5.306   6.184  0.1560 -0.5120  0.0469
   82MOL   C22924691   1.522   5.410   6.170  0.0659  0.2512  0.3899
   82MOL   C23024692   1.775   5.378   6.198 -0.3747 -0.4565  1.0378
   82MOL   O23124693   1.776   5.502   6.216 -0.5153  0.2496  0.0327
   82MOL   O23224694   1.885   5.302   6.180  0.8498  0.2468 -0.1203
   82MOL   C23324695   2.009   5.358   6.163 -0.4937 -0.7805  0.1213
   82MOL   H23424696   1.731   5.186   6.335  0.7051  2.3094 -2.9428
   82MOL   H23524697   1.639   5.315   6.392  0.9160  1.3335 -0.7810
   82MOL   H23624698   1.537   5.493   6.100 -0.4937 -1.6218 -2.0171
   82MOL   H23724699   1.430   5.360   6.141 -1.8884  4.3217 -0.9114
   82MOL   H23824700   1.485   5.447   6.266 -0.5176 -0.1016  0.2964
   82MOL   H23924701   2.017   5.459   6.203 -3.2954 -1.6286  3.0431
   82MOL   H24024702   2.049   5.352   6.062  0.9829 -1.1884  0.7080
   82MOL   H24124703   2.073   5.295   6.225  0.3852  0.6069  0.6554
   82MOL   C24224704   1.647   5.204   6.069 -0.9456 -0.6995  0.2307
   82MOL   C24324705   1.666   5.231   5.915 -0.3347 -0.0916  0.7685
   82MOL   C24424706   1.717   5.098   5.859 -0.4496  0.6651  0.1342
   82MOL   C24524707   1.526   5.266   5.857 -1.4524  0.4584  0.2656
   82MOL   O24624708   1.456   5.184   5.797 -0.5388 -0.0950 -0.5428
   82MOL   O24724709   1.499   5.388   5.880 -0.9444 -0.1742 -0.5337
   82MOL   C24824710   1.395   5.441   5.806 -0.0501  0.2616 -0.2300
   82MOL   H24924711   1.547   5.161   6.077 -1.0571 -0.0026  3.0921
   82MOL   H25024712   1.712   5.120   6.092  1.4293  0.8323 -0.7064
   82MOL   H25124713   1.693   5.086   5.753  1.9574 -0.9837 -0.2772
   82MOL   H25224714   1.824   5.087   5.872 -0.5852 -0.5861  0.3443
   82MOL   H25324715   1.678   5.011   5.912  1.1141  0.2671  0.6555
   82MOL   H25424716   1.392   5.403   5.704  1.8575  0.0399 -0.2265
   82MOL   H25524717   1.408   5.549   5.793 -3.7769  1.1398  2.5460
   82MOL   H25624718   1.304   5.425   5.863 -0.3573  0.2021 -0.7417
   82MOL   C25724719   1.768   5.347   5.887  0.4004 -0.4091  0.5885
   82MOL   C25824720   1.831   5.381   5.747 -0.6175 -0.4667  0.0818
   82MOL   C25924721   1.932   5.256   5.707  0.2626 -0.2901 -0.0976
   82MOL   C26024722   1.717   5.388   5.641 -0.1911  0.1308  0.2745
   82MOL   O26124723   1.637   5.480   5.639 -0.0079 -0.5087  0.7763
   82MOL   O26224724   1.703   5.275   5.569  0.7703  0.2047  0.2466
   82MOL   C26324725   1.591   5.247   5.492 -0.3302  0.5696  0.0456
   82MOL   H26424726   1.851   5.313   5.950 -0.8335 -0.9460  1.9640
   82MOL   H26524727   1.731   5.439   5.931 -0.3430 -0.0464 -0.7691
   82MOL   H26624728   1.979   5.207   5.792 -0.3340  1.3134  1.2076
   82MOL   H26724729   1.887   5.171   5.657  2.5663 -0.3210 -2.1767
   82MOL   H26824730   2.007   5.285   5.633  0.2400 -0.6944 -0.2797
   82MOL   H26924731   1.521   5.191   5.555 -0.0130  0.6841  0.5048
   82MOL   H27024732   1.630   5.173   5.422  0.2635  0.2700  0.6877
   82MOL   H27124733   1.539   5.331   5.447 -1.0506  0.6127  0.9486
   82MOL   C27224734   1.907   5.520   5.769 -0.6756  0.0827 -0.3943
   82MOL   C27324735   2.018   5.566   5.667 -0.3463 -0.1599 -0.3413
   82MOL   C27424736   2.160   5.502   5.705  0.3205  0.6876  0.3379
   82MOL   C27524737   1.982   5.542   5.514  0.2139 -0.9913 -0.1685
   82MOL   O27624738   2.054   5.481   5.440 -0.1322 -0.1035  0.1999
   82MOL   O27724739   1.862   5.610   5.473 -0.0236 -0.3635 -0.6418
   82MOL   C27824740   1.825   5.603   5.336  0.1285 -0.2274  0.4175
   82MOL   H27924741   1.945   5.509   5.871 -1.4204 -0.7659 -0.1957
   82MOL   H28024742   1.831   5.598   5.774  2.3805  3.0484  1.7481
   82MOL   H28124743   2.174   5.401   5.667 -1.5080  1.5944 -2.8996
   82MOL   H28224744   2.239   5.550   5.648 -0.3147  1.3608  0.0178
   82MOL   H28324745   2.199   5.529   5.804  1.0255 -1.8605  0.7857
   82MOL   H28424746   1.735   5.664   5.319  0.4757 -0.2958 -1.8668
   82MOL   H28524747   1.806   5.498   5.315  1.5324  0.0318 -2.3778
   82MOL   H28624748   1.902   5.642   5.269 -0.5346 -1.0116 -0.8186
   82MOL   C28724749   2.025   5.716   5.687 -0.0480 -0.1731  0.1860
   82MOL   C28824750   2.125   5.791   5.597  0.0453 -0.7927 -0.0480
   82MOL   C28924751   2.056   5.916   5.543  0.7882 -0.0866 -0.2314
   82MOL   C29024752   2.268   5.807   5.653 -0.1085  0.4570 -0.1199
   82MOL   O29124753   2.293   5.890   5.742  0.0489  0.3640  0.1596
   82MOL   O29224754   2.360   5.744   5.591  0.4714 -0.3522  0.9952
   82MOL   C29324755   2.494   5.761   5.620  0.7659  0.8716  0.6669
   82MOL   H29424756   2.046   5.738   5.792  0.6980  0.1661 -0.0295
   82MOL   H29524757   1.927   5.762   5.676  0.5303  0.8750 -0.7284
   82MOL   H29624758   1.967   5.913   5.480  1.2582  1.9313 -1.0399
   82MOL   H29724759   2.007   5.966   5.626 -1.1782 -0.2593 -1.2774
   82MOL   H29824760   2.131   5.974   5.489  1.0687 -1.8384 -1.7906
   82MOL   H29924761   2.517   5.726   5.720  0.1920 -0.1847  0.4335
   82MOL   H30024762   2.505   5.869   5.633 -2.2200  1.2256  0.4774
   82MOL   H30124763   2.564   5.714   5.551 -1.2312 -1.5796  0.2299
   82MOL   H30224764   2.144   5.730   5.509  0.4341  1.0874 -1.3069
   83MOL     C124765   1.467   1.918   3.063  1.0396 -0.3463  0.2300
   83MOL     C224766   1.449   1.886   2.905  0.2223  0.2459  0.5383
   83MOL     C324767   1.305   1.919   2.877 -0.4036  0.0810 -0.1044
   83MOL     C424768   1.544   1.980   2.837 -0.5584 -0.2289 -0.1331
   83MOL     O524769   1.504   2.061   2.757  0.2618 -0.2807 -0.1579
   83MOL     O624770   1.669   1.976   2.884  0.1561 -0.2320 -0.0171
   83MOL     C724771   1.764   2.057   2.817  0.4011  0.0987  0.0386
   83MOL     H824772   1.451   1.826   3.119  2.8758 -1.5646 -1.1730
   83MOL     H924773   1.563   1.956   3.098  0.7292  0.3331  0.3490
   83MOL    H1024774   1.288   1.927   2.770  0.0070 -0.2364 -0.1956
   83MOL    H1124775   1.240   1.845   2.922  0.7686 -0.1526  1.2701
   83MOL    H1224776   1.279   2.011   2.929  2.9438  0.7165  0.6114
   83MOL    H1324777   1.852   2.045   2.880 -0.1104 -2.2406  0.3719
   83MOL    H1424778   1.735   2.162   2.821  3.7211  1.1255 -1.7089
   83MOL    H1524779   1.794   2.036   2.715 -1.7787  1.2407 -0.8842
   83MOL    H1624780   1.398   1.987   3.112  3.4569  0.5344  2.4974
   83MOL    C1724781   1.475   1.735   2.884 -0.3085 -0.4235 -0.0067
   83MOL    C1824782   1.493   1.653   2.755  0.3995 -0.9821 -0.4658
   83MOL    C1924783   1.379   1.701   2.666 -0.1321  0.0911  0.4634
   83MOL    C2024784   1.625   1.676   2.679  0.2685 -0.3033 -1.0040
   83MOL    O2124785   1.712   1.750   2.719 -0.0817  0.5812  0.5627
   83MOL    O2224786   1.641   1.603   2.565 -0.2297  0.1298 -0.3200
   83MOL    C2324787   1.766   1.595   2.498  0.3308  0.1691 -0.0392
   83MOL    H2424788   1.407   1.687   2.955 -1.2505 -1.6444 -1.6926
   83MOL    H2524789   1.572   1.719   2.931 -0.7095  0.5458  1.1900
   83MOL    H2624790   1.403   1.796   2.618  0.9813 -0.0672  0.7003
   83MOL    H2724791   1.367   1.629   2.585  2.1015  0.3253 -0.1016
   83MOL    H2824792   1.289   1.718   2.726 -0.4691  1.0115 -0.2920
   83MOL    H2924793   1.771   1.511   2.429 -2.5765  0.3078 -0.4880
   83MOL    H3024794   1.858   1.591   2.555  1.2719 -0.2882 -1.5793
   83MOL    H3124795   1.773   1.691   2.446 -1.9201  0.7261  0.6006
   83MOL    C3224796   1.470   1.503   2.787  0.6891  0.4609  0.4111
   83MOL    C3324797   1.566   1.411   2.883  0.0031  0.0192 -0.5821
   83MOL    C3424798   1.719   1.444   2.865 -0.4770 -0.2311 -0.0836
   83MOL    C3524799   1.525   1.454   3.034 -0.8459  0.1672  0.2718
   83MOL    O3624800   1.613   1.506   3.106 -0.1858 -0.1063 -0.5972
   83MOL    O3724801   1.400   1.420   3.058 -0.0063  0.0919 -0.2111
   83MOL    C3824802   1.355   1.417   3.192  0.2371 -0.1798 -0.0223
   83MOL    H3924803   1.466   1.458   2.688 -1.2954  1.6844 -0.1063
   83MOL    H4024804   1.367   1.501   2.822  0.6926 -0.8588  0.3790
   83MOL    H4124805   1.771   1.401   2.951 -1.7841 -0.6679  0.5055
   83MOL    H4224806   1.760   1.409   2.771  3.5152 -1.6889  2.0720
   83MOL    H4324807   1.753   1.547   2.873 -2.1332  0.5333 -2.5046
   83MOL    H4424808   1.314   1.506   3.240  2.4502  1.1641 -0.5937
   83MOL    H4524809   1.425   1.368   3.260  1.5360 -1.8194 -2.4706
   83MOL    H4624810   1.273   1.345   3.196  0.4394 -0.3418  1.5187
   83MOL    C4724811   1.527   1.260   2.860  0.9855  0.1209  0.9320
   83MOL    C4824812   1.613   1.134   2.912 -0.2808  0.4208  0.5682
   83MOL    C4924813   1.526   1.010   2.883 -0.9711 -0.1497  0.7972
   83MOL    C5024814   1.743   1.127   2.827 -0.3208  0.3775  0.0157
   83MOL    O5124815   1.737   1.068   2.719  0.0283  0.2838 -0.2476
   83MOL    O5224816   1.846   1.183   2.874  0.0342 -0.6355  0.0393
   83MOL    C5324817   1.964   1.167   2.798 -0.0391  0.1228 -0.2036
   83MOL    H5424818   1.517   1.243   2.752 -0.6854 -1.5837  1.3110
   83MOL    H5524819   1.427   1.246   2.901  0.6923 -1.8529 -0.3708
   83MOL    H5624820   1.586   0.921   2.900 -0.5280  0.1285  0.6999
   83MOL    H5724821   1.430   1.007   2.935 -1.4065  1.8753  0.1776
   83MOL    H5824822   1.512   0.987   2.778 -1.7110 -1.4367  1.1766
   83MOL    H5924823   1.962   1.202   2.695 -1.9941 -0.5525 -0.3987
   83MOL    H6024824   1.998   1.064   2.799  2.5827  0.9210  1.8773
   83MOL    H6124825   2.050   1.208   2.852  1.6199 -2.7919 -0.5523
   83MOL    C6224826   1.638   1.144   3.062  0.0220 -0.1410  0.6689
   83MOL    C6324827   1.684   1.034   3.166 -0.0276 -0.0821  0.1477
   83MOL    C6424828   1.727   1.103   3.294 -0.4161  0.0495 -0.1215
   83MOL    C6524829   1.562   0.944   3.205 -0.2870  0.1871 -0.0832
   83MOL    O6624830   1.546   0.830   3.169 -0.0626  0.3727 -0.1456
   83MOL    O6724831   1.473   1.006   3.286 -0.7301 -0.5662  0.2156
   83MOL    C6824832   1.346   0.948   3.310  0.4159  0.4727 -0.5743
   83MOL    H6924833   1.550   1.191   3.105  0.8565  0.4118  1.7918
   83MOL    H7024834   1.709   1.227   3.065  1.1804 -1.1159  0.6476
   83MOL    H7124835   1.825   1.150   3.306 -0.3745  0.1938 -0.9954
   83MOL    H7224836   1.660   1.175   3.339 -0.1316  0.2309  0.0091
   83MOL    H7324837   1.724   1.026   3.371  0.5572  0.4772  0.3543
   83MOL    H7424838   1.331   0.911   3.412  0.8135  0.6950 -0.4319
   83MOL    H7524839   1.316   0.865   3.247 -0.2641  0.3381 -0.0817
   83MOL    H7624840   1.263   1.016   3.292 -0.4561  0.0965  1.7621
   83MOL    C7724841   1.805   0.957   3.107 -0.1780 -0.3539 -0.0823
   83MOL    C7824842   1.887   0.838   3.164  0.7083  0.0007  0.0950
   83MOL    C7924843   1.920   0.855   3.318 -1.1203 -0.5968 -0.0060
   83MOL    C8024844   1.819   0.703   3.141 -0.4739  0.1000  0.2320
   83MOL    O8124845   1.787   0.626   3.227 -0.0933 -0.3202 -0.3964
   83MOL    O8224846   1.777   0.686   3.015  0.6721  0.2778  0.1894
   83MOL    C8324847   1.685   0.588   2.980  0.4257  0.4283  0.0251
   83MOL    H8424848   1.873   1.042   3.095  0.2002 -0.6971 -0.3824
   83MOL    H8524849   1.775   0.947   3.002 -0.2716 -0.0747 -0.0821
   83MOL    H8624850   1.980   0.944   3.337  0.1464 -1.6477  0.9541
   83MOL    H8724851   1.832   0.847   3.382 -1.0446  0.5730  0.2595
   83MOL    H8824852   1.974   0.776   3.370  2.4080  2.5782  1.3493
   83MOL    H8924853   1.693   0.586   2.871  1.3166 -1.1544  0.1004
   83MOL    H9024854   1.591   0.620   3.024  0.4018 -0.0483  0.3253
   83MOL    H9124855   1.712   0.486   3.009  2.0451 -0.1483 -3.2665
   83MOL    C9224856   2.016   0.842   3.081 -0.7297 -0.2607 -0.3958
   83MOL    C9324857   2.145   0.748   3.103 -0.5093 -0.0793  0.4175
   83MOL    C9424858   2.112   0.596   3.138  0.0535  0.0554 -0.3511
   83MOL    C9524859   2.218   0.736   2.963  0.1804 -0.6172 -0.4853
   83MOL    O9624860   2.259   0.635   2.917 -0.6010 -0.2244 -0.0033
   83MOL    O9724861   2.230   0.859   2.902  0.5443  0.2596  0.0451
   83MOL    C9824862   2.307   0.872   2.780  0.1181 -0.6486  0.0882
   83MOL    H9924863   2.049   0.946   3.079 -0.6021 -0.3084 -0.9792
   83MOL   H10024864   1.992   0.828   2.975  0.4684 -0.1383 -0.6983
   83MOL   H10124865   2.207   0.546   3.156 -0.3924 -0.1735  1.4171
   83MOL   H10224866   2.052   0.591   3.229  3.6529 -0.9203  2.0992
   83MOL   H10324867   2.048   0.554   3.061 -2.0713 -2.4550  2.6653
   83MOL   H10424868   2.411   0.856   2.806 -1.0486 -0.2551  5.4948
   83MOL   H10524869   2.298   0.974   2.740  0.5445 -0.7404 -0.2460
   83MOL   H10624870   2.268   0.804   2.704 -1.5441 -0.4303  0.7094
   83MOL   C10724871   2.231   0.808   3.213  0.2549  0.4320  0.1703
   83MOL   C10824872   2.368   0.878   3.196 -0.7116 -0.0441 -0.4626
   83MOL   C10924873   2.466   0.781   3.134 -0.7443 -0.3709  0.2547
   83MOL   C11024874   2.375   1.010   3.110 -0.0126 -0.1987  0.1496
   83MOL   O11124875   2.270   1.078   3.091  0.1447  0.2491  0.2983
   83MOL   O11224876   2.498   1.049   3.085  0.8464  0.4008  0.5594
   83MOL   C11324877   2.512   1.169   3.014 -0.8112 -0.3516 -0.4744
   83MOL   H11424878   2.267   0.727   3.276  1.9085 -0.9854 -2.4943
   83MOL   H11524879   2.170   0.878   3.270 -1.6456 -0.0118 -1.2881
   83MOL   H11624880   2.453   0.679   3.169 -1.9535 -0.3380 -0.0461
   83MOL   H11724881   2.460   0.785   3.025 -0.6632  0.9170  0.2962
   83MOL   H11824882   2.569   0.809   3.151 -0.2467 -2.6109  1.1199
   83MOL   H11924883   2.489   1.172   2.907  0.8747 -2.1278 -0.9108
   83MOL   H12024884   2.613   1.208   3.028 -1.4605  1.0606  0.4438
   83MOL   H12124885   2.441   1.245   3.048  1.3358  0.1748  2.9737
   83MOL   C12224886   2.431   0.913   3.337 -0.0364 -0.2120 -0.0308
   83MOL   C12324887   2.354   0.970   3.463  0.2520  0.0201  0.6474
   83MOL   C12424888   2.266   1.089   3.421  0.8320 -0.3477  0.6432
   83MOL   C12524889   2.269   0.860   3.526 -0.2439  0.6517  0.2586
   83MOL   O12624890   2.150   0.868   3.549 -0.3126  0.3137 -0.4230
   83MOL   O12724891   2.332   0.748   3.549  0.3553  0.1420  0.2989
   83MOL   C12824892   2.254   0.630   3.579 -0.6434 -0.8738 -0.8928
   83MOL   H12924893   2.510   0.987   3.319  0.0574 -0.2120  0.3871
   83MOL   H13024894   2.487   0.824   3.366  1.4004  0.7196  0.0995
   83MOL   H13124895   2.312   1.170   3.364 -0.5924  0.3796  0.5060
   83MOL   H13224896   2.182   1.058   3.359  0.8511  1.0334 -0.0841
   83MOL   H13324897   2.213   1.119   3.511  0.4167 -1.4178  0.7656
   83MOL   H13424898   2.155   0.624   3.533 -0.1933 -0.7750 -1.8733
   83MOL   H13524899   2.249   0.628   3.688  1.7783 -2.9850 -0.7849
   83MOL   H13624900   2.306   0.539   3.549 -0.9273 -1.4586  0.3614
   83MOL   C13724901   2.454   1.017   3.570  0.3679  0.1375  0.2383
   83MOL   C13824902   2.443   1.028   3.736 -0.1594  0.1543  0.2458
   83MOL   C13924903   2.313   1.097   3.786  0.3201  0.0063  0.6121
   83MOL   C14024904   2.450   0.888   3.798 -0.6151  0.3859  0.0556
   83MOL   O14124905   2.360   0.847   3.868  0.0920 -0.0177  0.3465
   83MOL   O14224906   2.562   0.818   3.754 -0.3052  0.1640 -0.2265
   83MOL   C14324907   2.573   0.680   3.790  0.2573  0.6866  0.5425
   83MOL   H14424908   2.478   1.121   3.548  2.4576 -0.4646 -0.3558
   83MOL   H14524909   2.545   0.959   3.555  0.9015  0.4995  1.9656
   83MOL   H14624910   2.314   1.199   3.749 -1.0180  0.1286  0.9045
   83MOL   H14724911   2.221   1.053   3.748  0.6833 -0.7581  0.6103
   83MOL   H14824912   2.314   1.097   3.895 -1.3866 -2.3535  0.6642
   83MOL   H14924913   2.540   0.624   3.703 -0.4471  1.2005  0.4731
   83MOL   H15024914   2.514   0.645   3.875  2.2595 -0.5656  1.4701
   83MOL   H15124915   2.679   0.659   3.806 -0.1823 -1.5997  0.5637
   83MOL   C15224916   2.572   1.113   3.782 -0.3356  0.5853 -0.0901
   83MOL   C15324917   2.610   1.171   3.922 -0.3780 -0.1348  0.7229
   83MOL   C15424918   2.759   1.204   3.929 -0.0819 -0.5405  0.0382
   83MOL   C15524919   2.530   1.302   3.932  0.2602  0.4707 -0.4074
   83MOL   O15624920   2.420   1.303   3.978  0.1752 -0.5512 -0.3410
   83MOL   O15724921   2.597   1.411   3.886 -0.2633  0.3266  0.2995
   83MOL   C15824922   2.540   1.539   3.894 -0.0748 -0.4873 -0.4074
   83MOL   H15924923   2.568   1.203   3.720  2.0701  0.8575  0.0809
   83MOL   H16024924   2.660   1.061   3.744  0.3575  1.5411  0.1970
   83MOL   H16124925   2.824   1.117   3.930  0.1229 -0.3812  1.3202
   83MOL   H16224926   2.778   1.273   3.847  0.4894 -3.0581 -1.9978
   83MOL   H16324927   2.796   1.263   4.013  0.8981  0.1208 -0.8412
   83MOL   H16424928   2.527   1.586   3.991 -0.1300 -2.0516  0.3710
   83MOL   H16524929   2.446   1.536   3.838 -0.1514  0.6216 -0.3487
   83MOL   H16624930   2.604   1.608   3.840  0.9608 -1.1387 -0.0116
   83MOL   C16724931   2.568   1.068   4.026 -0.2071  0.7673 -0.4342
   83MOL   C16824932   2.601   1.082   4.188  0.3294 -0.6153  0.5366
   83MOL   C16924933   2.746   1.044   4.222 -0.2019 -0.0022  0.5345
   83MOL   C17024934   2.569   1.224   4.239 -0.6764  0.5810  0.3009
   83MOL   O17124935   2.456   1.253   4.279  0.4416  0.2791 -0.1474
   83MOL   O17224936   2.662   1.322   4.239  0.6764  0.8153 -0.1076
   83MOL   C17324937   2.617   1.457   4.263 -0.0615 -0.2439  0.3669
   83MOL   H17424938   2.600   0.970   3.991 -0.6122  0.4566  0.0669
   83MOL   H17524939   2.461   1.049   4.022 -0.1051  0.3483 -1.3413
   83MOL   H17624940   2.812   1.129   4.203  1.9046 -1.4102  1.3613
   83MOL   H17724941   2.763   1.020   4.327  1.2442 -1.8288 -0.0977
   83MOL   H17824942   2.789   0.957   4.173 -0.2226  0.0883  0.3522
   83MOL   H17924943   2.531   1.479   4.200  0.7280  0.1511 -0.5796
   83MOL   H18024944   2.701   1.523   4.242 -0.6864  0.4622  0.0783
   83MOL   H18124945   2.573   1.470   4.363 -0.6113 -0.4496  0.1551
   83MOL   C18224946   2.507   0.976   4.259 -0.2361 -0.4115  0.1691
   83MOL   C18324947   2.536   0.823   4.275  0.0303 -0.0197 -0.2200
   83MOL   C18424948   2.572   0.758   4.136  0.2103  1.0644  0.3934
   83MOL   C18524949   2.659   0.797   4.377 -0.4615 -0.3267  0.9901
   83MOL   O18624950   2.758   0.729   4.337  0.0082  0.0654 -0.3338
   83MOL   O18724951   2.647   0.847   4.503 -0.1263  0.1075 -0.3077
   83MOL   C18824952   2.760   0.829   4.588 -0.3292  0.6853  0.1532
   83MOL   H18924953   2.408   0.996   4.219 -0.2994  0.6601  0.8478
   83MOL   H19024954   2.505   1.011   4.363 -3.5618 -0.8731  0.3079
   83MOL   H19124955   2.585   0.651   4.152 -0.4384  0.9940  0.4653
   83MOL   H19224956   2.493   0.780   4.064  0.4286  0.8838  0.0983
   83MOL   H19324957   2.663   0.793   4.087 -0.4144 -1.5806 -2.8471
   83MOL   H19424958   2.837   0.897   4.550 -0.2126  0.6314  0.2967
   83MOL   H19524959   2.798   0.728   4.598 -0.8713  0.1404 -2.7510
   83MOL   H19624960   2.725   0.852   4.689  1.3145  0.5215  0.7644
   83MOL   C19724961   2.416   0.752   4.338  0.1174 -0.6148  0.0356
   83MOL   C19824962   2.287   0.706   4.262 -0.5105  0.1889  0.1631
   83MOL   C19924963   2.225   0.820   4.187 -0.4032  0.6861 -0.0193
   83MOL   C20024964   2.317   0.586   4.168  0.5977 -0.4096  0.4798
   83MOL   O20124965   2.372   0.491   4.222 -0.2875 -0.2466  0.3032
   83MOL   O20224966   2.277   0.590   4.038 -0.3014  0.4915 -0.2448
   83MOL   C20324967   2.311   0.481   3.955 -0.5477  0.4774  0.8729
   83MOL   H20424968   2.376   0.830   4.403 -0.0739  1.2459 -2.2525
   83MOL   H20524969   2.443   0.665   4.398 -1.4771  0.4331  2.3252
   83MOL   H20624970   2.202   0.910   4.244  0.3427  0.5124  0.5697
   83MOL   H20724971   2.281   0.865   4.105 -1.9653 -0.0848 -1.5333
   83MOL   H20824972   2.131   0.790   4.140 -0.6822  0.8737  0.4160
   83MOL   H20924973   2.266   0.501   3.858  2.4403  0.3804 -0.6087
   83MOL   H21024974   2.240   0.403   3.980  0.4047 -0.0178  2.0938
   83MOL   H21124975   2.417   0.460   3.937 -0.8422 -0.3935  0.1038
   83MOL   C21224976   2.194   0.649   4.378 -0.3071 -1.0358  1.0615
   83MOL   C21324977   2.038   0.624   4.361 -1.2165 -0.3806  0.2103
   83MOL   C21424978   1.963   0.760   4.359  0.5588  0.2425  0.1728
   83MOL   C21524979   1.989   0.542   4.239 -0.1691 -0.9398 -0.3052
   83MOL   O21624980   1.996   0.419   4.244 -0.1506  0.0509  0.4524
   83MOL   O21724981   1.938   0.613   4.126 -0.2811  0.0084  0.5537
   83MOL   C21824982   1.881   0.547   4.013 -0.4121 -0.0580  0.3146
   83MOL   H21924983   2.192   0.717   4.463 -0.8391  0.8000 -0.3699
   83MOL   H22024984   2.233   0.555   4.415 -0.8640 -0.6900  2.5621
   83MOL   H22124985   1.993   0.821   4.273 -1.5696 -0.1643 -0.8971
   83MOL   H22224986   1.855   0.749   4.367  0.6475 -2.4576 -1.7911
   83MOL   H22324987   1.988   0.820   4.447 -0.6963  1.0658 -0.0157
   83MOL   H22424988   1.932   0.457   3.978 -1.5888 -1.8023  2.9216
   83MOL   H22524989   1.865   0.614   3.928 -1.6039  1.8506  2.0183
   83MOL   H22624990   1.786   0.513   4.054  0.7969 -0.9273  2.4823
   83MOL   C22724991   2.000   0.537   4.492  0.1766 -0.4024  0.3689
   83MOL   C22824992   1.852   0.527   4.549  0.5856 -0.4094 -0.3932
   83MOL   C22924993   1.865   0.402   4.644 -0.2197  0.0978  0.0866
   83MOL   C23024994   1.821   0.652   4.628  0.4779 -0.6120 -0.9171
   83MOL   O23124995   1.721   0.720   4.605 -1.2611  0.4246 -0.2546
   83MOL   O23224996   1.911   0.679   4.726  0.8141 -0.2179  0.5444
   83MOL   C23324997   1.887   0.793   4.809 -0.5809 -0.4690 -0.2869
   83MOL   H23424998   2.062   0.570   4.575 -0.7118  2.6089 -0.0963
   83MOL   H23524999   2.038   0.436   4.477 -0.1657 -0.3775 -0.7301
   83MOL   H23625000   1.956   0.401   4.703 -1.1060  0.4018  1.4935
   83MOL   H23725001   1.791   0.396   4.725 -1.9971  0.0302 -1.4939
   83MOL   H23825002   1.862   0.312   4.582  1.3783  0.5651 -0.6965
   83MOL   H23925003   1.909   0.764   4.912  0.2566  2.5174  0.4036
   83MOL   H24025004   1.781   0.818   4.808 -0.1887  1.4683  1.7714
   83MOL   H24125005   1.952   0.874   4.779 -1.4286 -0.1521 -1.3058
   83MOL   C24225006   1.739   0.494   4.443  0.3262  0.6480  0.3633
   83MOL   C24325007   1.588   0.450   4.466  0.4356 -0.2965  0.3239
   83MOL   C24425008   1.561   0.375   4.598  0.2864 -0.0629  0.0068
   83MOL   C24525009   1.494   0.581   4.477 -1.3658  0.4105  0.4324
   83MOL   O24625010   1.432   0.609   4.577 -1.2957 -0.1069  0.2895
   83MOL   O24725011   1.498   0.654   4.367 -0.1693  0.0280 -0.0385
   83MOL   C24825012   1.421   0.773   4.352  0.4192 -0.0257  0.6447
   83MOL   H24925013   1.793   0.419   4.386 -0.0052  1.0406 -0.4798
   83MOL   H25025014   1.736   0.576   4.371  0.7946 -0.7602 -1.2873
   83MOL   H25125015   1.604   0.447   4.668  1.1311 -1.0593  0.5241
   83MOL   H25225016   1.455   0.362   4.620  0.2583  1.6717  1.0416
   83MOL   H25325017   1.613   0.280   4.609  1.7253  0.6545 -0.5000
   83MOL   H25425018   1.354   0.778   4.267 -1.1202  3.4223  1.9860
   83MOL   H25525019   1.494   0.852   4.336  1.0378 -0.2237  2.2667
   83MOL   H25625020   1.372   0.802   4.445  2.2322 -2.7532  2.5748
   83MOL   C25725021   1.534   0.373   4.341  0.0718  0.3261 -0.0850
   83MOL   C25825022   1.524   0.218   4.328 -0.2791 -1.0351  0.4364
   83MOL   C25925023   1.666   0.161   4.322  0.2027  0.4334 -0.0653
   83MOL   C26025024   1.440   0.158   4.443  0.0025 -0.0669  0.1452
   83MOL   O26125025   1.326   0.189   4.467 -0.1114  0.2894 -0.4922
   83MOL   O26225026   1.510   0.085   4.523  0.0377  0.6137 -0.1544
   83MOL   C26325027   1.455   0.035   4.643 -0.4391  0.4579  0.6599
   83MOL   H26425028   1.586   0.394   4.247  0.9473 -1.0080  0.0819
   83MOL   H26525029   1.429   0.396   4.321 -0.1728 -1.5482 -1.0882
   83MOL   H26625030   1.717   0.198   4.233  0.0865  0.3588 -0.1614
   83MOL   H26725031   1.731   0.188   4.406 -2.1799  2.0983  1.3171
   83MOL   H26825032   1.674   0.052   4.327 -1.0255  0.3694  0.8965
   83MOL   H26925033   1.449   7.804   4.635 -0.7580  0.4659  0.7761
   83MOL   H27025034   1.359   0.082   4.665  0.2763  2.2782 -0.0226
   83MOL   H27125035   1.507   0.055   4.737  1.1350 -2.1956  0.3841
   83MOL   C27225036   1.453   0.195   4.185 -0.3065  0.0888  0.1779
   83MOL   C27325037   1.427   0.054   4.121  0.3886 -0.3979 -0.1608
   83MOL   C27425038   1.333   0.066   3.996  0.2584 -0.2660 -0.0840
   83MOL   C27525039   1.556   7.863   4.073 -0.0448 -0.0199 -0.1836
   83MOL   O27625040   1.595   7.761   4.132 -1.0511  0.2224 -0.3948
   83MOL   O27725041   1.605   0.046   3.964  0.6461 -0.1213 -0.4563
   83MOL   C27825042   1.714   7.871   3.903 -0.5134  0.5862 -0.4559
   83MOL   H27925043   1.503   0.254   4.108 -0.3077  2.2547  1.7749
   83MOL   H28025044   1.354   0.240   4.180 -0.6578 -0.6678  0.2824
   83MOL   H28125045   1.342   7.867   3.919 -1.2728  0.3599 -0.9077
   83MOL   H28225046   1.225   0.072   4.010  0.1306 -0.4159 -0.9433
   83MOL   H28325047   1.358   0.154   3.937 -0.1824 -0.9878 -1.3912
   83MOL   H28425048   1.776   0.061   3.844 -0.0961  0.7939  0.2169
   83MOL   H28525049   1.693   7.780   3.846  0.9490 -0.4238  0.5715
   83MOL   H28625050   1.780   7.827   3.977 -1.0290 -2.9987 -2.0262
   83MOL   C28725051   1.347   7.836   4.222  0.1090 -0.0742 -0.6347
   83MOL   C28825052   1.296   7.695   4.173  0.1936 -0.0304  0.2960
   83MOL   C28925053   1.285   7.594   4.289 -0.9458 -0.4936 -0.1339
   83MOL   C29025054   1.169   7.701   4.095  0.9204 -0.4751 -0.0500
   83MOL   O29125055   1.166   7.681   3.974  0.0439  0.6942  0.1154
   83MOL   O29225056   1.062   7.735   4.174 -0.1580  0.1891 -0.0273
   83MOL   C29325057   0.936   7.771   4.118 -0.7005  0.0583  0.2576
   83MOL   H29425058   1.263   0.008   4.271 -0.5476 -0.6484 -1.1712
   83MOL   H29525059   1.411   7.812   4.307 -2.7412 -0.7338  1.4213
   83MOL   H29625060   1.262   7.499   4.240 -1.5215 -0.0765 -0.6717
   83MOL   H29725061   1.375   7.573   4.347 -0.3900  0.5448 -0.6282
   83MOL   H29825062   1.203   7.607   4.360 -2.5674  0.1202 -2.0888
   83MOL   H29925063   0.866   7.786   4.201  0.3088  0.5696  1.0360
   83MOL   H30025064   0.895   7.692   4.056  2.1383  0.0729 -1.6913
   83MOL   H30125065   0.946   7.865   4.065  1.2124 -0.5836 -0.5558
   83MOL   H30225066   1.366   7.653   4.101 -0.6936 -0.0088 -0.5842
   84MOL     C125067   7.214   2.420   2.967 -0.3809 -0.0153  0.4118
   84MOL     C225068   7.323   2.509   3.033  0.0893  0.3154 -0.2542
   84MOL     C325069   7.262   2.553   3.170  0.0402  0.1474  0.3973
   84MOL     C425070   7.453   2.423   3.052 -0.0892 -0.1719  0.3706
   84MOL     O525071   7.508   2.419   3.160 -0.1479  0.0473  0.3777
   84MOL     O625072   7.489   2.362   2.934 -0.0223 -0.0813  0.0501
   84MOL     C725073   7.606   2.286   2.927 -0.4808  0.1080  0.2170
   84MOL     H825074   7.203   2.318   3.004 -2.2071  0.1888  0.4965
   84MOL     H925075   7.116   2.465   2.984 -1.2055 -2.0596  1.1991
   84MOL    H1025076   7.182   2.627   3.169 -1.0906 -1.0770 -1.7463
   84MOL    H1125077   7.223   2.462   3.214 -2.0029  0.5344 -0.5508
   84MOL    H1225078   7.323   2.580   3.257 -1.3343 -0.7302  1.6517
   84MOL    H1325079   7.588   2.201   2.861  2.2252  1.4357 -2.3376
   84MOL    H1425080   7.622   2.237   3.023  0.9778  0.3531  0.1062
   84MOL    H1525081   7.691   2.346   2.894 -1.5207  1.1496 -0.5917
   84MOL    H1625082   7.232   2.405   2.861  0.2926  1.5625  0.2976
   84MOL    C1725083   7.342   2.635   2.938  0.3698 -0.6015 -0.7894
   84MOL    C1825084   7.443   2.746   2.951  0.8229 -0.2747 -0.3806
   84MOL    C1925085   7.468   2.783   3.106  0.1684 -0.5162  0.6777
   84MOL    C2025086   7.586   2.698   2.906  0.1280  0.0028  0.0183
   84MOL    O2125087   7.609   2.592   2.844  0.2356  0.5714 -0.3266
   84MOL    O2225088   7.689   2.778   2.944  0.0742 -0.2320  0.8045
   84MOL    C2325089   7.820   2.743   2.905  0.3518  0.3445  0.1958
   84MOL    H2425090   7.256   2.693   2.971  0.5453 -2.1630  2.6393
   84MOL    H2525091   7.326   2.606   2.834  1.0113  1.7396 -1.5788
   84MOL    H2625092   7.377   2.811   3.159  0.2938  1.0022  0.1134
   84MOL    H2725093   7.502   2.696   3.162  1.0223  0.5830  1.8809
   84MOL    H2825094   7.541   2.864   3.107  0.9581 -1.1264 -2.2506
   84MOL    H2925095   7.869   2.664   2.963 -2.4570 -2.0498 -0.5519
   84MOL    H3025096   0.010   2.828   2.911  1.6618 -0.4439 -2.7362
   84MOL    H3125097   7.824   2.695   2.808  3.3999  1.8078 -0.4616
   84MOL    C3225098   7.409   2.888   2.885 -0.3450  0.5021  0.8998
   84MOL    C3325099   7.364   2.892   2.735 -0.2827 -1.0539  0.1700
   84MOL    C3425100   7.496   2.887   2.648 -0.1809  0.1529 -0.0234
   84MOL    C3525101   7.264   2.781   2.684  1.2796 -0.3978  0.0472
   84MOL    O3625102   7.284   2.705   2.585 -0.1032 -0.0988  0.2920
   84MOL    O3725103   7.145   2.786   2.744  0.0580  0.6747 -0.2769
   84MOL    C3825104   7.040   2.700   2.693  0.0245  0.3075  0.0445
   84MOL    H3925105   7.492   2.958   2.893 -0.0882  0.4883 -1.2866
   84MOL    H4025106   7.325   2.928   2.942 -0.4802  1.3550  0.1032
   84MOL    H4125107   7.555   2.800   2.673 -2.5366 -1.0390  1.5720
   84MOL    H4225108   7.473   2.872   2.542 -0.8934  0.8106  0.0285
   84MOL    H4325109   7.559   2.975   2.663 -0.8096  1.1359 -2.7105
   84MOL    H4425110   7.074   2.599   2.668  1.9129  1.2187 -1.1689
   84MOL    H4525111   6.985   2.749   2.613 -3.9818 -1.7178  1.3863
   84MOL    H4625112   6.966   2.682   2.771 -0.2996  1.0150 -0.0947
   84MOL    C4725113   7.310   3.040   2.717 -0.1331 -0.1209 -0.4768
   84MOL    C4825114   7.260   3.109   2.579 -0.0159  0.7464  0.3150
   84MOL    C4925115   7.184   3.238   2.618 -0.0447 -0.1664 -0.2115
   84MOL    C5025116   7.388   3.131   2.493  0.2825 -0.0287 -0.6598
   84MOL    O5125117   7.402   3.074   2.381 -0.0353  0.2784 -0.3025
   84MOL    O5225118   7.470   3.226   2.552 -0.3854 -0.4561 -0.4758
   84MOL    C5325119   7.593   3.259   2.492  0.2498 -0.2620 -0.6956
   84MOL    H5425120   7.390   3.104   2.756  0.1222  0.2113 -1.5224
   84MOL    H5525121   7.225   3.040   2.785 -0.6228 -4.4014 -0.9468
   84MOL    H5625122   7.248   3.297   2.683 -1.0362 -0.4632  1.0448
   84MOL    H5725123   7.166   3.311   2.539  0.4701 -0.4230 -0.5722
   84MOL    H5825124   7.092   3.219   2.674 -0.4901 -0.9800 -1.1983
   84MOL    H5925125   7.568   3.258   2.386 -0.7564 -1.8400 -0.4567
   84MOL    H6025126   7.675   3.188   2.502 -0.0255 -0.4156  0.4757
   84MOL    H6125127   7.635   3.354   2.523 -2.3677  1.6078 -2.6069
   84MOL    C6225128   7.157   3.016   2.498 -0.9258 -0.8704 -0.3827
   84MOL    C6325129   7.065   3.066   2.381 -0.1396 -0.0124 -0.1324
   84MOL    C6425130   7.145   3.158   2.286 -0.5444 -0.3722 -0.0709
   84MOL    C6525131   7.024   2.937   2.306  0.5102  0.1420  0.5304
   84MOL    O6625132   6.973   2.848   2.369  0.2036 -0.2861  0.2352
   84MOL    O6725133   7.050   2.941   2.175  0.5244 -0.5884 -0.3696
   84MOL    C6825134   7.016   2.830   2.090  0.2803  0.0893  0.0545
   84MOL    H6925135   7.098   2.967   2.576 -0.0414 -0.2459  0.6964
   84MOL    H7025136   7.213   2.936   2.450 -0.4271  0.2287 -1.6469
   84MOL    H7125137   7.080   3.201   2.210 -0.6466  0.6307  0.5629
   84MOL    H7225138   7.181   3.247   2.338 -1.6805 -1.0421  1.9111
   84MOL    H7325139   7.221   3.101   2.233 -0.7115  0.4075 -1.1478
   84MOL    H7425140   6.913   2.849   2.059 -0.0837  1.9504  2.3001
   84MOL    H7525141   7.022   2.734   2.142  0.1839  2.3466  4.4223
   84MOL    H7625142   7.084   2.847   2.006  0.6770  0.4359  0.4455
   84MOL    C7725143   6.937   3.146   2.437  0.0170 -0.1006 -0.3235
   84MOL    C7825144   6.791   3.151   2.385  1.0107 -0.7416  0.4779
   84MOL    C7925145   6.798   3.171   2.234  0.2544  0.4156  0.0902
   84MOL    C8025146   6.715   3.012   2.411 -0.1050  0.3829  0.3323
   84MOL    O8125147   6.663   2.949   2.322  0.4546  0.0806  1.3733
   84MOL    O8225148   6.714   2.983   2.544 -0.2663  0.1429 -0.5222
   84MOL    C8325149   6.666   2.854   2.575  0.0710  0.0666 -0.5854
   84MOL    H8425150   6.979   3.246   2.438 -0.5741  0.2037 -2.5553
   84MOL    H8525151   6.933   3.119   2.542  1.9267 -0.5328 -0.3411
   84MOL    H8625152   6.850   3.264   2.207 -1.2342  0.3873 -3.1606
   84MOL    H8725153   6.831   3.085   2.176 -0.7179 -0.5235  0.9221
   84MOL    H8825154   6.697   3.164   2.195  0.0140 -0.7213  0.9044
   84MOL    H8925155   6.634   2.846   2.679  1.4572  0.1523 -0.1349
   84MOL    H9025156   6.739   2.777   2.550  0.0067 -0.6945  1.4327
   84MOL    H9125157   6.570   2.835   2.528  0.3358 -0.2964 -0.9792
   84MOL    C9225158   6.719   3.275   2.467  0.1254 -0.1537  1.3353
   84MOL    C9325159   6.584   3.337   2.433  0.0456  0.4573  0.4259
   84MOL    C9425160   6.603   3.419   2.307 -0.3396  0.4108 -0.1751
   84MOL    C9525161   6.472   3.232   2.420 -0.2171 -0.0884 -0.1343
   84MOL    O9625162   6.401   3.221   2.323  0.3101 -0.0690  0.1123
   84MOL    O9725163   6.458   3.162   2.537 -0.2558 -0.3491 -0.1912
   84MOL    C9825164   6.365   3.064   2.561  0.3424  0.2004  0.3677
   84MOL    H9925165   6.793   3.355   2.473  0.5870 -0.0027 -3.6439
   84MOL   H10025166   6.708   3.235   2.567 -2.3038 -1.8766  0.4344
   84MOL   H10125167   6.508   3.456   2.266 -1.2538 -1.7845 -0.1111
   84MOL   H10225168   6.676   3.499   2.319  0.5521 -0.4141 -0.1335
   84MOL   H10325169   6.643   3.365   2.221 -0.9091 -2.0318  1.0488
   84MOL   H10425170   6.269   3.087   2.516  1.1033 -0.5814 -1.6753
   84MOL   H10525171   6.360   3.055   2.670 -1.3980 -0.9334  0.2046
   84MOL   H10625172   6.416   2.980   2.515 -2.5657 -1.1798 -0.4183
   84MOL   C10725173   6.550   3.441   2.552  0.4776 -0.3266 -0.2446
   84MOL   C10825174   6.418   3.520   2.575 -0.2829  0.2905  0.6796
   84MOL   C10925175   6.368   3.578   2.443 -0.0860  0.1830  0.5732
   84MOL   C11025176   6.318   3.418   2.637 -0.2723 -0.2898  0.0685
   84MOL   O11125177   6.215   3.382   2.579 -0.0349 -0.6948 -0.3815
   84MOL   O11225178   6.359   3.363   2.760  0.0045  0.2685  0.4795
   84MOL   C11325179   6.257   3.286   2.826 -0.2141 -0.8947  0.1539
   84MOL   H11425180   6.632   3.512   2.562  0.1261  0.2195 -1.2940
   84MOL   H11525181   6.567   3.389   2.647  0.5123  2.7907  1.5009
   84MOL   H11625182   6.280   3.642   2.451 -0.2458  0.4642 -2.7656
   84MOL   H11725183   6.444   3.627   2.383 -0.0659 -1.3197 -0.6745
   84MOL   H11825184   6.319   3.492   2.396 -0.2518 -0.3019  1.6021
   84MOL   H11925185   6.292   3.208   2.893  0.6495 -0.3601  0.3271
   84MOL   H12025186   6.176   3.246   2.765  0.1880 -0.0603 -0.9356
   84MOL   H12125187   6.212   3.351   2.901 -0.5374  1.0791 -1.7065
   84MOL   C12225188   6.445   3.630   2.689 -0.2174  0.2682  0.1096
   84MOL   C12325189   6.351   3.746   2.727 -0.9425 -0.0197 -0.2907
   84MOL   C12425190   6.209   3.691   2.748 -0.1159  0.2068  0.3201
   84MOL   C12525191   6.393   3.813   2.863  0.0688  0.6670 -0.6502
   84MOL   O12625192   6.318   3.829   2.962  0.0198  0.5494  0.1063
   84MOL   O12725193   6.526   3.840   2.865 -0.3480  0.1729  0.2215
   84MOL   C12825194   6.578   3.899   2.983 -0.0941 -0.1302 -0.1258
   84MOL   H12925195   6.532   3.679   2.644 -0.4645  1.3631  0.7945
   84MOL   H13025196   6.473   3.581   2.783 -1.9427  2.4036  1.8054
   84MOL   H13125197   6.131   3.762   2.775 -0.3894 -0.3070  0.9103
   84MOL   H13225198   6.169   3.652   2.654  0.7810  0.1204 -0.0311
   84MOL   H13325199   6.217   3.607   2.817 -0.3492  0.3932  0.5787
   84MOL   H13425200   6.564   3.822   3.058 -0.3251  0.4461  0.4312
   84MOL   H13525201   6.511   3.981   3.006 -0.5652 -0.1824 -1.2619
   84MOL   H13625202   6.682   3.929   2.967 -0.4212  0.1091 -1.8781
   84MOL   C13725203   6.364   3.855   2.613  0.0136  0.8606  0.3653
   84MOL   C13825204   6.305   4.010   2.630  0.9540 -0.5876  0.1718
   84MOL   C13925205   6.190   4.027   2.741  0.1762  0.0499 -0.4722
   84MOL   C14025206   6.428   4.098   2.665 -0.2912  0.0536  0.0089
   84MOL   O14125207   6.435   4.181   2.756  0.5100 -0.5797  0.3529
   84MOL   O14225208   6.537   4.071   2.577  0.2039  0.5373  0.1954
   84MOL   C14325209   6.655   4.155   2.578 -0.6409  0.2721  0.9599
   84MOL   H14425210   6.302   3.810   2.536  2.5963 -1.8599 -0.1863
   84MOL   H14525211   6.465   3.852   2.573  0.6151  1.7815  1.7691
   84MOL   H14625212   6.211   3.995   2.843  1.0588 -1.2808 -1.0507
   84MOL   H14725213   6.160   4.130   2.755 -0.7444 -0.3555  0.5174
   84MOL   H14825214   6.103   3.975   2.701  1.0775  0.1003 -2.5982
   84MOL   H14925215   6.633   4.259   2.598  0.0299  0.6815 -0.4202
   84MOL   H15025216   6.709   4.161   2.483 -2.9660  1.2741 -0.3200
   84MOL   H15125217   6.721   4.117   2.656  1.7679 -1.5903 -1.8582
   84MOL   C15225218   6.242   4.042   2.494 -0.0400  0.5228  0.5471
   84MOL   C15325219   6.157   4.170   2.455 -0.3417 -0.1857 -0.0296
   84MOL   C15425220   6.013   4.132   2.498  0.5160  0.2947 -0.0378
   84MOL   C15525221   6.217   4.291   2.531  0.1089  0.9002  0.0543
   84MOL   O15625222   6.146   4.343   2.620  0.4447 -0.0677 -0.3815
   84MOL   O15725223   6.340   4.332   2.487 -0.0012  0.7043  0.1737
   84MOL   C15825224   6.417   4.425   2.561  0.4116  0.0282  0.4422
   84MOL   H15925225   6.168   3.969   2.464  0.4982  0.0037  0.4735
   84MOL   H16025226   6.324   4.033   2.423 -0.0054  0.7192  0.5618
   84MOL   H16125227   5.977   4.039   2.454 -0.8724  1.5317 -1.5782
   84MOL   H16225228   5.995   4.126   2.606 -0.4855  0.3564 -0.1970
   84MOL   H16325229   5.938   4.207   2.474 -0.4066 -0.6121 -0.0299
   84MOL   H16425230   6.520   4.422   2.526 -0.0761 -1.5968 -0.9197
   84MOL   H16525231   6.429   4.397   2.665  0.4433 -2.8670 -0.3046
   84MOL   H16625232   6.373   4.524   2.546 -1.2610 -0.9697 -1.5769
   84MOL   C16725233   6.174   4.186   2.297  0.4736 -0.2150  0.3108
   84MOL   C16825234   6.076   4.281   2.223  0.2110  0.4648 -0.0618
   84MOL   C16925235   6.034   4.401   2.302  0.0836 -0.0816 -0.1369
   84MOL   C17025236   6.146   4.328   2.090 -0.3836  0.6695 -0.2637
   84MOL   O17125237   6.175   4.447   2.067 -0.1164 -0.0580 -0.5762
   84MOL   O17225238   6.157   4.236   1.996 -0.8369  0.3589 -0.4628
   84MOL   C17325239   6.197   4.282   1.865  0.0092  0.4633  0.2412
   84MOL   H17425240   6.164   4.089   2.248 -0.9463  0.3274 -0.4833
   84MOL   H17525241   6.275   4.219   2.275 -0.1083  0.7786 -0.9208
   84MOL   H17625242   5.989   4.473   2.233 -0.8274  0.1430  0.6850
   84MOL   H17725243   5.964   4.393   2.384  0.6619 -1.0330  0.2684
   84MOL   H17825244   6.124   4.453   2.336  0.1588 -1.2809  1.4970
   84MOL   H17925245   6.241   4.381   1.855  0.1697  0.3288 -0.4266
   84MOL   H18025246   6.122   4.287   1.787  0.9888  0.8879 -0.6966
   84MOL   H18125247   6.275   4.216   1.824  0.2063  1.0105 -0.2713
   84MOL   C18225248   5.956   4.192   2.174  0.5944  0.3706 -0.0181
   84MOL   C18325249   5.815   4.239   2.109  0.2202 -0.3518 -0.6652
   84MOL   C18425250   5.761   4.101   2.064  0.2071 -0.2031  0.3047
   84MOL   C18525251   5.719   4.297   2.216  0.3719 -1.0038 -0.1028
   84MOL   O18625252   5.626   4.231   2.263  0.0640 -0.1691 -0.7291
   84MOL   O18725253   5.751   4.425   2.244  0.8019 -0.3079  0.3467
   84MOL   C18825254   5.673   4.497   2.337  0.0883  0.2120  0.0032
   84MOL   H18925255   5.902   4.156   2.262  0.7908 -1.6245 -0.6859
   84MOL   H19025256   5.983   4.106   2.112  1.7998 -0.2861  1.4029
   84MOL   H19125257   5.657   4.090   2.037  0.1527 -2.6154  1.3490
   84MOL   H19225258   5.820   4.060   1.982 -0.5708  0.8389 -0.8034
   84MOL   H19325259   5.767   4.030   2.146  0.4590  2.2637  2.5161
   84MOL   H19425260   5.739   4.536   2.415 -1.9908  2.3577  0.7521
   84MOL   H19525261   5.605   4.429   2.386 -0.0615 -0.8227 -1.6008
   84MOL   H19625262   5.632   4.584   2.285  1.1669  1.4034  1.0916
   84MOL   C19725263   5.841   4.324   1.976 -0.0718  0.1473  0.1413
   84MOL   C19825264   5.744   4.343   1.851 -0.1220 -0.0538  1.0358
   84MOL   C19925265   5.735   4.224   1.752 -0.3526 -0.2211 -0.2725
   84MOL   C20025266   5.608   4.376   1.906  0.0959 -0.3392 -1.2268
   84MOL   O20125267   5.508   4.298   1.891  0.2771  0.0397  0.1792
   84MOL   O20225268   5.592   4.489   1.980 -0.4353  0.6606 -0.1482
   84MOL   C20325269   5.468   4.538   2.038 -0.4160 -0.2783  0.2201
   84MOL   H20425270   5.934   4.291   1.931  1.3744  1.0725  2.3283
   84MOL   H20525271   5.869   4.421   2.018  2.2142 -0.2347 -0.4643
   84MOL   H20625272   5.663   4.238   1.672 -0.0389  1.9153 -0.2164
   84MOL   H20725273   5.831   4.189   1.714 -1.5114 -1.6117 -2.0399
   84MOL   H20825274   5.691   4.136   1.798 -1.1047  0.1665 -0.2496
   84MOL   H20925275   5.386   4.515   1.970  0.9077 -1.8965 -0.8760
   84MOL   H21025276   5.477   4.646   2.043 -0.8748 -0.2143 -0.3351
   84MOL   H21125277   5.462   4.491   2.136 -2.8144 -1.0938 -0.2788
   84MOL   C21225278   5.804   4.486   1.783  0.4061 -0.0922  0.1440
   84MOL   C21325279   5.812   4.513   1.628 -0.2848  0.1099 -0.3772
   84MOL   C21425280   5.888   4.405   1.547  0.2762  0.2617 -0.1024
   84MOL   C21525281   5.674   4.534   1.562  0.2607  0.3194 -0.5648
   84MOL   O21625282   5.567   4.530   1.626 -0.1895 -0.6996  0.3576
   84MOL   O21725283   5.683   4.564   1.433  0.2763 -0.8811 -0.3905
   84MOL   C21825284   5.573   4.638   1.378 -0.3368 -0.6904  0.2601
   84MOL   H21925285   5.906   4.503   1.819  0.8812 -0.5266 -0.9866
   84MOL   H22025286   5.742   4.566   1.823 -0.9667 -1.5373  1.0170
   84MOL   H22125287   5.971   4.354   1.595 -1.0487 -0.1503  1.7798
   84MOL   H22225288   5.822   4.327   1.512  0.0335  0.1717  0.5593
   84MOL   H22325289   5.930   4.443   1.453  0.7157 -3.3007 -1.4296
   84MOL   H22425290   5.476   4.588   1.380  0.2744 -1.8466  2.0207
   84MOL   H22525291   5.592   4.675   1.277  0.0407  0.8254  0.8774
   84MOL   H22625292   5.561   4.726   1.442 -2.5653 -1.9588  1.6307
   84MOL   C22725293   5.888   4.644   1.620 -0.4186  0.4145  0.4366
   84MOL   C22825294   5.871   4.786   1.705 -0.1933  0.2669 -0.3675
   84MOL   C22925295   5.928   4.767   1.853  0.3807 -0.3785 -0.3805
   84MOL   C23025296   5.959   4.891   1.635 -0.2700 -0.4315 -0.4243
   84MOL   O23125297   6.062   4.942   1.686  0.0022 -0.3600 -0.4687
   84MOL   O23225298   5.916   4.933   1.511  0.1027  0.2585  0.1647
   84MOL   C23325299   5.993   5.012   1.434 -0.1354 -0.0939  0.1489
   84MOL   H23425300   5.892   4.668   1.514  2.3390  2.8526  1.0468
   84MOL   H23525301   5.990   4.618   1.647 -0.0027 -0.7857 -2.1357
   84MOL   H23625302   6.021   4.711   1.848 -0.0586 -1.2197  0.6451
   84MOL   H23725303   5.955   4.863   1.895 -1.5306  0.2222 -0.4636
   84MOL   H23825304   5.861   4.709   1.916  1.0837 -0.4800  0.2726
   84MOL   H23925305   6.070   5.062   1.491 -0.3608 -1.4750  1.6868
   84MOL   H24025306   5.917   5.082   1.397  0.6041  1.7011  1.9202
   84MOL   H24125307   6.032   4.950   1.353 -1.4527  0.7057 -1.1408
   84MOL   C24225308   5.716   4.832   1.701 -0.1843 -0.7993 -0.1920
   84MOL   C24325309   5.659   4.954   1.784  0.2936  0.2713  0.1568
   84MOL   C24425310   5.753   5.084   1.766 -0.4436 -0.5374  0.1861
   84MOL   C24525311   5.515   4.987   1.712  0.5299  0.2941  0.5132
   84MOL   O24625312   5.492   5.097   1.660 -0.2397  0.1582 -0.3231
   84MOL   O24725313   5.425   4.890   1.721 -0.1955  0.0194  0.1375
   84MOL   C24825314   5.291   4.909   1.672 -0.3108  0.2067 -0.4975
   84MOL   H24925315   5.651   4.747   1.723 -0.1977 -0.7253  0.0480
   84MOL   H25025316   5.684   4.851   1.598  0.5285  0.5430 -0.1721
   84MOL   H25125317   5.790   5.092   1.663 -0.9233 -2.7614 -0.1735
   84MOL   H25225318   5.709   5.181   1.785  1.4365  0.0666  1.6047
   84MOL   H25325319   5.848   5.073   1.818  0.7132 -1.1913 -1.9638
   84MOL   H25425320   5.224   4.967   1.735 -0.4553 -1.7884  1.2503
   84MOL   H25525321   5.252   4.808   1.683 -1.0817  0.6633  1.0632
   84MOL   H25625322   5.291   4.918   1.563  0.8383  0.5830 -0.4724
   84MOL   C25725323   5.646   4.904   1.936 -0.0202  0.0716  0.4123
   84MOL   C25825324   5.576   4.995   2.053  0.8704 -0.1117  0.1811
   84MOL   C25925325   5.658   5.129   2.060  0.7111  0.6034 -0.0429
   84MOL   C26025326   5.428   5.016   2.026  0.0932 -0.1275 -0.3740
   84MOL   O26125327   5.377   5.122   2.005  0.5612 -0.3695 -0.3794
   84MOL   O26225328   5.356   4.890   2.032 -0.3826 -0.0936 -0.0580
   84MOL   C26325329   5.216   4.876   2.007 -0.2816  0.1702 -0.0286
   84MOL   H26425330   5.752   4.894   1.961  0.7736 -0.6927 -3.0318
   84MOL   H26525331   5.601   4.805   1.924  2.2109 -1.0072  0.7376
   84MOL   H26625332   5.765   5.113   2.069  0.4467 -2.3956 -1.4100
   84MOL   H26725333   5.624   5.207   1.991 -1.5864  0.9445  1.4050
   84MOL   H26825334   5.643   5.192   2.148 -0.4376 -0.1819  0.3325
   84MOL   H26925335   5.185   4.977   1.979 -0.3030 -0.0261 -0.7008
   84MOL   H27025336   5.166   4.852   2.101 -0.1870 -0.6324 -0.1801
   84MOL   H27125337   5.202   4.801   1.930 -0.2172  0.2637 -0.1317
   84MOL   C27225338   5.591   4.910   2.184 -0.9817 -0.7278  0.3818
   84MOL   C27325339   5.517   4.955   2.320  0.3251  0.0172  0.1374
   84MOL   C27425340   5.595   4.876   2.433  0.4376 -0.1080  0.1857
   84MOL   C27525341   5.524   5.102   2.355 -0.6031 -0.1084  0.0265
   84MOL   O27625342   5.433   5.180   2.325  0.6876 -0.0148 -0.0036
   84MOL   O27725343   5.641   5.139   2.410  0.0843  0.4876 -0.0681
   84MOL   C27825344   5.677   5.276   2.428  0.0008  0.6389  0.6621
   84MOL   H27925345   5.699   4.903   2.200 -0.4096  1.9571 -1.9118
   84MOL   H28025346   5.569   4.805   2.166 -1.8260 -0.4065 -0.4927
   84MOL   H28125347   5.560   4.907   2.531  0.1394 -0.9915  0.3596
   84MOL   H28225348   5.577   4.769   2.425  1.4844 -0.2804  0.1066
   84MOL   H28325349   5.703   4.881   2.421  0.3784 -1.6735 -1.1602
   84MOL   H28425350   5.595   5.331   2.476 -1.4413 -1.5273  0.7584
   84MOL   H28525351   5.698   5.325   2.333 -2.3054  0.7751  0.1982
   84MOL   H28625352   5.753   5.273   2.506  1.9379  1.8837 -1.1299
   84MOL   C28725353   5.374   4.898   2.338 -0.7761  0.0316 -0.4588
   84MOL   C28825354   5.303   4.881   2.473  0.3650  0.5368 -1.1162
   84MOL   C28925355   5.276   5.006   2.555  0.4435 -0.0473  0.1651
   84MOL   C29025356   5.189   4.784   2.473 -0.4143  1.0365  0.3527
   84MOL   O29125357   5.205   4.667   2.433 -0.1065 -0.2389 -0.0226
   84MOL   O29225358   5.070   4.846   2.492 -0.3651  0.2674  0.0165
   84MOL   C29325359   4.950   4.769   2.507 -0.5213  0.5658 -0.3002
   84MOL   H29425360   5.371   4.804   2.283  0.3215  1.4042 -2.9618
   84MOL   H29525361   5.299   4.956   2.284 -1.4836 -0.8509 -0.4433
   84MOL   H29625362   5.225   4.984   2.649 -1.3872 -2.3138 -1.3183
   84MOL   H29725363   5.371   5.043   2.593 -0.3515  0.9550  1.2454
   84MOL   H29825364   5.232   5.083   2.491  0.9228  0.8921  0.9483
   84MOL   H29925365   4.937   4.690   2.432  1.4568 -0.9855  0.9457
   84MOL   H30025366   4.866   4.836   2.488 -1.7473 -0.9733 -0.4654
   84MOL   H30125367   4.942   4.721   2.604 -2.3061  0.2451 -0.5774
   84MOL   H30225368   5.363   4.820   2.540 -2.2354 -1.0493 -0.1198
   85MOL     C125369   0.976   3.156   6.984 -0.1470 -0.1884  1.0693
   85MOL     C225370   0.963   3.307   6.967  0.0832  0.1656  0.3575
   85MOL     C325371   0.921   3.369   7.102 -0.5585 -0.3126 -0.1844
   85MOL     C425372   1.101   3.364   6.922  0.0483  0.3001 -0.3345
   85MOL     O525373   1.182   3.298   6.856 -0.5280 -0.5868 -0.0242
   85MOL     O625374   1.121   3.496   6.944 -0.4641  0.6260  0.5313
   85MOL     C725375   1.241   3.562   6.898 -0.7102 -0.1637  0.5658
   85MOL     H825376   1.065   3.127   7.040 -0.3645 -0.4821  1.2648
   85MOL     H925377   0.896   3.104   7.037 -0.1580 -1.1488  0.1424
   85MOL    H1025378   0.977   3.329   7.186  0.4133 -0.8437 -1.0873
   85MOL    H1125379   0.921   3.478   7.108 -0.9106 -0.1885 -2.0681
   85MOL    H1225380   0.821   3.343   7.137 -1.5437  2.8015 -0.5278
   85MOL    H1325381   1.249   3.663   6.939 -0.0924 -0.2390  0.6237
   85MOL    H1425382   1.250   3.549   6.790 -0.4855  1.2898  0.4040
   85MOL    H1525383   1.324   3.512   6.947 -0.4652 -0.4899 -0.1810
   85MOL    H1625384   0.967   3.102   6.889  0.9980 -0.7748  1.2882
   85MOL    C1725385   0.866   3.340   6.847  0.2500 -0.5096  0.0045
   85MOL    C1825386   0.707   3.310   6.838 -0.1896  0.6474 -0.0183
   85MOL    C1925387   0.667   3.182   6.917 -0.0157 -0.4488  0.5483
   85MOL    C2025388   0.632   3.426   6.898 -0.2999 -0.0477  0.0284
   85MOL    O2125389   0.676   3.527   6.957 -0.5434  0.1038  0.1905
   85MOL    O2225390   0.506   3.418   6.871  0.1895 -0.2804 -0.2550
   85MOL    C2325391   0.420   3.533   6.893  0.9685 -0.8648  0.3692
   85MOL    H2425392   0.914   3.282   6.768 -0.4190 -0.8703 -0.1439
   85MOL    H2525393   0.888   3.441   6.813  0.0438 -0.9171 -1.3558
   85MOL    H2625394   0.726   3.097   6.883  1.1900  1.1340 -1.4549
   85MOL    H2725395   0.678   3.206   7.023 -0.0713  1.4077  0.1449
   85MOL    H2825396   0.563   3.154   6.901  0.2160 -1.2347  0.3920
   85MOL    H2925397   0.320   3.497   6.918  1.6197 -2.0885  1.3179
   85MOL    H3025398   0.418   3.599   6.807  1.0627 -0.5179  0.6315
   85MOL    H3125399   0.444   3.584   6.986 -0.9115 -0.3852  0.6097
   85MOL    C3225400   0.666   3.285   6.687  0.1289 -0.1992  0.2846
   85MOL    C3325401   0.694   3.386   6.563  0.4267 -0.2647  0.2878
   85MOL    C3425402   0.626   3.519   6.586  0.2116 -0.5080  0.1402
   85MOL    C3525403   0.844   3.400   6.545 -0.6100  0.1483  0.6191
   85MOL    O3625404   0.897   3.509   6.558 -0.2133 -0.1188 -0.3865
   85MOL    O3725405   0.919   3.283   6.508 -0.0214 -0.0672  0.2366
   85MOL    C3825406   1.054   3.289   6.528 -0.1949 -0.4892  0.2639
   85MOL    H3925407   0.564   3.247   6.684 -0.2363  0.6724  1.3153
   85MOL    H4025408   0.701   3.187   6.654  2.0816 -0.1002  1.9386
   85MOL    H4125409   0.679   3.583   6.657  0.9380 -0.8231 -0.1203
   85MOL    H4225410   0.617   3.578   6.495 -0.4509  1.8751  1.6759
   85MOL    H4325411   0.529   3.488   6.627  1.4835 -1.1918  2.7269
   85MOL    H4425412   1.081   3.347   6.616 -0.7783  0.7460 -0.3409
   85MOL    H4525413   1.099   3.350   6.449 -1.1435  0.3546  0.3602
   85MOL    H4625414   1.097   3.189   6.528  0.6807 -0.1386 -1.8969
   85MOL    C4725415   0.657   3.337   6.422 -0.2196  0.6153 -0.7255
   85MOL    C4825416   0.515   3.277   6.378  0.1646 -0.3480  0.4812
   85MOL    C4925417   0.481   3.149   6.452  0.0459  0.3850 -0.0603
   85MOL    C5025418   0.393   3.376   6.393  0.8477  0.0173 -0.2161
   85MOL    O5125419   0.280   3.338   6.424  0.4538  0.6012 -0.0068
   85MOL    O5225420   0.420   3.503   6.362  0.0621 -0.0757  0.5469
   85MOL    C5325421   0.329   3.605   6.389  0.7519  0.2760  0.4853
   85MOL    H5425422   0.723   3.251   6.410  0.4842  0.7632  1.8754
   85MOL    H5525423   0.694   3.407   6.347  1.8065  2.1718  1.6451
   85MOL    H5625424   0.438   3.173   6.549 -0.2948  3.2922 -0.8970
   85MOL    H5725425   0.416   3.086   6.393  0.8724 -1.1698  0.6417
   85MOL    H5825426   0.570   3.086   6.455 -1.1107 -1.2979 -0.1588
   85MOL    H5925427   0.385   3.679   6.447  4.0597 -1.4931 -0.3207
   85MOL    H6025428   0.248   3.585   6.459  1.3556 -2.9720  0.3140
   85MOL    H6125429   0.314   3.654   6.292  1.8426 -1.3358 -0.5176
   85MOL    C6225430   0.525   3.229   6.223  0.2031  0.6282 -0.0348
   85MOL    C6325431   0.591   3.303   6.100 -0.0656  0.1036  0.0094
   85MOL    C6425432   0.545   3.453   6.081  0.4135  0.1945  0.4162
   85MOL    C6525433   0.746   3.300   6.102 -0.5265 -0.6359  0.4849
   85MOL    O6625434   0.816   3.374   6.031  0.2501  0.7971 -0.0807
   85MOL    O6725435   0.799   3.218   6.189  0.1785  1.1953 -0.2358
   85MOL    C6825436   0.944   3.223   6.200  0.0880  1.0644 -0.1814
   85MOL    H6925437   0.422   3.219   6.188 -0.4126  1.1600  1.5509
   85MOL    H7025438   0.563   3.128   6.236 -0.2084  0.4861  0.0858
   85MOL    H7125439   0.586   3.491   5.988  0.3461 -0.9952 -0.1075
   85MOL    H7225440   0.436   3.458   6.089  0.4282 -1.8952  2.6535
   85MOL    H7325441   0.592   3.516   6.157  0.5922  0.6416 -0.0623
   85MOL    H7425442   0.971   3.326   6.224  3.7147  0.1548 -0.0873
   85MOL    H7525443   0.985   3.206   6.100  0.9989  2.4642 -0.0727
   85MOL    H7625444   0.989   3.157   6.273 -0.3390  2.4054  1.3191
   85MOL    C7725445   0.542   3.231   5.967 -0.2152  0.3533 -0.1517
   85MOL    C7825446   0.579   3.083   5.907  0.0512  0.0417  0.0700
   85MOL    C7925447   0.726   3.088   5.868 -0.2837 -0.2939  0.3357
   85MOL    C8025448   0.543   2.975   6.013  0.3374 -0.3736  0.3355
   85MOL    O8125449   0.620   2.890   6.055 -0.2290 -0.2613  0.0088
   85MOL    O8225450   0.425   2.988   6.061  0.5878  0.4818 -0.2985
   85MOL    C8325451   0.386   2.897   6.160  0.1831  0.2542  0.7022
   85MOL    H8425452   0.569   3.299   5.886  1.9451 -0.9454 -0.5770
   85MOL    H8525453   0.435   3.245   5.957 -0.2408 -1.3522 -3.0566
   85MOL    H8625454   0.761   3.002   5.810  0.4920  0.4571 -0.3296
   85MOL    H8725455   0.746   3.171   5.800 -1.7806  2.1981  2.8827
   85MOL    H8825456   0.794   3.105   5.951  2.8370 -0.4928 -2.0555
   85MOL    H8925457   0.445   2.897   6.251  2.2008 -0.1366 -0.5655
   85MOL    H9025458   0.380   2.794   6.126 -3.0755  0.2957  1.0059
   85MOL    H9125459   0.282   2.915   6.186  0.0980  0.9446 -0.0780
   85MOL    C9225460   0.496   3.064   5.776 -0.0510  0.0115 -0.2092
   85MOL    C9325461   0.448   2.926   5.711  0.4237 -0.1115 -0.5125
   85MOL    C9425462   0.394   2.970   5.570  0.0179  0.0038  0.4093
   85MOL    C9525463   0.572   2.830   5.683  0.7182 -0.1559 -1.1345
   85MOL    O9625464   0.572   2.721   5.737 -0.0115  0.1924 -0.8843
   85MOL    O9725465   0.672   2.877   5.611  0.0829  0.7404  1.1607
   85MOL    C9825466   0.782   2.794   5.586 -0.3735  0.1377  0.4403
   85MOL    H9925467   0.556   3.114   5.701 -0.2173  1.7198  0.7743
   85MOL   H10025468   0.402   3.119   5.788 -0.0737  0.4874 -2.3810
   85MOL   H10125469   0.460   3.019   5.499  1.3058 -0.4399  1.2719
   85MOL   H10225470   0.342   2.887   5.521 -1.4735  1.3345 -0.3066
   85MOL   H10325471   0.316   3.042   5.595 -2.4507 -1.5758 -2.3517
   85MOL   H10425472   0.779   2.754   5.484  1.7384 -1.5183  0.9977
   85MOL   H10525473   0.785   2.701   5.642 -1.6178  0.0292  0.3392
   85MOL   H10625474   0.872   2.855   5.598  0.8364 -1.3676 -0.7347
   85MOL   C10725475   0.336   2.842   5.792  0.3564  0.5894  0.1148
   85MOL   C10825476   0.181   2.864   5.793  0.3355  0.1056 -0.3735
   85MOL   C10925477   0.152   3.013   5.823 -0.3204  0.5968  0.3031
   85MOL   C11025478   0.115   2.831   5.649 -0.2498  0.3969 -0.3854
   85MOL   O11125479   0.037   2.904   5.593  0.2372 -0.1649 -0.7058
   85MOL   O11225480   0.158   2.712   5.602  0.3391 -0.3126 -0.5103
   85MOL   C11325481   0.075   2.634   5.519  0.6978  0.0372  0.0034
   85MOL   H11425482   0.371   2.818   5.892 -1.5361 -0.6979  0.5074
   85MOL   H11525483   0.336   2.741   5.750  0.0569 -0.7335  3.1567
   85MOL   H11625484   0.192   3.087   5.754  2.6822 -0.9800  0.3159
   85MOL   H11725485   0.046   3.040   5.821 -0.9178 -1.7659 -1.4977
   85MOL   H11825486   0.186   3.033   5.925  0.4275 -2.8638  0.7791
   85MOL   H11925487   7.851   2.663   5.547  1.0104 -0.5772  1.8678
   85MOL   H12025488   0.089   2.528   5.539  2.9325  0.3327  0.0513
   85MOL   H12125489   0.098   2.663   5.416 -1.7480 -1.1485 -0.9169
   85MOL   C12225490   0.131   2.766   5.910 -0.0871  0.2112 -0.2468
   85MOL   C12325491   7.854   2.738   5.946 -0.7119 -0.4624 -0.6295
   85MOL   C12425492   7.778   2.876   5.950 -0.0318  0.4562 -0.0256
   85MOL   C12525493   7.782   2.648   5.840 -0.2513  0.6544 -0.5962
   85MOL   O12625494   7.836   2.564   5.779 -0.4144 -0.9999  0.0808
   85MOL   O12725495   7.644   2.662   5.839  0.2300 -1.1308  0.1231
   85MOL   C12825496   7.554   2.597   5.757  0.0241  0.0259  0.8208
   85MOL   H12925497   0.189   2.800   5.996 -0.2256 -0.6698  0.2001
   85MOL   H13025498   0.175   2.667   5.892  0.2336  0.5628 -1.4013
   85MOL   H13125499   7.679   2.879   5.995  0.1742  1.5894  0.3744
   85MOL   H13225500   7.834   2.953   6.003 -2.0651 -1.2744  5.0080
   85MOL   H13325501   7.760   2.903   5.846  0.6078  0.6650 -0.0872
   85MOL   H13425502   7.553   2.493   5.790  1.3170 -0.1795  0.2493
   85MOL   H13525503   7.595   2.605   5.656 -0.7316 -0.0256  0.5099
   85MOL   H13625504   7.458   2.648   5.757  0.2241  0.4106  0.3666
   85MOL   C13725505   7.858   2.667   6.093  0.5860 -0.0843  0.0152
   85MOL   C13825506   7.732   2.607   6.177 -0.3924 -0.0381 -0.3620
   85MOL   C13925507   7.620   2.711   6.175  0.4298 -0.6449  0.3060
   85MOL   C14025508   7.670   2.477   6.110 -0.3595  0.0268 -0.2185
   85MOL   O14125509   7.551   2.459   6.096 -0.1906  0.0230  0.1876
   85MOL   O14225510   7.759   2.376   6.069  0.3048 -0.2629  0.1408
   85MOL   C14325511   7.703   2.254   6.020 -0.4713  0.7918 -0.5288
   85MOL   H14425512   0.024   2.739   6.162  2.3083 -0.7188 -0.3933
   85MOL   H14525513   0.054   2.588   6.080  0.5893 -0.3255  1.3734
   85MOL   H14625514   7.656   2.803   6.220  1.2084 -0.9578  0.3280
   85MOL   H14725515   7.576   2.723   6.076  2.9816 -1.2201 -0.9334
   85MOL   H14825516   7.535   2.675   6.233 -1.7144 -0.9014 -2.8652
   85MOL   H14925517   7.776   2.201   5.959  0.9577  0.8957  1.0561
   85MOL   H15025518   7.631   2.274   5.941 -0.6110  1.3921 -0.2519
   85MOL   H15125519   7.681   2.193   6.108  3.2410  0.4634  0.2623
   85MOL   C15225520   7.766   2.585   6.335 -1.0416 -0.1946  0.7442
   85MOL   C15325521   7.853   2.461   6.386  0.0881 -0.2916 -0.4410
   85MOL   C15425522   7.762   2.333   6.392  0.0326  0.2992  0.0765
   85MOL   C15525523   0.100   2.448   6.297  0.3643 -0.2159  0.1390
   85MOL   O15625524   0.116   2.350   6.220 -0.1546 -0.7560  0.8188
   85MOL   O15725525   0.191   2.548   6.305 -0.3963  0.1862  0.5270
   85MOL   C15825526   0.301   2.543   6.219 -0.4649  0.0159  0.5158
   85MOL   H15925527   7.673   2.582   6.391 -1.8983 -0.5947 -0.6717
   85MOL   H16025528   7.813   2.676   6.375  2.0005 -1.0540 -0.7111
   85MOL   H16125529   7.725   2.295   6.487 -3.3710 -1.9973 -2.0684
   85MOL   H16225530   7.668   2.353   6.341  0.3995  0.5710 -0.5029
   85MOL   H16325531   7.798   2.246   6.336 -0.0535  0.1788  0.2085
   85MOL   H16425532   0.338   2.443   6.198 -1.5582 -0.1300 -0.8370
   85MOL   H16525533   0.383   2.602   6.260  1.0617 -0.6982 -1.3893
   85MOL   H16625534   0.288   2.593   6.123  1.2289 -0.3189  0.0892
   85MOL   C16725535   0.024   2.502   6.532  0.4081  0.2815 -0.3018
   85MOL   C16825536   0.129   2.419   6.628  0.0737  0.5568 -0.3664
   85MOL   C16925537   0.097   2.473   6.773  0.2711  0.4972  1.0754
   85MOL   C17025538   0.087   2.274   6.641  0.1232 -0.1830  0.1910
   85MOL   O17125539   0.025   2.231   6.739  0.6065  0.0548 -0.1817
   85MOL   O17225540   0.113   2.204   6.531  0.1363 -0.5625 -0.7973
   85MOL   C17325541   0.093   2.063   6.520  0.6042  0.2639 -0.3069
   85MOL   H17425542   7.812   2.515   6.594  1.5033  0.1835  1.3393
   85MOL   H17525543   0.066   2.602   6.528  1.6149 -0.1544  0.9473
   85MOL   H17625544   0.146   2.569   6.786 -0.5115  1.1397 -0.6138
   85MOL   H17725545   7.870   2.481   6.804 -0.0069 -2.8138  1.2606
   85MOL   H17825546   0.145   2.417   6.854 -0.2504  2.3974  2.7417
   85MOL   H17925547   0.042   2.034   6.428 -2.3389  2.1638  0.6407
   85MOL   H18025548   0.023   2.026   6.595  0.4652  1.6214  0.2549
   85MOL   H18125549   0.192   2.018   6.522  0.1884 -0.7203 -1.4149
   85MOL   C18225550   0.279   2.426   6.584 -0.4774  0.1443 -0.3886
   85MOL   C18325551   0.404   2.412   6.682  0.0125  0.1136  0.0961
   85MOL   C18425552   0.530   2.415   6.600 -0.2011  0.5188  0.2114
   85MOL   C18525553   0.414   2.541   6.781 -0.2654  0.0781  0.3066
   85MOL   O18625554   0.381   2.529   6.898  0.4035  0.0783  0.6426
   85MOL   O18725555   0.441   2.657   6.719  0.4393  0.2727 -0.2651
   85MOL   C18825556   0.411   2.783   6.779 -0.4275  0.7492 -0.0627
   85MOL   H18925557   0.288   2.525   6.539  1.0025 -0.4144 -1.3816
   85MOL   H19025558   0.294   2.354   6.502  0.3926 -0.5727  0.3847
   85MOL   H19125559   0.623   2.438   6.652  0.0770  0.0701 -0.0853
   85MOL   H19225560   0.532   2.324   6.541 -0.2910  0.6538 -0.0014
   85MOL   H19325561   0.546   2.487   6.519 -0.7831  0.8033  0.3484
   85MOL   H19425562   0.338   2.833   6.716 -1.2498 -0.0216  0.2600
   85MOL   H19525563   0.502   2.840   6.799 -0.4108 -0.0889  2.4617
   85MOL   H19625564   0.375   2.772   6.882  0.2079  0.7556  0.1673
   85MOL   C19725565   0.393   2.268   6.748  0.1305 -0.5035  0.3492
   85MOL   C19825566   0.517   2.189   6.827 -0.0667 -0.4517 -0.1276
   85MOL   C19925567   0.644   2.157   6.741  0.0243  0.2936 -0.0997
   85MOL   C20025568   0.571   2.285   6.940 -0.1623  0.0296  0.0337
   85MOL   O20125569   0.676   2.347   6.927 -0.5408  0.3183 -0.2247
   85MOL   O20225570   0.490   2.303   7.043  0.0406 -0.4827 -1.1973
   85MOL   C20325571   0.520   2.396   7.152 -0.3249 -0.3702  0.8975
   85MOL   H20425572   0.368   2.198   6.668  1.2598  0.8735 -1.2691
   85MOL   H20525573   0.309   2.275   6.817  0.0396  1.5073  0.0768
   85MOL   H20625574   0.718   2.111   6.808 -1.1046 -1.7124 -0.1712
   85MOL   H20725575   0.628   2.087   6.659  0.5227  1.0685 -0.8563
   85MOL   H20825576   0.696   2.244   6.702  2.2282 -0.3978  1.2012
   85MOL   H20925577   0.440   2.414   7.223  1.0893  0.7520  2.2587
   85MOL   H21025578   0.551   2.492   7.109 -0.9541 -0.7435 -0.4239
   85MOL   H21125579   0.592   2.360   7.225 -0.3131 -3.7696 -0.6786
   85MOL   C21225580   0.450   2.061   6.896 -0.6269  0.4780  0.0201
   85MOL   C21325581   0.469   1.907   6.843 -0.5801 -0.0554  0.2972
   85MOL   C21425582   0.405   1.902   6.703  0.0584  0.0489 -0.4892
   85MOL   C21525583   0.623   1.868   6.848  0.0370 -0.4230 -0.4985
   85MOL   O21625584   0.694   1.897   6.950  0.8543  0.4464  0.4011
   85MOL   O21725585   0.667   1.790   6.745  0.5019 -0.0655 -0.2439
   85MOL   C21825586   0.798   1.730   6.760 -0.1229 -0.2456  0.7734
   85MOL   H21925587   0.344   2.076   6.913 -0.9538 -1.2358 -0.3889
   85MOL   H22025588   0.489   2.059   6.998 -0.4504  0.0222 -0.0561
   85MOL   H22125589   0.298   1.921   6.698 -0.1167 -1.1367 -1.5079
   85MOL   H22225590   0.448   1.972   6.632  1.2880  0.8161  0.9771
   85MOL   H22325591   0.421   1.807   6.653  1.0482  0.7261 -1.4729
   85MOL   H22425592   0.815   1.645   6.694  0.9150  0.8361 -0.3808
   85MOL   H22525593   0.818   1.694   6.861  0.8804 -0.1391  0.6184
   85MOL   H22625594   0.873   1.805   6.735 -1.1276  0.8095  0.8521
   85MOL   C22725595   0.393   1.812   6.951 -0.0363 -0.1021  0.5071
   85MOL   C22825596   0.401   1.654   6.945  0.7195 -0.2909 -0.3353
   85MOL   C22925597   0.289   1.613   7.040  0.2102  0.1820 -0.8295
   85MOL   C23025598   0.352   1.609   6.805  0.2201 -0.1704  0.7909
   85MOL   O23125599   0.428   1.568   6.716 -0.2810  0.9005  0.0344
   85MOL   O23225600   0.216   1.623   6.776 -0.0505  0.3073  0.1417
   85MOL   C23325601   0.167   1.584   6.654 -0.0769 -0.2573  0.5440
   85MOL   H23425602   0.288   1.841   6.956  0.4124  2.2233 -2.1430
   85MOL   H23525603   0.414   1.846   7.053 -0.6689  1.2947  0.1804
   85MOL   H23625604   0.321   1.631   7.142 -0.1947  1.4541 -0.9161
   85MOL   H23725605   0.193   1.662   7.023  0.6867  1.7758  0.8586
   85MOL   H23825606   0.260   1.510   7.023 -0.6827  0.3914 -0.6110
   85MOL   H23925607   0.069   1.630   6.642  0.0652  0.1908  1.0576
   85MOL   H24025608   0.154   1.476   6.661 -0.7611 -0.2384 -0.3656
   85MOL   H24125609   0.231   1.619   6.573 -0.4793  0.7197  0.6364
   85MOL   C24225610   0.547   1.593   6.979 -0.0444 -0.0406 -0.4685
   85MOL   C24325611   0.568   1.442   7.019  1.1300  0.3658  0.1729
   85MOL   C24425612   0.719   1.412   7.048  0.6374  0.1827 -0.4738
   85MOL   C24525613   0.498   1.420   7.150  0.2783  0.6303 -0.1877
   85MOL   O24625614   0.397   1.348   7.161  0.2620 -0.4517 -0.3421
   85MOL   O24725615   0.529   1.498   7.254  0.9242  0.1568  0.3635
   85MOL   C24825616   0.455   1.501   7.375  0.2836  0.5061 -0.6953
   85MOL   H24925617   0.582   1.661   7.058  1.2342  0.6903 -1.6422
   85MOL   H25025618   0.617   1.598   6.896  1.8746 -0.8019  1.0643
   85MOL   H25125619   0.734   1.309   7.080 -1.2824 -0.6619 -2.1393
   85MOL   H25225620   0.773   1.425   6.954 -0.5710 -2.1961 -1.5525
   85MOL   H25325621   0.760   1.482   7.121 -0.0508  2.0515 -1.8387
   85MOL   H25425622   0.349   1.515   7.357 -0.1831  0.1932  1.6397
   85MOL   H25525623   0.494   1.584   7.435 -0.9064  1.8739 -1.7606
   85MOL   H25625624   0.454   1.407   7.429 -0.4728 -0.1886 -1.9047
   85MOL   C25725625   0.517   1.345   6.901 -1.0109 -0.1665  0.0556
   85MOL   C25825626   0.554   1.194   6.870  0.0034  0.0799 -0.5612
   85MOL   C25925627   0.696   1.182   6.805  0.2479 -0.4722  0.0219
   85MOL   C26025628   0.544   1.109   6.994 -0.6036 -0.2593 -0.0195
   85MOL   O26125629   0.632   1.026   7.018 -0.1520 -0.4316 -0.5468
   85MOL   O26225630   0.430   1.106   7.060 -1.2369  0.0380 -0.5703
   85MOL   C26325631   0.420   1.025   7.177 -0.0300  0.0441  0.1041
   85MOL   H26425632   0.543   1.399   6.810 -1.3553 -0.0153  0.0453
   85MOL   H26525633   0.409   1.357   6.898 -0.8927  0.9033 -0.1410
   85MOL   H26625634   0.705   1.245   6.716  0.3569 -0.3605  0.1132
   85MOL   H26725635   0.773   1.224   6.870 -1.3438  1.0009  1.0203
   85MOL   H26825636   0.737   1.084   6.782  0.9976  0.3579 -2.3190
   85MOL   H26925637   0.449   0.920   7.175 -2.4549 -0.6706 -0.0773
   85MOL   H27025638   0.312   1.029   7.191 -0.0499 -0.2053  0.0266
   85MOL   H27125639   0.453   1.082   7.264 -0.1609  1.1346 -0.5509
   85MOL   C27225640   0.444   1.156   6.757 -0.4057 -0.2101 -0.0329
   85MOL   C27325641   0.408   1.009   6.719 -0.4425 -0.4372  0.6211
   85MOL   C27425642   0.534   0.924   6.724  0.4521  0.2535 -0.7163
   85MOL   C27525643   0.295   0.955   6.810 -0.8809  0.0351  0.4106
   85MOL   O27625644   0.319   0.866   6.894 -0.0295 -0.8168  0.1127
   85MOL   O27725645   0.178   1.004   6.787 -0.2688 -0.0800 -0.0677
   85MOL   C27825646   0.066   0.962   6.855  0.3038 -0.1215  0.0991
   85MOL   H27925647   0.469   1.219   6.671 -0.8658  1.4305  1.0103
   85MOL   H28025648   0.343   1.196   6.768 -0.3648 -1.1116  4.3187
   85MOL   H28125649   0.584   0.911   6.820 -2.5750  1.7691  1.1379
   85MOL   H28225650   0.507   0.827   6.683 -2.2100  0.7899 -0.3054
   85MOL   H28325651   0.613   0.953   6.654  2.1331 -1.8357  0.2699
   85MOL   H28425652   7.861   1.031   6.868  0.1640  0.1018 -1.8926
   85MOL   H28525653   0.088   0.931   6.958  1.3533  1.2292  0.2892
   85MOL   H28625654   0.015   0.883   6.800 -2.5046  0.5858  1.5462
   85MOL   C28725655   0.354   1.010   6.570  0.5331 -0.1219 -0.0047
   85MOL   C28825656   0.276   0.890   6.513  0.0055 -0.3962 -0.2727
   85MOL   C28925657   0.143   0.919   6.455 -0.0962 -0.6810  0.6552
   85MOL   C29025658   0.344   0.793   6.420 -0.5136  0.6949  0.1951
   85MOL   O29125659   0.438   0.830   6.345  0.0327 -0.2830 -0.0545
   85MOL   O29225660   0.288   0.669   6.431 -0.8618  0.7724 -1.3557
   85MOL   C29325661   0.333   0.565   6.351  0.1343 -0.5769  0.0543
   85MOL   H29425662   0.434   1.038   6.501  0.6823  0.7168  0.5002
   85MOL   H29525663   0.282   1.091   6.559 -0.2198 -0.9954 -1.7947
   85MOL   H29625664   0.083   0.841   6.406 -1.7214  1.5746 -1.0372
   85MOL   H29725665   0.085   0.943   6.544  0.4867  0.1783  0.8002
   85MOL   H29825666   0.127   0.998   6.381 -1.0330 -2.7720 -1.4680
   85MOL   H29925667   0.319   0.583   6.244 -0.3381  0.3774  0.2695
   85MOL   H30025668   0.257   0.489   6.371 -1.2097  0.8779  0.6260
   85MOL   H30125669   0.430   0.523   6.376  0.3604  0.4590  0.9579
   85MOL   H30225670   0.250   0.827   6.599 -1.4878  2.1877  1.2164
   86MOL     C125671   1.543   0.559   0.244  0.0173  0.2338  0.0784
   86MOL     C225672   1.565   0.423   0.313  0.0581 -0.4812  0.0444
   86MOL     C325673   1.563   0.454   0.462  0.3044 -0.3000 -0.5021
   86MOL     C425674   1.447   0.321   0.290  0.1945  0.0336 -0.9233
   86MOL     O525675   1.347   0.351   0.223  0.2271  0.8781 -0.1825
   86MOL     O625676   1.465   0.202   0.350 -0.0031  0.0564 -0.7393
   86MOL     C725677   1.362   0.110   0.341  0.0082 -0.4920 -0.4101
   86MOL     H825678   1.449   0.606   0.272  0.5366  0.5193  1.3805
   86MOL     H925679   1.622   0.632   0.260 -0.1644  0.5838 -0.5768
   86MOL    H1025680   1.473   0.507   0.495  0.1399 -0.0320 -1.3606
   86MOL    H1125681   1.592   0.369   0.524  2.5086  0.1148 -0.9274
   86MOL    H1225682   1.638   0.529   0.485 -1.4681  1.4264 -0.1441
   86MOL    H1325683   1.358   0.074   0.238 -2.8837 -0.7037 -0.2654
   86MOL    H1425684   1.262   0.153   0.355  0.2158 -0.5878  1.4280
   86MOL    H1525685   1.363   0.032   0.417  1.9652 -2.1343 -2.0645
   86MOL    H1625686   1.534   0.548   0.136  0.8303  1.5784 -0.1337
   86MOL    C1725687   1.693   0.353   0.266  1.1006 -0.5188 -0.9481
   86MOL    C1825688   1.725   0.322   0.109 -0.2224  0.5489  0.6174
   86MOL    C1925689   1.593   0.275   0.032 -0.0328  0.5211 -0.0261
   86MOL    C2025690   1.781   0.438   0.037 -0.7283 -0.1641  0.0783
   86MOL    O2125691   1.799   0.547   0.093 -0.7498  0.1870 -0.2594
   86MOL    O2225692   1.804   0.412   7.782 -0.4011 -0.0014  0.3264
   86MOL    C2325693   1.834   0.516   7.697  1.1513  0.2987  0.1593
   86MOL    H2425694   1.697   0.263   0.328  0.7204  2.7419  4.1918
   86MOL    H2525695   1.772   0.408   0.318  0.1274 -0.0705  0.0687
   86MOL    H2625696   1.614   0.221   7.818 -2.3560 -0.6749  0.1024
   86MOL    H2725697   1.545   0.191   0.081  2.0988 -1.0894 -0.6272
   86MOL    H2825698   1.521   0.356   0.019 -0.3657  0.3402  0.6845
   86MOL    H2925699   1.894   0.591   7.748  0.9806 -1.5019  3.1489
   86MOL    H3025700   1.739   0.564   7.675  1.4552  0.8861  0.1333
   86MOL    H3125701   1.890   0.485   7.609 -0.9403 -0.3369 -0.9946
   86MOL    C3225702   1.827   0.202   0.106 -0.2228 -0.1510  0.8039
   86MOL    C3325703   1.975   0.218   0.147 -0.4706 -0.2740  0.4868
   86MOL    C3425704   2.055   0.311   0.049 -0.2315  0.3198  0.3016
   86MOL    C3525705   1.991   0.276   0.295 -0.1460 -0.1509  1.0956
   86MOL    O3625706   2.018   0.389   0.321  0.2008  0.5752 -0.3160
   86MOL    O3725707   1.967   0.176   0.382 -0.1748 -0.3340  0.2083
   86MOL    C3825708   1.954   0.207   0.519  0.0940 -0.1727 -0.4851
   86MOL    H3925709   1.826   0.160   0.006 -1.0147  2.9781 -0.5701
   86MOL    H4025710   1.776   0.126   0.166 -3.3174  0.7042 -0.6645
   86MOL    H4125711   2.161   0.290   0.066  0.3589  0.4918 -2.9299
   86MOL    H4225712   2.044   0.290   7.821  0.5863  0.8190  0.1161
   86MOL    H4325713   2.046   0.418   0.063  1.3010  0.8448 -2.4202
   86MOL    H4425714   1.902   0.301   0.538  1.2925  0.2345  0.8420
   86MOL    H4525715   2.047   0.226   0.573 -1.1322  3.0974  0.5683
   86MOL    H4625716   1.898   0.130   0.572 -1.3639  0.3179 -1.2731
   86MOL    C4725717   2.046   0.073   0.128  0.5334 -0.4443 -0.2597
   86MOL    C4825718   2.174   0.009   0.210 -0.1347  0.6199 -0.7483
   86MOL    C4925719   2.259   0.126   0.266  0.6231 -0.2241  0.4878
   86MOL    C5025720   2.132   7.803   0.335 -0.2763 -0.4304 -0.6769
   86MOL    O5125721   2.017   7.763   0.361  0.4155 -0.5965  0.0143
   86MOL    O5225722   2.239   7.779   0.416  0.0773  0.5145  0.3884
   86MOL    C5325723   2.216   7.710   0.536 -0.8121 -0.2092 -0.5406
   86MOL    H5425724   2.069   0.065   0.021  1.4245  0.0181 -0.1025
   86MOL    H5525725   1.970   7.873   0.132  0.8758 -0.9809 -2.8472
   86MOL    H5625726   2.285   0.189   0.181 -1.0976  1.0963  0.9065
   86MOL    H5725727   2.218   0.178   0.353  0.6725  2.1063 -0.8522
   86MOL    H5825728   2.361   0.097   0.293  0.4741 -1.4071 -0.1773
   86MOL    H5925729   2.164   7.618   0.508  1.8253 -2.0929  0.5215
   86MOL    H6025730   2.148   7.749   0.612 -0.5105 -0.6911 -0.0190
   86MOL    H6125731   2.309   7.688   0.588  0.0370  0.2522 -1.8376
   86MOL    C6225732   2.260   7.808   0.112 -0.0190 -0.5327  0.4193
   86MOL    C6325733   2.238   7.664   0.060 -0.0398  0.2664 -0.1001
   86MOL    C6425734   2.309   7.669   7.805 -0.0531 -0.0606 -0.1453
   86MOL    C6525735   2.302   7.563   0.149 -0.0505  0.2831 -0.3055
   86MOL    O6625736   2.246   7.523   0.249 -0.2865 -0.2454  0.0135
   86MOL    O6725737   2.416   7.522   0.107 -0.3653 -0.1292 -0.3064
   86MOL    C6825738   2.488   7.438   0.191  0.6947  0.7864 -0.3794
   86MOL    H6925739   2.357   7.793   0.160 -0.2790 -1.8336  0.5516
   86MOL    H7025740   2.289   0.000   0.034 -1.8306 -0.5819 -0.3134
   86MOL    H7125741   2.316   7.576   7.749 -1.5608 -0.6590  0.6241
   86MOL    H7225742   2.257   7.745   7.747 -1.1050 -0.6317  0.0520
   86MOL    H7325743   2.414   7.698   7.818 -0.6924  1.1462  2.7284
   86MOL    H7425744   2.418   7.355   0.198  1.5914 -0.1061 -1.6401
   86MOL    H7525745   2.509   7.487   0.286  1.0586  0.2014 -0.1562
   86MOL    H7625746   2.573   7.397   0.136  0.3045 -0.1255 -0.3093
   86MOL    C7725747   2.080   7.639   0.039  0.5492 -0.0327  0.2292
   86MOL    C7825748   2.018   7.522   7.828 -0.2741  0.4257 -0.0010
   86MOL    C7925749   2.111   7.407   7.851 -0.0676  0.9169  0.4139
   86MOL    C8025750   1.872   7.497   7.876  0.6836  0.2247 -1.3434
   86MOL    O8125751   1.822   7.381   0.000 -0.3247 -1.3612  0.0922
   86MOL    O8225752   1.800   7.608   0.015  0.5792 -0.3202  0.3747
   86MOL    C8325753   1.663   7.603   0.043  0.5004  0.1212  0.3329
   86MOL    H8425754   2.034   7.727   7.873  0.9617 -0.4251 -1.0408
   86MOL    H8525755   2.034   7.632   0.137 -0.4371 -1.0376 -0.2784
   86MOL    H8625756   2.122   7.366   0.074  2.2435 -1.0960 -0.6041
   86MOL    H8725757   2.081   7.318   7.796 -0.5128  3.3391 -3.4488
   86MOL    H8825758   2.213   7.419   7.813 -0.5556 -1.0851 -1.6616
   86MOL    H8925759   1.621   7.704   0.040  1.8205  0.6502 -0.8756
   86MOL    H9025760   1.625   7.569   0.140  1.4774  0.2274  0.7530
   86MOL    H9125761   1.599   7.538   7.862  1.3947  1.2460 -1.9287
   86MOL    C9225762   2.019   7.567   7.677 -0.4476 -0.6511 -0.2994
   86MOL    C9325763   2.013   7.467   7.554  0.1832  0.7542  0.4788
   86MOL    C9425764   1.899   7.368   7.571 -0.1670  0.0440 -0.7231
   86MOL    C9525765   1.979   7.563   7.435 -0.1745 -0.4647  0.9290
   86MOL    O9625766   1.873   7.550   7.371 -0.5612 -0.4040 -0.0935
   86MOL    O9725767   2.069   7.655   7.405 -0.4735  0.0906 -0.2013
   86MOL    C9825768   2.044   7.733   7.293  0.0342 -0.9466  0.1244
   86MOL    H9925769   2.110   7.625   7.664 -0.0634 -0.8180  1.5043
   86MOL   H10025770   1.939   7.640   7.665 -0.1971  0.0425  2.0607
   86MOL   H10125771   1.803   7.417   7.590 -0.0416  0.2749 -0.6876
   86MOL   H10225772   1.890   7.311   7.479 -0.5504  2.3907 -2.1720
   86MOL   H10325773   1.908   7.295   7.652  0.5393  0.0138 -0.8290
   86MOL   H10425774   2.018   7.672   7.206 -0.5400 -0.0466 -0.3372
   86MOL   H10525775   2.140   7.784   7.282 -0.3386 -0.4175 -0.6799
   86MOL   H10625776   1.962   7.801   7.315  1.6892  2.0202 -2.5745
   86MOL   C10725777   2.156   7.400   7.519  1.0238 -0.4038  0.2533
   86MOL   C10825778   2.178   7.295   7.406 -0.1927  0.7676 -0.1906
   86MOL   C10925779   2.118   7.162   7.455  0.6798  0.0492  0.3549
   86MOL   C11025780   2.129   7.349   7.267 -0.0036  0.1638 -0.3620
   86MOL   O11125781   2.184   7.437   7.209 -1.0457 -0.1046  0.5144
   86MOL   O11225782   2.013   7.295   7.225 -0.9005  1.0238 -0.7343
   86MOL   C11325783   1.934   7.350   7.128  0.1595 -0.4255  0.2315
   86MOL   H11425784   2.197   7.347   7.606  0.2663 -1.6488 -0.1442
   86MOL   H11525785   2.224   7.484   7.505  1.4607 -0.4772  1.8118
   86MOL   H11625786   2.189   7.079   7.460  0.8331  0.1326 -0.3958
   86MOL   H11725787   2.085   7.170   7.559  0.8568  2.5933  0.2319
   86MOL   H11825788   2.031   7.133   7.396  0.8500 -1.2968  0.7336
   86MOL   H11925789   1.957   7.316   7.027  0.3818  0.2164  0.0621
   86MOL   H12025790   1.932   7.459   7.114 -2.6289 -0.5213 -0.5680
   86MOL   H12125791   1.826   7.333   7.135  0.3153 -0.3972  3.2355
   86MOL   C12225792   2.330   7.279   7.407 -0.8289 -0.1301 -0.1120
   86MOL   C12325793   2.419   7.202   7.292 -0.7871  0.6216  0.7451
   86MOL   C12425794   2.349   7.077   7.235  0.7923  0.1769 -0.5114
   86MOL   C12525795   2.454   7.298   7.180 -0.1756 -0.0531  0.4781
   86MOL   O12625796   2.472   7.420   7.201 -0.0650 -0.2479 -0.2911
   86MOL   O12725797   2.455   7.249   7.059  0.4380  0.8038  0.2342
   86MOL   C12825798   2.492   7.320   6.947 -0.0729  0.5116  0.3928
   86MOL   H12925799   2.349   7.217   7.495  0.8467  0.0654 -0.3073
   86MOL   H13025800   2.374   7.378   7.422  2.4055 -1.2199 -1.9929
   86MOL   H13125801   2.265   7.105   7.171 -0.6011 -2.8030 -0.0754
   86MOL   H13225802   2.408   7.014   7.168  0.6753 -0.1576 -0.2982
   86MOL   H13325803   2.317   7.010   7.314 -1.0318  3.5995  1.7715
   86MOL   H13425804   2.594   7.356   6.965 -0.3705  1.6447 -0.1307
   86MOL   H13525805   2.415   7.383   6.903 -2.0614 -1.1924  1.3210
   86MOL   H13625806   2.517   7.248   6.869  1.4694  0.0485  1.2756
   86MOL   C13725807   2.562   7.168   7.358 -0.3414  0.9355  0.2792
   86MOL   C13825808   2.696   7.252   7.386 -0.3123  0.4335 -0.4133
   86MOL   C13925809   2.757   7.271   7.249  0.3625  0.6864  0.0270
   86MOL   C14025810   2.672   7.387   7.456  0.3018 -0.0484 -0.2631
   86MOL   O14125811   2.729   7.486   7.422  0.6891 -0.1411 -0.0719
   86MOL   O14225812   2.596   7.376   7.560  0.4844 -0.3475 -0.1569
   86MOL   C14325813   2.573   7.477   7.652 -0.2538  0.3732 -0.6307
   86MOL   H14425814   2.605   7.085   7.302 -1.4435  0.2506  0.4354
   86MOL   H14525815   2.532   7.117   7.450 -1.5065  0.4047 -0.3745
   86MOL   H14625816   2.856   7.314   7.267  0.7325  0.0997 -0.6001
   86MOL   H14725817   2.762   7.181   7.187  1.7070  1.4270 -0.9701
   86MOL   H14825818   2.700   7.340   7.186 -1.5303 -2.4293 -1.7804
   86MOL   H14925819   2.667   7.505   7.700 -0.6594  0.1641  0.2905
   86MOL   H15025820   2.504   7.449   7.731 -0.0872  0.2886 -0.5154
   86MOL   H15125821   2.531   7.559   7.594 -1.3841 -0.5699 -1.1667
   86MOL   C15225822   2.799   7.152   7.463  0.0638  0.2800 -0.0943
   86MOL   C15325823   2.912   7.189   7.559  0.5377  1.0593 -0.4410
   86MOL   C15425824   3.000   7.289   7.479  0.8335 -0.0046 -0.4580
   86MOL   C15525825   2.857   7.254   7.683  0.5579 -0.2399  0.2027
   86MOL   O15625826   2.897   7.361   7.724 -0.1002  0.2885 -0.1001
   86MOL   O15725827   2.775   7.175   7.743  1.3287  0.1875 -0.8540
   86MOL   C15825828   2.730   7.217   7.870 -0.7241  0.0070 -0.5550
   86MOL   H15925829   2.843   7.085   7.390 -0.3289  1.2216 -1.2061
   86MOL   H16025830   2.741   7.076   7.515  0.9295 -0.2691  0.0672
   86MOL   H16125831   2.958   7.385   7.448  1.2872  1.1702  2.4029
   86MOL   H16225832   3.091   7.314   7.534  0.8638 -0.6926 -0.1909
   86MOL   H16325833   3.037   7.241   7.389 -1.0923 -0.9816 -0.7546
   86MOL   H16425834   2.644   7.280   7.845  0.6117  3.0107  2.1400
   86MOL   H16525835   2.806   7.266   0.052 -0.9264  0.0037 -0.2953
   86MOL   H16625836   2.701   7.131   0.053 -2.0294  1.1260  0.4499
   86MOL   C16725837   2.986   7.052   7.592 -0.2420  0.1258 -0.5837
   86MOL   C16825838   3.125   7.039   7.667  0.0007  0.1855  0.3668
   86MOL   C16925839   3.238   7.068   7.559 -0.1386 -0.2800 -0.1122
   86MOL   C17025840   3.142   7.144   7.787  1.0297 -0.1607  0.3859
   86MOL   O17125841   3.229   7.230   7.785  0.1021 -0.2897  0.6791
   86MOL   O17225842   3.049   7.129   0.007 -0.3220  0.1378 -0.4284
   86MOL   C17325843   3.073   7.192   0.128  0.1120  0.0253 -0.0061
   86MOL   H17425844   3.000   6.991   7.502 -1.1922 -0.9343 -0.0237
   86MOL   H17525845   2.907   6.998   7.643 -0.0870  1.0394  0.6409
   86MOL   H17625846   3.337   7.082   7.603 -1.0721  0.2137  1.8934
   86MOL   H17725847   3.255   6.978   7.501  2.4794 -0.8680  1.4847
   86MOL   H17825848   3.230   7.153   7.492  1.8800  1.2998  1.5662
   86MOL   H17925849   3.059   7.299   0.113 -0.3588  0.1258  1.1138
   86MOL   H18025850   3.174   7.176   0.165 -0.7178  0.2748  2.4230
   86MOL   H18125851   3.004   7.161   0.206  0.1223  1.6788  0.6944
   86MOL   C18225852   3.134   6.891   7.714 -0.4874 -0.8157 -0.0238
   86MOL   C18325853   3.264   6.819   7.769 -0.2407  0.7898 -0.2494
   86MOL   C18425854   3.220   6.682   7.819  0.1084 -0.2609  0.1272
   86MOL   C18525855   3.359   6.798   7.656  0.8462  0.2240 -0.5931
   86MOL   O18625856   3.470   6.851   7.656  0.0606  0.2778 -0.9363
   86MOL   O18725857   3.316   6.708   7.559 -1.0388 -0.6700 -0.6385
   86MOL   C18825858   3.409   6.685   7.455 -0.8674 -0.5044 -0.0044
   86MOL   H18925859   3.095   6.825   7.637 -0.9022 -0.6693  0.0554
   86MOL   H19025860   3.059   6.890   7.793  1.8520  1.4281  2.3220
   86MOL   H19125861   3.163   6.630   7.742 -0.6106 -0.3699  0.7266
   86MOL   H19225862   3.295   6.607   7.843 -1.3220 -1.1041  2.0755
   86MOL   H19325863   3.149   6.696   0.022 -2.9472  0.0214 -2.4765
   86MOL   H19425864   3.427   6.772   7.393  0.7036 -0.0507  1.0507
   86MOL   H19525865   3.377   6.607   7.386 -2.4636  1.2085 -1.2372
   86MOL   H19625866   3.511   6.665   7.488  0.6394  1.5658 -3.1130
   86MOL   C19725867   3.325   6.903   0.014  0.2431 -0.3737  0.1815
   86MOL   C19825868   3.423   6.845   0.122  1.0316 -0.1244 -0.2111
   86MOL   C19925869   3.535   6.755   0.058  0.0072  0.3361 -0.5644
   86MOL   C20025870   3.499   6.961   0.183  0.2874 -0.2310 -0.0169
   86MOL   O20125871   3.618   6.957   0.221 -0.2092 -0.4022 -0.1421
   86MOL   O20225872   3.428   7.074   0.193 -0.0335  0.6813 -0.3341
   86MOL   C20325873   3.484   7.188   0.243  0.3235 -0.1028 -0.5104
   86MOL   H20425874   3.242   6.939   0.074  1.6999  0.0395  2.0043
   86MOL   H20525875   3.382   6.983   7.844 -0.5960  1.6054  2.4155
   86MOL   H20625876   3.495   6.673   7.877 -1.4842 -0.1389  1.0727
   86MOL   H20725877   3.601   6.813   7.871  0.0729  1.6323  0.6490
   86MOL   H20825878   3.599   6.708   0.133 -0.5907  0.0829 -0.2122
   86MOL   H20925879   3.572   7.174   0.305 -0.4424 -2.1052  0.1630
   86MOL   H21025880   3.408   7.223   0.313  0.7994  1.2028 -0.6247
   86MOL   H21125881   3.496   7.262   0.164  2.1521 -1.1831 -1.2738
   86MOL   C21225882   3.337   6.761   0.237  0.0394  0.1620  0.1410
   86MOL   C21325883   3.385   6.736   0.392 -0.1104  0.0811 -0.7704
   86MOL   C21425884   3.535   6.697   0.396  0.8265  0.3657 -0.3140
   86MOL   C21525885   3.368   6.859   0.486  0.2405 -0.0541  0.0327
   86MOL   O21625886   3.319   6.961   0.436 -0.0888  0.5729 -0.6223
   86MOL   O21725887   3.424   6.847   0.604 -0.3287  0.2282 -0.0529
   86MOL   C21825888   3.401   6.950   0.699 -0.1874  0.6972 -0.6040
   86MOL   H21925889   3.308   6.668   0.190  0.4092  1.0728 -1.9355
   86MOL   H22025890   3.241   6.812   0.244  0.2212  0.6568 -0.8876
   86MOL   H22125891   3.602   6.779   0.369  0.1830  1.0915  0.2520
   86MOL   H22225892   3.554   6.646   0.491  2.1186 -1.5011 -1.5593
   86MOL   H22325893   3.555   6.625   0.317 -0.9476 -0.8622  0.3143
   86MOL   H22425894   3.477   6.934   0.775  0.7789 -0.5284 -1.8163
   86MOL   H22525895   3.296   6.954   0.731 -0.5327  1.3646 -1.7928
   86MOL   H22625896   3.425   7.049   0.662 -0.1130  1.7312  2.1056
   86MOL   C22725897   3.311   6.612   0.461  0.4108 -0.0690  0.1284
   86MOL   C22825898   3.150   6.605   0.462 -0.3828  0.3094  0.0484
   86MOL   C22925899   3.083   6.746   0.492 -0.0217  0.2209 -1.0377
   86MOL   C23025900   3.111   6.550   0.320 -0.9457  0.6583  0.1682
   86MOL   O23125901   3.031   6.610   0.248 -0.0023 -0.1901 -0.2177
   86MOL   O23225902   3.161   6.424   0.290  0.5183 -0.3065 -0.4808
   86MOL   C23325903   3.101   6.345   0.188 -0.2678  0.7903  0.2960
   86MOL   H23425904   3.347   6.615   0.564  0.3648 -1.9304  0.2220
   86MOL   H23525905   3.358   6.525   0.416 -1.5449 -0.2483 -1.6291
   86MOL   H23625906   2.974   6.740   0.503 -0.2436  1.1918 -2.5954
   86MOL   H23725907   3.118   6.772   0.592  0.3941 -1.0556 -0.8383
   86MOL   H23825908   3.101   6.821   0.415  3.2607  0.2556 -0.2829
   86MOL   H23925909   3.124   6.240   0.204 -4.7591 -0.3943 -0.3118
   86MOL   H24025910   3.143   6.373   0.092 -0.0753 -1.3928 -0.2619
   86MOL   H24125911   2.993   6.356   0.177  0.0411  1.4055 -2.3154
   86MOL   C24225912   3.081   6.502   0.559 -0.0727  0.0227 -0.2172
   86MOL   C24325913   3.149   6.449   0.690 -0.2572 -0.0440 -0.4103
   86MOL   C24425914   3.272   6.361   0.658  0.4645 -0.0566 -0.3937
   86MOL   C24525915   3.182   6.569   0.779  0.4318  0.3103 -0.2008
   86MOL   O24625916   3.104   6.662   0.792 -0.1106  0.3176 -0.2213
   86MOL   O24725917   3.288   6.550   0.841  0.5062 -0.2341  0.3067
   86MOL   C24825918   3.329   6.642   0.942 -0.3015  0.0066 -0.0188
   86MOL   H24925919   3.049   6.410   0.510 -0.0387  0.1336 -0.4520
   86MOL   H25025920   2.985   6.545   0.586 -0.0446  0.3004 -0.5511
   86MOL   H25125921   3.262   6.307   0.564 -1.7093 -0.9224  0.3076
   86MOL   H25225922   3.367   6.414   0.664 -0.4794  1.3331  3.8405
   86MOL   H25325923   3.284   6.290   0.739 -3.0416 -1.0665 -0.6880
   86MOL   H25425924   3.247   6.691   0.993 -0.4358  0.2234 -0.4441
   86MOL   H25525925   3.394   6.717   0.897 -0.4191 -1.5294 -2.9083
   86MOL   H25625926   3.390   6.587   1.014  1.1525  0.7217 -0.6831
   86MOL   C25725927   3.044   6.367   0.780  0.0041 -0.5516 -0.5832
   86MOL   C25825928   2.938   6.267   0.721  0.2928  0.0819  0.7487
   86MOL   C25925929   2.830   6.331   0.631  0.2700  0.2588  0.0756
   86MOL   C26025930   3.016   6.154   0.646  0.2072  0.2638  0.0448
   86MOL   O26125931   3.001   6.127   0.526 -0.3188 -0.2956 -0.2277
   86MOL   O26225932   3.093   6.086   0.727 -0.0261  0.8383 -0.2816
   86MOL   C26325933   3.181   5.984   0.675  0.5156 -0.1376 -0.3862
   86MOL   H26425934   2.983   6.437   0.837 -1.2237 -1.4487 -0.7981
   86MOL   H26525935   3.099   6.310   0.855  0.4511  1.9017  1.0067
   86MOL   H26625936   2.810   6.435   0.657  0.1381  0.4161 -0.6323
   86MOL   H26725937   2.864   6.336   0.528 -0.2011  0.3372 -0.0766
   86MOL   H26825938   2.731   6.288   0.643 -0.3220  1.9587  1.4461
   86MOL   H26925939   3.255   6.034   0.613 -1.1860 -0.0526 -2.4048
   86MOL   H27025940   3.126   5.907   0.621  0.5122 -0.5658  0.2183
   86MOL   H27125941   3.235   5.929   0.752 -1.3619  0.9544  1.7860
   86MOL   C27225942   2.860   6.210   0.847 -0.0059 -0.0265  0.5202
   86MOL   C27325943   2.777   6.067   0.841  0.1693  0.7668  0.3432
   86MOL   C27425944   2.711   6.025   0.704  0.6169  0.4177 -0.8413
   86MOL   C27525945   2.863   5.946   0.891 -0.7735 -0.8722 -0.0668
   86MOL   O27625946   2.896   5.852   0.816  0.6732  0.1849  0.0456
   86MOL   O27725947   2.906   5.949   1.023  0.5656 -0.0023  0.2578
   86MOL   C27825948   2.981   5.845   1.066 -0.2965 -1.3147 -0.6825
   86MOL   H27925949   2.794   6.289   0.885  0.8340  0.7549  0.3528
   86MOL   H28025950   2.936   6.190   0.923 -2.1828 -4.7455  1.6667
   86MOL   H28125951   2.705   5.919   0.682 -0.4211  0.9037 -3.0894
   86MOL   H28225952   2.611   6.066   0.693 -0.0642 -1.2403 -0.9725
   86MOL   H28325953   2.767   6.056   0.615  1.2786 -0.6751 -0.8127
   86MOL   H28425954   3.009   5.845   1.171  0.9780 -3.1810 -0.9925
   86MOL   H28525955   3.079   5.844   1.017  1.4101 -1.9908  2.6150
   86MOL   H28625956   2.926   5.752   1.049  1.6821 -2.4409 -1.1150
   86MOL   C28725957   2.655   6.082   0.937 -0.4687  0.0793 -0.7566
   86MOL   C28825958   2.584   5.958   1.003 -0.4604 -0.1568 -0.4148
   86MOL   C28925959   2.513   6.003   1.125 -0.0999  0.3370 -1.1376
   86MOL   C29025960   2.498   5.884   0.898 -0.0772 -0.4496  0.5123
   86MOL   O29125961   2.524   5.767   0.873 -0.0098 -0.0981  0.2369
   86MOL   O29225962   2.397   5.957   0.852  0.0625 -0.5064 -0.1734
   86MOL   C29325963   2.293   5.895   0.775 -0.1485  0.1134 -0.6523
   86MOL   H29425964   2.576   6.133   0.882  0.4999  1.1515 -1.1834
   86MOL   H29525965   2.668   6.147   1.023 -0.3690 -1.2578  0.2577
   86MOL   H29625966   2.456   5.919   1.165  0.7726 -0.3166 -1.2516
   86MOL   H29725967   2.582   6.034   1.203 -0.5332  0.5393 -0.8341
   86MOL   H29825968   2.442   6.084   1.109 -0.0098  0.0874 -2.8702
   86MOL   H29925969   2.229   5.848   0.849 -1.4701 -0.4165 -2.0907
   86MOL   H30025970   2.334   5.812   0.717  0.1094 -1.2458  1.4566
   86MOL   H30125971   2.247   5.966   0.706 -0.3371  0.8435  0.2321
   86MOL   H30225972   2.650   5.876   1.030 -0.4090  0.7786  2.3943
   87MOL     C125973   4.309   3.696   4.433 -0.4159  0.3951  0.2292
   87MOL     C225974   4.407   3.727   4.314  0.2737  0.3535 -0.0349
   87MOL     C325975   4.506   3.605   4.314  0.1401 -0.0475 -0.0209
   87MOL     C425976   4.324   3.704   4.183 -0.1511 -0.0309  0.3057
   87MOL     O525977   4.204   3.687   4.174 -0.3533 -0.0589 -0.0577
   87MOL     O625978   4.406   3.716   4.078  0.0982  0.7484 -0.4609
   87MOL     C725979   4.345   3.716   3.951 -0.2994  0.1531  0.7087
   87MOL     H825980   4.256   3.601   4.423 -0.6734  0.6917 -1.2940
   87MOL     H925981   4.363   3.695   4.528  0.8795  0.5818 -0.4990
   87MOL    H1025982   4.581   3.600   4.235 -0.3909 -0.6921 -0.4889
   87MOL    H1125983   4.559   3.593   4.409 -1.0291  0.1243  0.6665
   87MOL    H1225984   4.441   3.518   4.319 -1.1025  0.7662 -1.8854
   87MOL    H1325985   4.348   3.818   3.915  1.9459  0.8234  2.6662
   87MOL    H1425986   4.244   3.677   3.938  0.2886 -1.5281  1.0201
   87MOL    H1525987   4.404   3.666   3.874 -0.0642  1.3677  0.0852
   87MOL    H1625988   4.245   3.782   4.447  0.4070  0.8118  1.5263
   87MOL    C1725989   4.498   3.855   4.326  0.5861 -0.3954  0.0766
   87MOL    C1825990   4.438   3.996   4.353 -0.3076  0.0558  0.2268
   87MOL    C1925991   4.309   4.011   4.265 -0.0520  0.6430  0.0267
   87MOL    C2025992   4.393   4.010   4.502  0.0325  0.2124  0.7681
   87MOL    O2125993   4.426   3.935   4.592 -1.0847  0.3655  0.4042
   87MOL    O2225994   4.310   4.107   4.520  0.6435 -0.0971 -0.2466
   87MOL    C2325995   4.239   4.125   4.642  0.0424 -0.2148 -0.0964
   87MOL    H2425996   4.550   3.856   4.231  0.6013 -1.4874  0.0637
   87MOL    H2525997   4.580   3.839   4.396  1.8636  2.1620 -0.8096
   87MOL    H2625998   4.338   3.983   4.164  2.0610  2.1493  0.1685
   87MOL    H2725999   4.235   3.938   4.297 -1.3732  2.5639  1.4383
   87MOL    H2826000   4.269   4.112   4.264 -0.9519  0.3224  2.2717
   87MOL    H2926001   4.319   4.127   4.716  3.0150 -0.5414 -3.1249
   87MOL    H3026002   4.173   4.040   4.659 -0.0768  0.3559  2.3523
   87MOL    H3126003   4.190   4.222   4.642  0.5294  0.0445  1.0714
   87MOL    C3226004   4.520   4.118   4.309  0.2910  0.3411  0.4764
   87MOL    C3326005   4.664   4.160   4.360  0.6177 -0.2564  0.5919
   87MOL    C3426006   4.649   4.196   4.517 -0.8021 -0.2110 -0.7896
   87MOL    C3526007   4.768   4.052   4.341  0.0335  0.4086  0.5007
   87MOL    O3626008   4.837   4.001   4.426 -0.4954  0.2957 -0.5597
   87MOL    O3726009   4.769   4.018   4.212  0.2277  0.7070  0.7791
   87MOL    C3826010   4.875   3.934   4.174  0.3724  0.1135  0.5649
   87MOL    H3926011   4.451   4.202   4.320  2.4360  1.7954  3.4281
   87MOL    H4026012   4.529   4.094   4.203 -0.3673  1.4340  0.1607
   87MOL    H4126013   4.640   4.104   4.574  2.2634  0.2974  0.6405
   87MOL    H4226014   4.744   4.237   4.552 -1.0830  0.3112 -0.6323
   87MOL    H4326015   4.559   4.249   4.548 -1.9849 -0.4655 -3.6487
   87MOL    H4426016   4.873   3.936   4.065  1.6497 -1.3049  0.5030
   87MOL    H4526017   4.844   3.839   4.218  2.4845  0.3302  2.6020
   87MOL    H4626018   4.974   3.960   4.213  0.4266 -0.2362  0.6550
   87MOL    C4726019   4.690   4.291   4.280 -0.1252 -0.7419  0.0122
   87MOL    C4826020   4.792   4.401   4.329  0.1210 -0.2421 -0.3702
   87MOL    C4926021   4.722   4.500   4.431 -0.3291 -0.6113 -0.0172
   87MOL    C5026022   4.919   4.346   4.383  0.1427 -0.4045  0.3785
   87MOL    O5126023   4.960   4.375   4.498 -0.2845  0.1294  0.6014
   87MOL    O5226024   4.984   4.259   4.293  0.5310  0.5710 -0.2715
   87MOL    C5326025   5.097   4.197   4.345  0.0552  0.0210  1.1231
   87MOL    H5426026   4.602   4.351   4.255  0.5302 -0.4121 -1.6049
   87MOL    H5526027   4.719   4.250   4.183 -0.6754 -1.1649  0.0254
   87MOL    H5626028   4.796   4.559   4.485 -1.8545  0.9468  0.4254
   87MOL    H5726029   4.639   4.564   4.401 -0.5878  0.5021  2.9523
   87MOL    H5826030   4.662   4.456   4.512 -1.2863  1.0091  0.1722
   87MOL    H5926031   5.167   4.179   4.264 -0.6960 -0.0842  0.4847
   87MOL    H6026032   5.066   4.108   4.400 -2.7539 -0.6094 -1.3084
   87MOL    H6126033   5.148   4.273   4.404 -2.5394  2.3482  0.4761
   87MOL    C6226034   4.840   4.500   4.212  0.0740 -0.3639 -0.1136
   87MOL    C6326035   4.764   4.580   4.097  0.4498  0.2514  0.4944
   87MOL    C6426036   4.649   4.496   4.038  0.2034 -0.5357  0.1804
   87MOL    C6526037   4.698   4.704   4.163 -0.3837  0.6931  0.0591
   87MOL    O6626038   4.747   4.747   4.266  0.0645 -0.2730 -0.1368
   87MOL    O6726039   4.607   4.764   4.082 -1.0455  0.3139 -0.1672
   87MOL    C6826040   4.556   4.889   4.130  0.8097 -0.1224  0.0206
   87MOL    H6926041   4.905   4.445   4.144 -0.2924 -1.7119  0.6223
   87MOL    H7026042   4.911   4.565   4.262 -0.1372 -0.7300  0.6545
   87MOL    H7126043   4.621   4.525   3.937 -1.5838  1.5207  1.2247
   87MOL    H7226044   4.681   4.392   4.037  2.5991  0.1789 -0.9039
   87MOL    H7326045   4.562   4.507   4.103  2.1082  1.4837  2.5269
   87MOL    H7426046   4.628   4.969   4.119  1.2395 -0.4821  0.1929
   87MOL    H7526047   4.532   4.894   4.237 -0.1533 -1.5396 -0.1018
   87MOL    H7626048   4.465   4.924   4.082  0.1922  0.9442  1.9075
   87MOL    C7726049   4.846   4.632   3.970  0.0870  0.6761 -0.0144
   87MOL    C7826050   4.985   4.691   3.981  0.0777 -0.1292 -0.0036
   87MOL    C7926051   4.981   4.798   4.090  0.4681 -0.3290  0.4236
   87MOL    C8026052   5.092   4.588   4.024 -0.3126 -0.0279  0.7309
   87MOL    O8126053   5.168   4.605   4.119 -0.1064 -0.2605  0.5376
   87MOL    O8226054   5.089   4.478   3.955  0.2016 -0.0357  0.3179
   87MOL    C8326055   5.194   4.377   3.978 -0.4935 -0.0128 -0.1856
   87MOL    H8426056   4.779   4.702   3.919 -1.1258 -0.3523  0.1576
   87MOL    H8526057   4.847   4.551   3.897  0.5369 -0.2143  0.9628
   87MOL    H8626058   4.901   4.868   4.067  1.7962  0.7220 -1.0647
   87MOL    H8726059   4.980   4.762   4.193 -0.2538 -2.3773 -0.2806
   87MOL    H8826060   5.059   4.874   4.089  0.3154 -0.1260  2.0167
   87MOL    H8926061   5.184   4.319   4.070 -2.5277  0.4405 -0.0921
   87MOL    H9026062   5.292   4.423   3.966  0.8342 -1.6939  3.3419
   87MOL    H9126063   5.199   4.300   3.901  0.8698  0.3436 -0.4669
   87MOL    C9226064   5.014   4.765   3.837 -0.3980 -0.1939 -0.2069
   87MOL    C9326065   5.150   4.784   3.766  0.5131  0.0156 -0.0985
   87MOL    C9426066   5.127   4.879   3.649  0.0757 -0.6548  0.7436
   87MOL    C9526067   5.262   4.840   3.859  0.1727 -0.0840 -0.1398
   87MOL    O9626068   5.349   4.768   3.907 -0.5650 -0.4006  0.1618
   87MOL    O9726069   5.247   4.967   3.876  0.1597 -0.0786 -0.1566
   87MOL    C9826070   5.346   5.036   3.964 -0.5442 -0.8757 -0.1902
   87MOL    H9926071   4.967   4.862   3.857 -0.3008 -0.4926  1.5914
   87MOL   H10026072   4.947   4.716   3.767 -2.4070  2.9761 -0.6264
   87MOL   H10126073   5.217   4.890   3.589 -0.6798  1.6645 -0.0069
   87MOL   H10226074   5.054   4.851   3.573  0.8849  1.5213 -0.8633
   87MOL   H10326075   5.092   4.973   3.691  0.0236  0.5463 -1.8636
   87MOL   H10426076   5.322   4.982   4.055 -3.4827 -1.5744 -1.3357
   87MOL   H10526077   5.323   5.142   3.972  3.6027  0.0024  1.3189
   87MOL   H10626078   5.447   5.024   3.923  0.0775 -0.0411  1.0633
   87MOL   C10726079   5.202   4.643   3.711  1.1407 -0.3506  0.0777
   87MOL   C10826080   5.306   4.605   3.593  0.1273 -0.2573  0.2146
   87MOL   C10926081   5.247   4.643   3.454  0.3176 -0.0843  0.2025
   87MOL   C11026082   5.443   4.684   3.609  0.6384 -0.3691 -0.3813
   87MOL   O11126083   5.473   4.785   3.544 -0.1371  0.0706  0.2747
   87MOL   O11226084   5.524   4.634   3.705  0.0983 -0.1074 -0.1163
   87MOL   C11326085   5.629   4.711   3.761 -0.5095  0.3029  0.4056
   87MOL   H11426086   5.119   4.578   3.681  1.1118  0.1139 -0.8683
   87MOL   H11526087   5.234   4.586   3.798 -2.2946 -0.9687  1.0398
   87MOL   H11626088   5.238   4.750   3.440 -5.5954 -0.4289  0.1984
   87MOL   H11726089   5.304   4.606   3.369  1.5139  0.4518  0.7680
   87MOL   H11826090   5.150   4.595   3.442  0.3852  0.0789 -1.0585
   87MOL   H11926091   5.606   4.817   3.762  2.0679  0.9153 -0.4424
   87MOL   H12026092   5.713   4.681   3.698  0.6078  0.8283  1.6028
   87MOL   H12126093   5.653   4.687   3.865  1.2700 -1.5926 -0.3920
   87MOL   C12226094   5.347   4.448   3.616  0.1717  0.8360  0.3891
   87MOL   C12326095   5.258   4.329   3.565 -0.4370 -0.5725 -0.5251
   87MOL   C12426096   5.115   4.329   3.618 -0.4470  0.3086  0.2962
   87MOL   C12526097   5.257   4.332   3.407  0.7269 -0.3079 -0.7693
   87MOL   O12626098   5.148   4.336   3.350  0.0221 -1.0093  0.0287
   87MOL   O12726099   5.375   4.309   3.351 -0.5993  0.3763  0.4217
   87MOL   C12826100   5.395   4.282   3.211  0.2192 -0.3839 -0.4423
   87MOL   H12926101   5.370   4.434   3.722  1.2026 -1.9374 -0.1406
   87MOL   H13026102   5.441   4.430   3.565 -0.0951  1.5666 -0.3572
   87MOL   H13126103   5.122   4.355   3.724  2.0047 -0.3428  0.3210
   87MOL   H13226104   5.054   4.405   3.571 -0.1003 -1.9923 -4.1067
   87MOL   H13326105   5.051   4.241   3.607  0.8068 -0.5821  0.0322
   87MOL   H13426106   5.501   4.269   3.190  0.2438 -2.1408  0.6853
   87MOL   H13526107   5.359   4.368   3.153 -1.1421  0.0880  1.0532
   87MOL   H13626108   5.344   4.190   3.182  3.0862 -1.1329 -3.3520
   87MOL   C13726109   5.336   4.203   3.619  0.7313 -0.0849  0.1977
   87MOL   C13826110   5.272   4.056   3.615 -0.0664 -0.2091  0.1368
   87MOL   C13926111   5.201   4.029   3.752 -0.4707 -0.1343 -0.5359
   87MOL   C14026112   5.173   4.032   3.495  0.2467 -0.9649 -1.0081
   87MOL   O14126113   5.056   4.001   3.522  0.2193  0.2060 -0.5283
   87MOL   O14226114   5.224   4.030   3.373  0.0374  0.3415 -0.0531
   87MOL   C14326115   5.153   3.975   3.266  0.3716  0.0609 -0.8788
   87MOL   H14426116   5.358   4.222   3.724 -0.1892 -3.0110  0.9867
   87MOL   H14526117   5.433   4.206   3.570  0.8219  0.2545  0.4018
   87MOL   H14626118   5.148   3.934   3.761  0.7493 -0.5667  3.4145
   87MOL   H14726119   5.252   4.050   3.846 -0.5533 -1.0883 -0.2770
   87MOL   H14826120   5.121   4.102   3.758  0.9174  1.3101  1.0456
   87MOL   H14926121   5.208   4.004   3.176  1.4406 -0.0384 -0.2634
   87MOL   H15026122   5.055   4.022   3.253  0.2545  0.1806  0.3657
   87MOL   H15126123   5.143   3.866   3.271 -1.3651  0.2696  0.8137
   87MOL   C15226124   5.396   3.960   3.590 -0.1781 -0.4056  0.2531
   87MOL   C15326125   5.472   3.883   3.704 -0.2160 -0.0238  0.5194
   87MOL   C15426126   5.518   3.981   3.816  0.3176  0.1643  0.6968
   87MOL   C15526127   5.389   3.769   3.769  0.1350  0.6242 -0.0432
   87MOL   O15626128   5.281   3.735   3.721 -0.5375  0.3233  0.7236
   87MOL   O15726129   5.455   3.709   3.878  0.3043  0.1838 -0.0743
   87MOL   C15826130   5.430   3.571   3.903 -1.1624 -0.4578  0.6657
   87MOL   H15926131   5.472   4.006   3.528 -1.2204  0.7954 -0.1504
   87MOL   H16026132   5.357   3.880   3.527 -0.3506  0.0918 -0.2803
   87MOL   H16126133   5.542   4.079   3.776 -2.2199  0.4538 -0.1761
   87MOL   H16226134   5.450   4.004   3.898  0.5656 -0.1469  0.9965
   87MOL   H16326135   5.614   3.950   3.858  0.9959  0.1873 -0.8252
   87MOL   H16426136   5.470   3.543   4.000  0.2282 -1.7020 -0.2297
   87MOL   H16526137   5.475   3.505   3.829 -0.7578 -1.3236  1.6800
   87MOL   H16626138   5.324   3.547   3.903 -0.6127 -3.0484  1.7004
   87MOL   C16726139   5.598   3.818   3.645  0.4359 -0.1500  0.0082
   87MOL   C16826140   5.601   3.724   3.515 -0.6933  0.6306 -0.1846
   87MOL   C16926141   5.493   3.621   3.532  0.2520 -0.7751 -0.3190
   87MOL   C17026142   5.584   3.813   3.388 -0.2466  0.0211 -0.2973
   87MOL   O17126143   5.498   3.777   3.307 -0.2487 -0.7291  0.0504
   87MOL   O17226144   5.670   3.913   3.385 -0.2408 -0.8415 -0.3357
   87MOL   C17326145   5.670   3.998   3.273  0.3250 -0.1870 -0.0783
   87MOL   H17426146   5.637   3.755   3.725  1.2344 -0.5959 -0.7400
   87MOL   H17526147   5.683   3.886   3.645 -0.2215  0.7304  1.6719
   87MOL   H17626148   5.507   3.549   3.452  0.3977 -1.0292 -0.0650
   87MOL   H17726149   5.482   3.559   3.622  1.2042 -1.0752 -0.4038
   87MOL   H17826150   5.392   3.660   3.518  0.5206  1.0793  2.4457
   87MOL   H17926151   5.681   4.103   3.299 -0.9151  0.3738 -1.7833
   87MOL   H18026152   5.587   3.985   3.204 -0.1218 -1.2485  0.6453
   87MOL   H18126153   5.756   3.974   3.211  0.2249  0.8837 -0.6388
   87MOL   C18226154   5.746   3.646   3.510 -0.1324 -0.2189 -0.2702
   87MOL   C18326155   5.806   3.577   3.374  0.5980 -1.2213  0.0774
   87MOL   C18426156   5.704   3.523   3.273 -0.0264 -0.2959  0.3474
   87MOL   C18526157   5.892   3.692   3.301 -0.4195 -0.0062  0.1643
   87MOL   O18626158   5.867   3.736   3.194  0.1922 -0.0983  0.2134
   87MOL   O18726159   5.988   3.746   3.377 -0.0421  0.1539  0.3341
   87MOL   C18826160   6.045   3.867   3.330  0.3999 -0.4736  0.1404
   87MOL   H18926161   5.727   3.557   3.570 -0.3959 -0.8173 -1.2302
   87MOL   H19026162   5.819   3.699   3.570  1.1391 -1.7073 -0.4676
   87MOL   H19126163   5.749   3.499   3.177 -0.8132 -0.9861  0.1525
   87MOL   H19226164   5.647   3.434   3.300  0.6113 -1.3042 -1.5677
   87MOL   H19326165   5.628   3.590   3.233 -1.1744 -3.3188 -2.7000
   87MOL   H19426166   6.096   3.834   3.240 -2.6804 -0.8320 -1.5368
   87MOL   H19526167   6.108   3.917   3.404 -3.9508 -0.2894  3.9655
   87MOL   H19626168   5.966   3.933   3.295 -1.3588 -2.5695  0.0808
   87MOL   C19726169   5.900   3.460   3.411  0.5854 -0.5607  0.1539
   87MOL   C19826170   5.964   3.351   3.316  0.9022  0.4680 -0.7337
   87MOL   C19926171   5.854   3.251   3.255 -0.4319 -0.6621 -0.2206
   87MOL   C20026172   6.023   3.433   3.192  0.0929 -0.2778  0.3490
   87MOL   O20126173   5.985   3.424   3.076  0.3617  0.1354 -0.2115
   87MOL   O20226174   6.131   3.506   3.224 -0.3878  0.2379  0.5635
   87MOL   C20326175   6.200   3.583   3.120  0.2639 -0.0789  0.1506
   87MOL   H20426176   5.842   3.395   3.476 -0.9066  1.9502  1.4069
   87MOL   H20526177   5.982   3.509   3.464  1.6475 -1.6053 -0.4944
   87MOL   H20626178   5.756   3.291   3.227 -0.0021 -0.9104 -2.1643
   87MOL   H20726179   5.897   3.198   3.170 -1.4475 -1.6513 -0.1246
   87MOL   H20826180   5.821   3.177   3.328  2.0200 -0.2094  1.4030
   87MOL   H20926181   6.129   3.659   3.086 -1.1994 -1.1051  0.8449
   87MOL   H21026182   6.237   3.521   3.039  3.5375  1.6991  0.1785
   87MOL   H21126183   6.287   3.637   3.157  0.3558  1.4295 -2.1344
   87MOL   C21226184   6.086   3.290   3.401 -0.2135  0.8387  0.2808
   87MOL   C21326185   6.188   3.187   3.343 -0.2617 -0.8769 -0.7438
   87MOL   C21426186   6.133   3.082   3.247 -0.2171  0.2058  0.2513
   87MOL   C21526187   6.300   3.265   3.266  0.3501 -0.3029  0.1826
   87MOL   O21626188   6.298   3.267   3.141  0.5128  0.5693  0.1566
   87MOL   O21726189   6.386   3.324   3.342 -0.2029 -0.0520 -0.1401
   87MOL   C21826190   6.498   3.388   3.288 -0.1565  0.6663 -0.1684
   87MOL   H21926191   6.048   3.271   3.501 -0.7568 -1.3040 -0.3088
   87MOL   H22026192   6.143   3.378   3.430  1.2596  0.3035 -0.9033
   87MOL   H22126193   6.037   3.046   3.287  0.5391  0.3427  2.2803
   87MOL   H22226194   6.110   3.125   3.150  0.6908  0.8414  0.3172
   87MOL   H22326195   6.212   3.010   3.229 -0.1285  0.6244 -1.0441
   87MOL   H22426196   6.558   3.430   3.369  2.3944 -0.8389 -1.2238
   87MOL   H22526197   6.473   3.464   3.215  0.5698 -0.2183 -1.3452
   87MOL   H22626198   6.553   3.309   3.238 -0.2564  1.1344 -1.0262
   87MOL   C22726199   6.246   3.109   3.468 -0.0635 -0.0157 -0.4810
   87MOL   C22826200   6.176   2.990   3.542  0.0869 -0.4945 -0.8598
   87MOL   C22926201   6.025   3.012   3.580 -0.8054 -0.7040 -0.1462
   87MOL   C23026202   6.181   2.853   3.465  0.1870  0.6540 -0.0388
   87MOL   O23126203   6.081   2.793   3.434 -0.3587  0.1790  0.6837
   87MOL   O23226204   6.307   2.815   3.439 -0.3642  0.2434  0.1435
   87MOL   C23326205   6.330   2.699   3.360 -0.4744 -0.8349 -1.1513
   87MOL   H23426206   6.267   3.192   3.536  2.1361  0.3281 -1.5120
   87MOL   H23526207   6.348   3.080   3.443 -0.1804 -0.0255 -0.9465
   87MOL   H23626208   5.992   3.092   3.647 -2.6333 -1.0702 -0.6015
   87MOL   H23726209   5.964   3.009   3.490 -2.6277  1.5839  0.9519
   87MOL   H23826210   5.991   2.925   3.635 -0.9753 -0.4429  0.1651
   87MOL   H23926211   6.252   2.630   3.390 -0.2833 -0.4138  0.3606
   87MOL   H24026212   6.428   2.652   3.370  0.2101  0.8632  0.5808
   87MOL   H24126213   6.309   2.722   3.255  0.9673  3.2937 -0.6561
   87MOL   C24226214   6.257   2.962   3.674  0.6424  0.5205  0.2579
   87MOL   C24326215   6.240   3.023   3.821  0.2235  0.1405  0.3710
   87MOL   C24426216   6.214   3.176   3.809 -0.2451  0.5622 -0.6772
   87MOL   C24526217   6.118   2.966   3.902  0.6548 -0.0584 -0.0718
   87MOL   O24626218   6.057   2.862   3.870  0.1869 -0.3907  0.1546
   87MOL   O24726219   6.100   3.026   4.023  0.2751  0.4827  0.3832
   87MOL   C24826220   5.996   2.978   4.115 -0.0605 -0.3471 -0.2908
   87MOL   H24926221   6.360   2.990   3.653  0.2964  1.1338 -0.6682
   87MOL   H25026222   6.245   2.857   3.698 -1.9574  0.4182 -1.3108
   87MOL   H25126223   6.214   3.232   3.903 -1.8783 -0.3255 -0.1233
   87MOL   H25226224   6.282   3.232   3.743  0.1655  2.1109  1.0121
   87MOL   H25326225   6.116   3.202   3.770 -0.2740  0.4357 -0.6877
   87MOL   H25426226   5.897   3.018   4.091 -0.9685 -1.0383  2.1506
   87MOL   H25526227   6.023   3.001   4.218 -1.1076 -1.1256  0.1696
   87MOL   H25626228   5.986   2.870   4.105  1.0408 -0.5356  0.5806
   87MOL   C25726229   6.370   3.010   3.906 -0.3805  0.8012 -0.0692
   87MOL   C25826230   6.448   2.879   3.944 -0.8010  0.4963  0.2753
   87MOL   C25926231   6.353   2.794   4.034 -0.5346  0.0621 -0.1668
   87MOL   C26026232   6.491   2.788   3.828  0.3920 -0.7717 -0.0473
   87MOL   O26126233   6.532   2.849   3.730  0.1380  0.0019 -0.4809
   87MOL   O26226234   6.476   2.653   3.848  0.4048  0.3882 -0.3670
   87MOL   C26326235   6.508   2.555   3.758 -0.4258 -0.2767 -0.0066
   87MOL   H26426236   6.361   3.072   3.995 -0.0834  1.4285 -0.4781
   87MOL   H26526237   6.440   3.074   3.853 -1.3855  3.1838  1.4213
   87MOL   H26626238   6.408   2.708   4.072 -1.4968 -1.1536 -1.4830
   87MOL   H26726239   6.318   2.841   4.126  0.2416 -2.2005  1.3551
   87MOL   H26826240   6.267   2.752   3.981 -1.7422  2.8282 -0.4588
   87MOL   H26926241   6.604   2.509   3.780 -0.1664  1.8242  3.6467
   87MOL   H27026242   6.491   2.598   3.659  1.4066  0.5548  0.0200
   87MOL   H27126243   6.443   2.468   3.769 -0.3982 -0.1012  1.7105
   87MOL   C27226244   6.580   2.940   4.021  0.5049 -0.3200 -0.2805
   87MOL   C27326245   6.678   2.868   4.119 -0.1810  0.3770 -0.1875
   87MOL   C27426246   6.611   2.871   4.259 -0.8975  0.2078 -0.1525
   87MOL   C27526247   6.708   2.723   4.075 -0.7372 -0.6050 -0.1629
   87MOL   O27626248   6.771   2.707   3.969 -0.2058 -0.1785 -0.2989
   87MOL   O27726249   6.668   2.621   4.154 -0.5047  0.2953  0.9281
   87MOL   C27826250   6.721   2.494   4.123 -0.2159 -0.1929  0.1611
   87MOL   H27926251   6.546   3.027   4.078  0.5347 -1.0231  0.8224
   87MOL   H28026252   6.640   2.983   3.942 -0.8270  0.9126 -0.6384
   87MOL   H28126253   6.655   2.817   4.343 -1.5836  0.2340  0.2264
   87MOL   H28226254   6.597   2.976   4.285  3.5249  1.2385 -1.4792
   87MOL   H28326255   6.509   2.833   4.255 -0.9942  0.4184  0.2445
   87MOL   H28426256   6.666   2.447   4.041 -2.9939 -2.2339  3.0853
   87MOL   H28526257   6.719   2.448   4.222 -0.0089  0.1334  0.3173
   87MOL   H28626258   6.828   2.488   4.101 -0.1122 -0.8470  0.8123
   87MOL   C28726259   6.806   2.954   4.132 -0.3778 -0.7785 -0.9386
   87MOL   C28826260   6.911   2.907   4.236  0.0252  0.1087  0.4398
   87MOL   C28926261   7.042   2.880   4.156 -0.1721  0.1421 -0.3685
   87MOL   C29026262   6.927   3.017   4.345 -0.0756 -0.4515 -0.5639
   87MOL   O29126263   6.886   3.008   4.464 -0.2172 -0.4596  0.4852
   87MOL   O29226264   6.985   3.124   4.293 -0.1507 -0.5987  0.1468
   87MOL   C29326265   7.006   3.242   4.371  0.2006  0.2458 -0.5506
   87MOL   H29426266   6.771   3.057   4.142 -1.1620 -0.9341 -1.9415
   87MOL   H29526267   6.854   2.954   4.034 -0.2121  0.5731 -0.8656
   87MOL   H29626268   7.122   2.837   4.216 -0.7812  0.8020  0.9513
   87MOL   H29726269   7.025   2.814   4.071  1.2120 -0.5531 -0.1137
   87MOL   H29826270   7.077   2.972   4.110 -1.2135  0.3808 -0.6866
   87MOL   H29926271   7.071   3.306   4.310 -0.0830  0.5385 -0.5414
   87MOL   H30026272   7.062   3.227   4.463 -0.6195  3.0986  0.4672
   87MOL   H30126273   6.911   3.289   4.396  0.1298  0.3711 -1.0462
   87MOL   H30226274   6.879   2.815   4.283  1.6873 -0.5597  0.3097
   88MOL     C126275   4.732   4.344   1.383 -0.2864 -0.2026  0.6742
   88MOL     C226276   4.605   4.326   1.308  0.0659 -0.0443 -0.2100
   88MOL     C326277   4.598   4.175   1.286  0.9674  0.2122 -0.2019
   88MOL     C426278   4.488   4.371   1.398  1.1055 -0.6905  0.8736
   88MOL     O526279   4.389   4.300   1.422 -0.0742  0.2382  0.5718
   88MOL     O626280   4.514   4.490   1.449 -0.4487 -1.0591  0.4348
   88MOL     C726281   4.412   4.547   1.528 -0.2229  0.4007  0.5989
   88MOL     H826282   4.755   4.446   1.414 -0.2990 -0.0010  0.0370
   88MOL     H926283   4.728   4.287   1.476  2.9640  2.1713  2.3661
   88MOL    H1026284   4.622   4.114   1.374 -0.6252  0.5625  0.4855
   88MOL    H1126285   4.500   4.139   1.258  1.6966 -1.3141 -0.8468
   88MOL    H1226286   4.669   4.153   1.206 -0.6795  2.1491 -2.2197
   88MOL    H1326287   4.329   4.552   1.457  2.0083  0.9939 -2.0293
   88MOL    H1426288   4.423   4.645   1.574  0.9587  0.3531  0.4263
   88MOL    H1526289   4.385   4.486   1.614 -0.6143  0.9483  0.8703
   88MOL    H1626290   4.817   4.312   1.322 -0.6141 -0.0451  0.1293
   88MOL    C1726291   4.607   4.411   1.176 -0.2379  0.0948  0.6308
   88MOL    C1826292   4.509   4.401   1.056  0.3169  0.3375 -0.4198
   88MOL    C1926293   4.542   4.271   0.978 -0.6336 -0.0145  0.6345
   88MOL    C2026294   4.367   4.416   1.099 -0.0615  0.7475 -0.3543
   88MOL    O2126295   4.284   4.330   1.081  0.0347  0.7971 -0.8271
   88MOL    O2226296   4.346   4.540   1.152  0.2222  0.1790  0.4388
   88MOL    C2326297   4.211   4.581   1.175  0.6225  0.9032 -0.7765
   88MOL    H2426298   4.707   4.393   1.135 -0.8650  0.8193 -1.3047
   88MOL    H2526299   4.615   4.515   1.207 -0.7333 -0.3876  2.3967
   88MOL    H2626300   4.648   4.261   0.956 -0.8867 -1.7038  0.1058
   88MOL    H2726301   4.512   4.183   1.035  1.2479 -0.8494  0.3731
   88MOL    H2826302   4.481   4.268   0.887  0.5235  1.1100 -0.1872
   88MOL    H2926303   4.191   4.538   1.273  0.8782  0.4755 -0.9115
   88MOL    H3026304   4.148   4.549   1.092  0.5685 -0.5467 -0.1815
   88MOL    H3126305   4.194   4.685   1.205  0.3927 -0.3489  3.8426
   88MOL    C3226306   4.550   4.520   0.961 -0.1964  0.7044  0.2443
   88MOL    C3326307   4.481   4.548   0.814  0.2532 -0.4615  0.0017
   88MOL    C3426308   4.502   4.703   0.794  0.3671 -0.4274  0.8484
   88MOL    C3526309   4.575   4.473   0.701  0.3532 -0.1039  0.2919
   88MOL    O3626310   4.522   4.390   0.627  0.3012  0.3059  0.2703
   88MOL    O3726311   4.702   4.524   0.689 -0.0966  0.3740 -0.2918
   88MOL    C3826312   4.786   4.486   0.583  0.4921  0.1534  0.7940
   88MOL    H3926313   4.657   4.522   0.936 -0.1495  0.1335  0.3961
   88MOL    H4026314   4.542   4.614   1.015 -0.9955  0.6732  0.1817
   88MOL    H4126315   4.415   4.764   0.819  1.2237  2.6723 -3.1392
   88MOL    H4226316   4.588   4.745   0.846  1.0485 -0.2483 -0.4162
   88MOL    H4326317   4.526   4.727   0.691  0.5356  0.8308  1.1717
   88MOL    H4426318   4.883   4.531   0.608  1.2668 -2.5469  2.9132
   88MOL    H4526319   4.738   4.521   0.492  0.6830 -2.4477 -0.3465
   88MOL    H4626320   4.808   4.379   0.579  0.2685  0.1641 -1.0897
   88MOL    C4726321   4.325   4.525   0.808  0.8317 -0.9798  0.1010
   88MOL    C4826322   4.208   4.555   0.703 -0.8658 -0.3617 -1.2054
   88MOL    C4926323   4.084   4.493   0.757  0.6785 -0.4336 -0.3293
   88MOL    C5026324   4.188   4.708   0.697  0.0967  0.0403 -0.5568
   88MOL    O5126325   4.231   4.777   0.603 -0.1669 -0.2317 -0.8278
   88MOL    O5226326   4.120   4.754   0.799 -0.5336 -0.0764 -0.7570
   88MOL    C5326327   4.068   4.879   0.788  0.3613 -0.7339  0.2519
   88MOL    H5426328   4.285   4.574   0.897  0.1850 -0.7442 -0.3131
   88MOL    H5526329   4.320   4.421   0.839  1.1643 -1.1524 -0.4191
   88MOL    H5626330   4.064   4.527   0.858 -1.6545  1.6294 -1.4231
   88MOL    H5726331   3.986   4.510   0.711  0.5631  1.4786  0.5929
   88MOL    H5826332   4.100   4.385   0.760  3.0876 -0.0455  3.3300
   88MOL    H5926333   4.142   4.956   0.765 -3.2114  2.5419 -0.7742
   88MOL    H6026334   4.019   4.920   0.876 -1.0025 -0.1137 -0.7787
   88MOL    H6126335   4.003   4.886   0.701  0.6507 -0.9224  0.0202
   88MOL    C6226336   4.239   4.493   0.563  0.2218  0.0332  0.9163
   88MOL    C6326337   4.133   4.457   0.443 -0.3210 -0.8709 -0.5086
   88MOL    C6426338   4.228   4.429   0.326 -0.2119  0.4982  0.2694
   88MOL    C6526339   4.066   4.320   0.471  0.7658 -0.1219  0.1046
   88MOL    O6626340   3.949   4.313   0.511 -0.3505 -0.0560 -0.0551
   88MOL    O6726341   4.144   4.219   0.447 -0.1562 -0.6117  0.3446
   88MOL    C6826342   4.102   4.082   0.441 -1.0382 -0.0702 -0.4252
   88MOL    H6926343   4.290   4.398   0.577 -0.9156 -0.4574  1.7489
   88MOL    H7026344   4.317   4.555   0.517  0.4728 -1.6474 -1.0377
   88MOL    H7126345   4.250   4.529   0.287  1.3999 -0.1538 -0.5572
   88MOL    H7226346   4.326   4.389   0.351 -0.4114 -0.2365 -0.0860
   88MOL    H7326347   4.197   4.369   0.240  2.0150 -0.4378  0.0680
   88MOL    H7426348   4.189   4.018   0.433 -0.1372  0.8831  1.4808
   88MOL    H7526349   4.039   4.060   0.354  1.4888  0.7928 -2.5256
   88MOL    H7626350   4.056   4.041   0.531 -0.6137 -0.9587 -0.6160
   88MOL    C7726351   4.029   4.577   0.413 -0.0605  0.1508 -0.6869
   88MOL    C7826352   3.939   4.592   0.287 -0.9325 -0.3942 -0.2288
   88MOL    C7926353   4.015   4.590   0.147 -0.2550 -0.3897 -0.2065
   88MOL    C8026354   3.828   4.480   0.275  0.6175  0.7361 -0.2052
   88MOL    O8126355   3.836   4.398   0.189 -0.0714 -0.2654 -0.1918
   88MOL    O8226356   3.737   4.499   0.376 -0.1273 -0.1348 -0.4366
   88MOL    C8326357   3.648   4.383   0.406 -0.2708  0.7984 -0.3869
   88MOL    H8426358   4.087   4.668   0.426  2.8062 -1.6901 -0.2468
   88MOL    H8526359   3.963   4.568   0.500  1.6497 -0.5691  0.5514
   88MOL    H8626360   4.093   4.665   0.138  1.1743 -1.8382 -0.1068
   88MOL    H8726361   4.057   4.497   0.108 -0.1299  0.3213 -1.8250
   88MOL    H8826362   3.947   4.629   0.070  1.9860  1.7323 -1.1863
   88MOL    H8926363   3.617   4.324   0.320 -2.7677  0.6923  0.5574
   88MOL    H9026364   3.560   4.402   0.467 -0.1082 -1.0484  0.4406
   88MOL    H9126365   3.707   4.313   0.464  2.2270  0.9079 -2.6916
   88MOL    C9226366   3.868   4.733   0.315  0.3590  0.1719  1.2345
   88MOL    C9326367   3.906   4.880   0.284  0.0184 -0.5174  0.1113
   88MOL    C9426368   3.793   4.969   0.348 -0.0138 -0.0587  0.2904
   88MOL    C9526369   4.042   4.915   0.349  0.8589  0.7510 -0.1075
   88MOL    O9626370   4.051   4.975   0.458 -0.0504  0.6959  0.2860
   88MOL    O9726371   4.150   4.875   0.277 -0.1793  0.4525  0.2581
   88MOL    C9826372   4.279   4.879   0.326 -0.4314 -0.1256  0.0413
   88MOL    H9926373   3.839   4.734   0.420 -0.0065  1.5443  1.1329
   88MOL   H10026374   3.773   4.725   0.263  1.2712 -0.6764 -0.3573
   88MOL   H10126375   3.811   5.076   0.349  0.8152 -0.1893 -0.0790
   88MOL   H10226376   3.697   4.934   0.309  0.8447 -0.8627 -1.1462
   88MOL   H10326377   3.777   4.949   0.454 -0.6010 -0.4226  0.1424
   88MOL   H10426378   4.330   4.886   0.230 -1.6265 -1.1006 -0.6805
   88MOL   H10526379   4.303   4.785   0.377  0.4040  0.8581  1.4770
   88MOL   H10626380   4.302   4.963   0.390 -1.6956 -0.7713  1.3621
   88MOL   C10726381   3.904   4.891   0.124 -0.3687 -0.5623 -0.1189
   88MOL   C10826382   3.890   5.033   0.043 -0.1791 -0.5147 -0.2318
   88MOL   C10926383   3.744   5.066   0.048  0.6285  0.7392 -0.4555
   88MOL   C11026384   3.973   5.139   0.122 -0.1760 -0.7265  0.5939
   88MOL   O11126385   3.925   5.239   0.174  0.1777  0.3248 -0.4704
   88MOL   O11226386   4.102   5.117   0.122  0.2050 -0.1924  0.3841
   88MOL   C11326387   4.197   5.214   0.178  0.6553  0.3500  0.0771
   88MOL   H11426388   3.825   4.830   0.080 -0.1365  0.3544 -1.8565
   88MOL   H11526389   3.995   4.847   0.084  0.8406  2.1916 -0.5573
   88MOL   H11626390   3.711   5.095   0.147  1.8714  0.0716  0.1674
   88MOL   H11726391   3.725   5.157   7.868 -1.3335  0.1206 -0.8276
   88MOL   H11826392   3.676   4.989   0.012  0.2080  0.3548  1.1200
   88MOL   H11926393   4.199   5.288   0.098 -0.4331 -0.6367 -0.8896
   88MOL   H12026394   4.297   5.171   0.186  0.1508 -1.5954 -2.9983
   88MOL   H12126395   4.156   5.250   0.272 -1.9366 -0.5068 -0.6660
   88MOL   C12226396   3.952   4.994   7.773 -0.3798  0.9540  0.0511
   88MOL   C12326397   3.950   5.097   7.654  0.4045 -0.1052  0.6370
   88MOL   C12426398   3.992   5.235   7.708  0.0331  0.0282  0.7294
   88MOL   C12526399   4.056   5.049   7.551 -0.6832  0.2028 -0.2464
   88MOL   O12626400   4.077   4.924   7.534 -0.1651 -0.4322  0.2654
   88MOL   O12726401   4.126   5.142   7.485 -0.2840  0.2600  0.5546
   88MOL   C12826402   4.258   5.105   7.438  0.0568  0.1393 -0.2249
   88MOL   H12926403   3.920   4.898   7.733  1.2588  1.4617 -2.6204
   88MOL   H13026404   4.054   4.964   7.796 -0.2504  1.1200 -0.2957
   88MOL   H13126405   4.018   5.311   7.634 -1.0239  0.1865  0.5226
   88MOL   H13226406   3.913   5.276   7.771  0.1311  2.8078 -0.8784
   88MOL   H13326407   4.084   5.216   7.765  0.7506  0.0565 -0.4059
   88MOL   H13426408   4.304   5.192   7.392  0.2331  0.8253  1.2203
   88MOL   H13526409   4.243   5.035   7.355 -1.6844  0.6325 -0.3426
   88MOL   H13626410   4.330   5.065   7.510 -1.0083 -1.3193  0.0707
   88MOL   C13726411   3.809   5.094   7.584  0.2490  0.7435 -1.0738
   88MOL   C13826412   3.763   5.162   7.451 -0.2513 -0.7014 -0.1244
   88MOL   C13926413   3.812   5.306   7.458  0.3917 -0.3076  0.1339
   88MOL   C14026414   3.834   5.087   7.333 -0.1360 -0.3385 -0.2271
   88MOL   O14126415   3.887   5.147   7.237 -0.3772  0.3016 -0.2003
   88MOL   O14226416   3.825   4.954   7.334  0.4122 -0.3401 -0.3648
   88MOL   C14326417   3.895   4.874   7.242 -0.0412  0.1274 -0.2903
   88MOL   H14426418   3.737   5.142   7.651 -0.7447 -1.5756 -0.4300
   88MOL   H14526419   3.776   4.990   7.580  1.3267  0.3723 -0.3194
   88MOL   H14626420   3.769   5.359   7.543  2.9405 -0.5695  1.6334
   88MOL   H14726421   3.920   5.320   7.452  0.2060  0.7083 -0.9420
   88MOL   H14826422   3.773   5.370   7.380 -0.7236  0.2725  1.1536
   88MOL   H14926423   3.847   4.882   7.144 -3.5427 -2.3690  1.1162
   88MOL   H15026424   3.881   4.767   7.258  1.9158 -0.2458 -0.8537
   88MOL   H15126425   4.001   4.898   7.236  0.4968 -1.9511  0.4321
   88MOL   C15226426   3.607   5.151   7.435 -0.4380 -0.6097  0.0704
   88MOL   C15326427   3.529   5.179   7.300  0.2060 -0.3154 -0.0483
   88MOL   C15426428   3.555   5.057   7.196  0.0647 -0.2140 -0.1942
   88MOL   C15526429   3.383   5.168   7.342 -0.4316 -0.9082 -0.2826
   88MOL   O15626430   3.310   5.073   7.305 -0.3370  0.3352 -0.4015
   88MOL   O15726431   3.338   5.278   7.417 -0.0859  0.0346 -0.4567
   88MOL   C15826432   3.200   5.293   7.428 -0.5655  0.0214 -0.9317
   88MOL   H15926433   3.565   5.213   7.514  0.3808 -0.0408  0.0688
   88MOL   H16026434   3.581   5.051   7.468  0.3984 -1.0546 -0.5947
   88MOL   H16126435   3.557   4.962   7.249 -0.0076 -0.0012  0.1892
   88MOL   H16226436   3.469   5.051   7.129 -0.3302  1.6406  0.1286
   88MOL   H16326437   3.649   5.052   7.141 -0.1154 -3.3190 -0.3043
   88MOL   H16426438   3.145   5.287   7.334 -0.1753  0.9888 -1.2339
   88MOL   H16526439   3.179   5.376   7.495  1.5202  0.2505 -0.5184
   88MOL   H16626440   3.166   5.203   7.479 -1.7978  1.0311  0.0658
   88MOL   C16726441   3.576   5.314   7.233 -0.3460 -0.5298  0.7147
   88MOL   C16826442   3.522   5.382   7.100 -0.4212 -1.1169 -0.0477
   88MOL   C16926443   3.378   5.428   7.127  0.0623  0.1310  0.3575
   88MOL   C17026444   3.616   5.505   7.064 -0.2699 -0.3900  0.5318
   88MOL   O17126445   3.586   5.623   7.043  0.2930 -0.0292  0.4159
   88MOL   O17226446   3.745   5.468   7.060  0.0808  0.4858  0.4789
   88MOL   C17326447   3.846   5.567   7.070  0.0514  0.1485 -0.4217
   88MOL   H17426448   3.680   5.295   7.207  0.1471 -1.0481  2.9239
   88MOL   H17526449   3.580   5.396   7.306  1.7004  0.7205 -0.7549
   88MOL   H17626450   3.369   5.496   7.212  0.1834 -0.8046  1.1281
   88MOL   H17726451   3.321   5.476   7.048 -3.0568 -2.0172  1.1814
   88MOL   H17826452   3.321   5.341   7.159  0.0260 -0.4468 -1.2149
   88MOL   H17926453   3.945   5.523   7.067 -0.2211 -0.5027  0.0870
   88MOL   H18026454   3.831   5.625   7.161 -2.6282  0.8961 -1.2833
   88MOL   H18126455   3.836   5.630   6.981 -1.5049 -1.5455 -1.4817
   88MOL   C18226456   3.519   5.280   6.985 -0.4721  0.6712 -0.1114
   88MOL   C18326457   3.528   5.312   6.835 -0.3210  0.0920  0.1969
   88MOL   C18426458   3.438   5.432   6.799 -0.5244  0.5997 -1.0353
   88MOL   C18526459   3.673   5.330   6.787  0.3783 -0.0101  0.5675
   88MOL   O18626460   3.706   5.444   6.752  0.2486  0.2574  0.2399
   88MOL   O18726461   3.753   5.228   6.804 -0.7241 -0.3190 -0.0013
   88MOL   C18826462   3.890   5.254   6.775 -0.3153 -0.3635  0.3122
   88MOL   H18926463   3.433   5.215   7.004  1.1633 -1.9744 -1.4926
   88MOL   H19026464   3.609   5.221   7.005 -0.1703  0.6087 -1.5927
   88MOL   H19126465   3.459   5.470   6.699 -2.9025  0.6490 -1.5540
   88MOL   H19226466   3.329   5.420   6.802 -0.4034 -0.0991  1.2608
   88MOL   H19326467   3.466   5.509   6.870  3.5677 -0.4694 -1.3852
   88MOL   H19426468   3.964   5.175   6.788 -0.0268 -0.1184  0.1837
   88MOL   H19526469   3.920   5.330   6.847 -3.7798  2.1007 -0.7279
   88MOL   H19626470   3.910   5.308   6.682  0.8187 -0.0735  0.7203
   88MOL   C19726471   3.462   5.188   6.766  0.8563  0.3267  0.0083
   88MOL   C19826472   3.442   5.158   6.615  0.0054  0.1134 -0.3251
   88MOL   C19926473   3.341   5.259   6.559  0.4637  0.1928  0.3142
   88MOL   C20026474   3.568   5.173   6.538  0.1185  0.0225  0.4522
   88MOL   O20126475   3.633   5.075   6.498  0.5878 -0.3293 -0.8371
   88MOL   O20226476   3.606   5.302   6.496  0.7166 -0.2359  0.3728
   88MOL   C20326477   3.719   5.338   6.420  0.3186  0.6443  0.1788
   88MOL   H20426478   3.363   5.169   6.806  0.7301  0.4512 -0.2446
   88MOL   H20526479   3.513   5.097   6.799 -0.6411 -0.4380  0.2398
   88MOL   H20626480   3.375   5.363   6.558 -2.4984  1.2242  1.4169
   88MOL   H20726481   3.316   5.235   6.456 -1.0238 -0.8016  0.8787
   88MOL   H20826482   3.248   5.251   6.616  0.5848 -1.0332  0.3394
   88MOL   H20926483   3.744   5.443   6.437  2.3035  0.0675  0.9534
   88MOL   H21026484   3.696   5.334   6.314 -1.3513 -0.2490  0.5581
   88MOL   H21126485   3.805   5.277   6.446  1.1130  1.0360 -1.4731
   88MOL   C21226486   3.388   5.009   6.586 -0.0230 -0.0408 -0.5819
   88MOL   C21326487   3.239   4.954   6.610 -0.2081  0.2127 -0.2585
   88MOL   C21426488   3.250   4.798   6.596  0.0617 -0.6497 -0.0472
   88MOL   C21526489   3.200   4.981   6.755  1.0468 -0.3115  0.4901
   88MOL   O21626490   3.107   5.049   6.788  0.3093 -0.2320 -0.3814
   88MOL   O21726491   3.284   4.916   6.831 -0.3379 -0.0984  0.1739
   88MOL   C21826492   3.269   4.922   6.972  0.2536 -0.7201 -0.6863
   88MOL   H21926493   3.450   4.941   6.644 -1.1276  0.5911  1.3833
   88MOL   H22026494   3.411   4.984   6.483  1.8957 -1.0003  0.0621
   88MOL   H22126495   3.296   4.778   6.500  1.7519  1.9509  0.1730
   88MOL   H22226496   3.318   4.748   6.665  0.0440  0.1457  0.5594
   88MOL   H22326497   3.160   4.737   6.599  0.9096 -1.8825  1.1521
   88MOL   H22426498   3.201   4.856   7.026  1.4892 -1.9734 -0.6101
   88MOL   H22526499   3.272   5.024   7.009  1.5338 -0.3665 -1.7173
   88MOL   H22626500   3.362   4.888   7.017  0.2462  1.0451  0.7212
   88MOL   C22726501   3.137   5.016   6.502  0.5005  0.1597 -0.3568
   88MOL   C22826502   2.997   4.953   6.458  0.2191 -0.3703  0.6389
   88MOL   C22926503   3.027   4.837   6.357 -0.5397 -0.4752 -0.0756
   88MOL   C23026504   2.912   4.893   6.575 -0.1596 -0.4535  0.1764
   88MOL   O23126505   2.889   4.772   6.583 -0.1003  0.4317  0.4201
   88MOL   O23226506   2.863   4.987   6.663 -0.1712  0.2774 -0.5700
   88MOL   C23326507   2.771   4.957   6.765 -0.5325 -0.1293  0.1735
   88MOL   H23426508   3.187   5.026   6.405 -1.0933  1.4811 -1.0710
   88MOL   H23526509   3.118   5.115   6.543 -0.5697 -0.6216  1.0550
   88MOL   H23626510   3.081   4.864   6.266  1.1719 -0.2084  1.0016
   88MOL   H23726511   3.081   4.755   6.404 -1.9192 -0.7896  0.9917
   88MOL   H23826512   2.941   4.787   6.314 -0.5174 -0.4377 -0.1656
   88MOL   H23926513   2.670   4.962   6.725 -0.6061  1.4801  0.5314
   88MOL   H24026514   2.777   5.026   6.849 -1.1938  0.1417  0.0003
   88MOL   H24126515   2.784   4.865   6.822  0.8747 -0.2304 -0.2863
   88MOL   C24226516   2.893   5.049   6.378  0.1584 -0.6616 -0.0597
   88MOL   C24326517   2.878   5.210   6.408 -0.3026 -0.1668  0.3410
   88MOL   C24426518   2.854   5.251   6.559 -0.2181  0.3330 -0.3890
   88MOL   C24526519   3.003   5.289   6.363  0.3136  0.0239  0.1920
   88MOL   O24626520   3.095   5.235   6.299 -0.3159 -0.0244  0.1212
   88MOL   O24726521   3.006   5.419   6.403 -0.3335 -0.4620 -0.0445
   88MOL   C24826522   3.115   5.493   6.350 -0.0362 -0.2166 -0.4531
   88MOL   H24926523   2.794   5.004   6.380  0.3465 -1.0448  1.8463
   88MOL   H25026524   2.934   5.040   6.277  2.3516  0.1782  0.7186
   88MOL   H25126525   2.758   5.214   6.594 -0.0513 -0.7580 -1.0572
   88MOL   H25226526   2.936   5.224   6.625 -3.3646  0.5537  3.8121
   88MOL   H25326527   2.861   5.358   6.575  1.2109  0.2603 -0.5178
   88MOL   H25426528   3.203   5.445   6.393  0.0759 -1.5045 -2.0385
   88MOL   H25526529   3.127   5.594   6.389 -1.0924 -0.5317  0.7168
   88MOL   H25626530   3.128   5.492   6.242 -1.4728 -0.2305 -0.6251
   88MOL   C25726531   2.750   5.271   6.332  1.0613  0.2012  0.0274
   88MOL   C25826532   2.725   5.268   6.176 -0.7710 -0.0452  0.1586
   88MOL   C25926533   2.846   5.339   6.103  0.2294  0.0533  0.5760
   88MOL   C26026534   2.709   5.121   6.131 -0.5955 -0.6321  0.2873
   88MOL   O26126535   2.645   5.043   6.194  0.0083 -0.0252 -0.1868
   88MOL   O26226536   2.766   5.089   6.013  0.1421  0.1879 -0.4510
   88MOL   C26326537   2.753   4.952   5.968  0.2359 -0.7698 -0.1617
   88MOL   H26426538   2.734   5.377   6.350  0.1002 -0.1406  1.2686
   88MOL   H26526539   2.664   5.225   6.379  0.8410 -0.2266 -0.7848
   88MOL   H26626540   2.808   5.393   6.017  1.6165 -0.0814 -0.1369
   88MOL   H26726541   2.885   5.414   6.172  1.7999 -0.7049  0.5398
   88MOL   H26826542   2.936   5.278   6.092  0.4251  0.4836 -0.2248
   88MOL   H26926543   2.782   4.879   6.043 -1.3423 -1.0276  0.2154
   88MOL   H27026544   2.828   4.939   5.890  0.2472  1.9812 -0.6705
   88MOL   H27126545   2.656   4.929   5.925  0.2968 -1.2706 -0.0357
   88MOL   C27226546   2.588   5.349   6.157  0.0259  0.3647 -0.5432
   88MOL   C27326547   2.481   5.322   6.043 -0.1427  0.4053  0.2316
   88MOL   C27426548   2.406   5.185   6.070  0.7571  0.6443  0.1384
   88MOL   C27526549   2.376   5.440   6.071 -0.8733 -0.3719  0.4165
   88MOL   O27626550   2.296   5.431   6.165 -0.0511  0.4527 -0.4461
   88MOL   O27726551   2.394   5.552   5.999  0.2218 -0.0353 -0.5585
   88MOL   C27826552   2.320   5.667   6.028 -0.4050 -0.3132  0.0441
   88MOL   H27926553   2.625   5.451   6.155 -2.0515  1.1120 -2.0730
   88MOL   H28026554   2.533   5.344   6.251  0.3148  0.1331 -0.3829
   88MOL   H28126555   2.407   5.159   6.176  1.6447 -2.5328 -0.5985
   88MOL   H28226556   2.303   5.179   6.037  0.6723  2.1005  0.0758
   88MOL   H28326557   2.458   5.101   6.024 -0.6296 -1.6473  2.6049
   88MOL   H28426558   2.218   5.637   6.052 -0.7857  0.2201 -0.8840
   88MOL   H28526559   2.322   5.740   5.947  0.8453 -0.5239 -0.1247
   88MOL   H28626560   2.362   5.717   6.115  0.5657 -1.4959  0.2753
   88MOL   C28726561   2.545   5.341   5.899 -0.6345 -0.2373 -0.7267
   88MOL   C28826562   2.452   5.325   5.773 -0.2575 -0.9890 -0.0431
   88MOL   C28926563   2.505   5.393   5.646  0.2655  0.8704 -0.1625
   88MOL   C29026564   2.394   5.187   5.746 -0.2396 -0.3929  0.1072
   88MOL   O29126565   2.275   5.165   5.758 -0.2221 -0.8085 -0.0245
   88MOL   O29226566   2.495   5.095   5.718  0.1038 -0.3586  0.0470
   88MOL   C29326567   2.458   4.963   5.704 -1.0210 -0.4668  0.2356
   88MOL   H29426568   2.622   5.264   5.890  0.5835  0.4840  2.5100
   88MOL   H29526569   2.594   5.438   5.893  0.1525 -0.6699 -1.5119
   88MOL   H29626570   2.479   5.498   5.633 -1.5421  0.3635 -0.7835
   88MOL   H29726571   2.612   5.414   5.639  0.3985  0.4503  0.5596
   88MOL   H29826572   2.469   5.349   5.553  1.8190  0.5106 -0.6142
   88MOL   H29926573   2.400   4.948   5.613  1.2763 -1.4267 -1.1243
   88MOL   H30026574   2.398   4.929   5.788  0.5201 -0.3166  1.4083
   88MOL   H30126575   2.543   4.895   5.700 -0.4457  0.3255 -2.5728
   88MOL   H30226576   2.359   5.379   5.792  0.6258  0.8795 -0.8863
   89MOL     C126577   5.211   2.384   4.756  0.3819 -0.1704  0.2820
   89MOL     C226578   5.320   2.399   4.645  0.0856 -0.2336 -0.4064
   89MOL     C326579   5.330   2.539   4.603 -0.1133  0.1579 -0.1746
   89MOL     C426580   5.455   2.359   4.711  0.4689  0.1557  0.7431
   89MOL     O526581   5.549   2.441   4.723  0.5662  0.4409  0.0607
   89MOL     O626582   5.454   2.238   4.758 -0.6178  0.5422 -0.4988
   89MOL     C726583   5.581   2.185   4.812  0.2829  1.0488 -0.3281
   89MOL     H826584   5.121   2.440   4.731 -0.2924 -1.5041 -0.3234
   89MOL     H926585   5.183   2.279   4.761  2.9354 -0.8043  2.5154
   89MOL    H1026586   5.329   2.605   4.690 -1.1167  0.0188 -0.0725
   89MOL    H1126587   5.417   2.578   4.550  1.1459 -2.6599 -0.2242
   89MOL    H1226588   5.234   2.560   4.556 -0.9073 -1.8509  0.5257
   89MOL    H1326589   5.673   2.208   4.758  0.9385 -2.8061 -1.0604
   89MOL    H1426590   5.575   2.077   4.830  3.4654  1.1758  2.0341
   89MOL    H1526591   5.595   2.227   4.912 -0.8743 -0.8553  0.6647
   89MOL    H1626592   5.242   2.420   4.854 -0.0030 -0.1114  0.3811
   89MOL    C1726593   5.280   2.312   4.523 -0.2502  0.1721 -0.7058
   89MOL    C1826594   5.369   2.308   4.386  0.2048 -0.1907  0.1550
   89MOL    C1926595   5.526   2.322   4.410  0.3077 -0.4362 -0.1040
   89MOL    C2026596   5.350   2.178   4.314 -0.2968 -0.4930 -0.4536
   89MOL    O2126597   5.424   2.138   4.225 -0.3523  0.2793  0.3108
   89MOL    O2226598   5.242   2.105   4.343 -0.2906  0.1202  0.0687
   89MOL    C2326599   5.220   1.981   4.271  0.0871  0.5545 -0.5629
   89MOL    H2426600   5.174   2.328   4.505  0.2170  3.4162 -0.8847
   89MOL    H2526601   5.278   2.209   4.558  1.3284 -0.2205 -1.6916
   89MOL    H2626602   5.584   2.305   4.319  0.4795 -1.7955  0.2525
   89MOL    H2726603   5.549   2.420   4.451 -2.9593  0.6662 -0.7940
   89MOL    H2826604   5.569   2.256   4.485 -3.6493 -1.9992  0.9118
   89MOL    H2926605   5.219   2.006   4.165 -0.2213 -0.9433 -0.9223
   89MOL    H3026606   5.119   1.947   4.294  1.5186 -2.1330  2.1880
   89MOL    H3126607   5.297   1.905   4.285 -0.6804 -0.0230  0.6328
   89MOL    C3226608   5.324   2.426   4.289 -0.0202 -0.1038  0.1910
   89MOL    C3326609   5.201   2.422   4.191 -0.2969  0.1302  0.7466
   89MOL    C3426610   5.242   2.331   4.066  0.5128  0.0784  0.3223
   89MOL    C3526611   5.070   2.367   4.255  0.8050  0.0873  0.4503
   89MOL    O3626612   5.013   2.268   4.215  0.4814 -0.2994 -0.3952
   89MOL    O3726613   5.024   2.449   4.352  0.2532 -0.1167 -0.8754
   89MOL    C3826614   4.914   2.413   4.433 -0.4597 -0.4818 -0.1160
   89MOL    H3926615   5.409   2.435   4.221 -0.2878  1.1386 -0.0022
   89MOL    H4026616   5.330   2.519   4.347  2.3737  1.1674 -1.9869
   89MOL    H4126617   5.254   2.224   4.082 -1.4447 -0.4421 -1.4873
   89MOL    H4226618   5.186   2.349   3.974  0.7086  1.6728  0.4941
   89MOL    H4326619   5.341   2.357   4.028  0.0053  0.7642 -0.5603
   89MOL    H4426620   4.942   2.316   4.474 -2.7240  0.0233  2.8111
   89MOL    H4526621   4.821   2.411   4.376 -1.2156  0.2635  1.0781
   89MOL    H4626622   4.898   2.495   4.504  1.8959  0.7911 -1.0040
   89MOL    C4726623   5.179   2.565   4.133  0.2083 -0.6267  0.2282
   89MOL    C4826624   5.054   2.614   4.047  0.2865 -0.3893 -0.1040
   89MOL    C4926625   5.102   2.739   3.971 -0.0178  0.3340 -0.7290
   89MOL    C5026626   5.008   2.517   3.934  0.5175  0.0281  0.8718
   89MOL    O5126627   5.042   2.527   3.814  0.0095 -0.2117 -1.1869
   89MOL    O5226628   4.935   2.425   3.976  0.1418  0.8646  0.0692
   89MOL    C5326629   4.886   2.326   3.891  0.0738 -0.1627  0.0609
   89MOL    H5426630   5.267   2.572   4.069  0.7520  2.1054  1.2063
   89MOL    H5526631   5.191   2.639   4.212  0.2485 -2.1492  1.6807
   89MOL    H5626632   5.196   2.715   3.921  1.5922 -0.5206  2.5844
   89MOL    H5726633   5.023   2.773   3.904 -1.7138 -2.0278 -0.0109
   89MOL    H5826634   5.124   2.803   4.056  3.3739 -0.3857 -0.9886
   89MOL    H5926635   4.960   2.262   3.843  2.0875  1.4819  0.8984
   89MOL    H6026636   4.821   2.373   3.817  1.3530  2.8295  0.7947
   89MOL    H6126637   4.829   2.249   3.943  0.3536 -1.5558 -1.6399
   89MOL    C6226638   4.932   2.641   4.145 -0.8349  0.1321  0.3321
   89MOL    C6326639   4.802   2.726   4.110  0.2153 -0.8226  0.6676
   89MOL    C6426640   4.748   2.701   3.963  0.1493 -0.0123  0.9709
   89MOL    C6526641   4.692   2.676   4.206  0.3886  0.5086  0.5375
   89MOL    O6626642   4.582   2.648   4.166 -0.0296  0.2137  0.0790
   89MOL    O6726643   4.721   2.690   4.338 -0.1664 -0.1466 -0.0567
   89MOL    C6826644   4.629   2.648   4.440  0.1455 -0.1371 -0.3013
   89MOL    H6926645   4.964   2.681   4.241 -0.5282  1.6789 -0.4068
   89MOL    H7026646   4.904   2.539   4.174  1.6507 -1.2041 -1.7283
   89MOL    H7126647   4.797   2.750   3.879  0.2924 -1.6563  0.0921
   89MOL    H7226648   4.731   2.597   3.935  1.0932  0.1662 -0.2826
   89MOL    H7326649   4.649   2.744   3.950 -0.2302 -0.9037  0.8831
   89MOL    H7426650   4.677   2.581   4.512  1.5173  1.0046 -0.1179
   89MOL    H7526651   4.538   2.612   4.393  1.2021  1.1835 -3.5625
   89MOL    H7626652   4.590   2.741   4.482  2.9691  0.2178  1.6785
   89MOL    C7726653   4.834   2.886   4.124  0.4559  0.6392 -0.0165
   89MOL    C7826654   4.727   3.005   4.098 -0.2308  0.1454 -0.2223
   89MOL    C7926655   4.699   3.026   3.946  0.1558  0.2348 -0.4818
   89MOL    C8026656   4.592   2.969   4.165 -0.1332 -0.0407  0.1370
   89MOL    O8126657   4.585   2.968   4.287  0.3089  0.6297 -0.2690
   89MOL    O8226658   4.491   2.937   4.087  0.4210  0.1094  0.4636
   89MOL    C8326659   4.364   2.887   4.142  0.6140 -0.0560 -0.4392
   89MOL    H8426660   4.930   2.912   4.078 -0.1711  0.7683 -1.2938
   89MOL    H8526661   4.847   2.912   4.229 -2.1914  3.3491 -0.2990
   89MOL    H8626662   4.616   3.096   3.935 -1.1404 -1.5423 -2.1941
   89MOL    H8726663   4.785   3.065   3.892  1.9139 -2.7558  0.0411
   89MOL    H8826664   4.660   2.941   3.890 -0.6656  0.8505 -0.8438
   89MOL    H8926665   4.372   2.787   4.184  0.2227  0.0721 -0.0457
   89MOL    H9026666   4.292   2.881   4.061  1.4885 -0.0135 -1.2293
   89MOL    H9126667   4.328   2.949   4.224  0.8090 -1.7462  0.9663
   89MOL    C9226668   4.769   3.142   4.170 -0.3992  0.1528  0.3488
   89MOL    C9326669   4.860   3.257   4.116  0.0907  0.5866 -0.3065
   89MOL    C9426670   4.992   3.204   4.057 -0.2891 -0.4134 -0.1766
   89MOL    C9526671   4.785   3.331   4.001 -0.0558 -0.0621 -0.3685
   89MOL    O9626672   4.819   3.320   3.885 -0.4798  0.8121  0.6991
   89MOL    O9726673   4.680   3.395   4.042 -0.2056 -0.2211 -0.1652
   89MOL    C9826674   4.584   3.457   3.957  0.4101 -0.0570  0.3248
   89MOL    H9926675   4.817   3.103   4.260 -1.6395 -0.4394  0.7652
   89MOL   H10026676   4.681   3.196   4.204 -0.7412  0.5486 -1.1423
   89MOL   H10126677   5.053   3.291   4.029 -1.2456 -0.6231 -3.0946
   89MOL   H10226678   5.042   3.145   4.133 -1.0490  1.5138  1.8681
   89MOL   H10326679   4.978   3.151   3.963  1.0969  0.6881 -1.0193
   89MOL   H10426680   4.596   3.420   3.855 -1.5055 -0.7639  0.3268
   89MOL   H10526681   4.601   3.564   3.956  1.6116 -0.2454  0.4103
   89MOL   H10626682   4.477   3.444   3.977 -0.1044  1.4274 -1.3341
   89MOL   C10726683   4.890   3.356   4.239 -0.0990 -0.1466 -0.3433
   89MOL   C10826684   4.982   3.485   4.237 -0.2203  0.5366  0.2781
   89MOL   C10926685   5.125   3.450   4.273 -0.2140  0.4781  0.6026
   89MOL   C11026686   4.983   3.566   4.097  0.0774  0.4298 -0.4655
   89MOL   O11126687   4.890   3.640   4.068  0.3066  0.0510  0.2420
   89MOL   O11226688   5.074   3.518   4.010 -0.7739 -0.3410  0.1635
   89MOL   C11326689   5.070   3.557   3.869  0.4000 -0.3991 -0.2464
   89MOL   H11426690   4.926   3.290   4.318  0.9082  0.7284 -0.0675
   89MOL   H11526691   4.795   3.390   4.280  0.3282 -0.1653  0.6632
   89MOL   H11626692   5.157   3.386   4.190 -2.7260 -2.0897  1.5485
   89MOL   H11726693   5.183   3.542   4.279 -1.4684  1.2851  0.5480
   89MOL   H11826694   5.136   3.413   4.375 -0.2578  0.5811  0.6437
   89MOL   H11926695   5.152   3.511   3.814  0.9432  0.1143  0.1330
   89MOL   H12026696   5.081   3.665   3.857 -0.3314 -0.4032 -1.0832
   89MOL   H12126697   4.976   3.540   3.816  1.2212  0.3542 -1.9947
   89MOL   C12226698   4.939   3.600   4.348  0.0362  0.2677 -0.3713
   89MOL   C12326699   4.939   3.583   4.511  0.0375 -0.0747 -0.2347
   89MOL   C12426700   4.884   3.447   4.546  0.7641  1.1654 -0.6382
   89MOL   C12526701   5.085   3.590   4.556  0.4681  0.2586 -0.3886
   89MOL   O12626702   5.146   3.504   4.617  0.1548 -0.4976 -0.0895
   89MOL   O12726703   5.142   3.705   4.518 -0.1444 -0.3176 -0.6708
   89MOL   C12826704   5.288   3.715   4.540 -0.3007 -0.0526 -0.7918
   89MOL   H12926705   4.835   3.628   4.331 -0.9687 -2.2396  1.3215
   89MOL   H13026706   4.994   3.692   4.327  1.9099 -0.7739 -0.1609
   89MOL   H13126707   4.902   3.411   4.648 -2.4662 -0.8249 -0.6812
   89MOL   H13226708   4.781   3.419   4.522  1.0144 -0.2813 -0.1394
   89MOL   H13326709   4.940   3.373   4.489 -0.7658 -0.6222  0.0863
   89MOL   H13426710   5.322   3.638   4.470 -1.6825  0.4462 -2.0474
   89MOL   H13526711   5.315   3.702   4.644 -1.1936  1.3077 -0.3870
   89MOL   H13626712   5.327   3.810   4.506  1.7039 -0.8549 -0.7888
   89MOL   C13726713   4.857   3.701   4.580 -0.8068 -0.1018 -0.1091
   89MOL   C13826714   4.797   3.701   4.727 -0.0503 -0.5378 -0.6272
   89MOL   C13926715   4.669   3.617   4.738 -0.5577 -0.1085 -0.3958
   89MOL   C14026716   4.912   3.645   4.822  0.3986  0.2932  1.2878
   89MOL   O14126717   5.023   3.692   4.829  0.3687  0.2866  0.3698
   89MOL   O14226718   4.879   3.519   4.873 -0.0396  0.1862  0.0877
   89MOL   C14326719   4.976   3.449   4.943 -0.3428  0.3822  0.3180
   89MOL   H14426720   4.787   3.737   4.505  0.3063 -1.0540 -1.6498
   89MOL   H14526721   4.920   3.790   4.582 -0.1364 -0.5531 -0.7740
   89MOL   H14626722   4.630   3.612   4.839  0.9321 -1.6760  0.1148
   89MOL   H14726723   4.587   3.659   4.679  1.3327 -0.3378 -3.2996
   89MOL   H14826724   4.679   3.514   4.704 -1.9272 -0.3062 -0.1942
   89MOL   H14926725   5.029   3.394   4.866 -1.3959 -1.6068  0.9938
   89MOL   H15026726   4.923   3.376   5.003  0.5034 -0.6379 -0.1574
   89MOL   H15126727   5.044   3.515   4.998  0.4263 -0.9917  1.0475
   89MOL   C15226728   4.763   3.849   4.770 -0.2528  0.0344  0.5170
   89MOL   C15326729   4.698   3.892   4.910 -0.6471 -0.6836  0.3394
   89MOL   C15426730   4.747   3.807   5.031  0.4704  0.2988 -0.7816
   89MOL   C15526731   4.742   4.035   4.926  0.0531 -0.8864  0.4221
   89MOL   O15626732   4.670   4.134   4.892 -0.0205 -0.4118 -0.4359
   89MOL   O15726733   4.872   4.049   4.967 -0.3675 -0.7165  0.4064
   89MOL   C15826734   4.917   4.177   4.959 -0.3134 -0.5619 -0.0867
   89MOL   H15926735   4.696   3.878   4.689  1.8123  0.5290 -1.0674
   89MOL   H16026736   4.851   3.911   4.756 -0.7795  0.5903 -0.3949
   89MOL   H16126737   4.718   3.702   5.025  1.5062 -0.0572  0.3043
   89MOL   H16226738   4.853   3.815   5.054  0.2566  1.7945 -0.2976
   89MOL   H16326739   4.696   3.842   5.121 -1.9104  2.2310 -2.7990
   89MOL   H16426740   5.025   4.193   4.966 -0.0198 -1.9583 -1.2049
   89MOL   H16526741   4.868   4.243   5.031  1.8583  1.1694 -0.1366
   89MOL   H16626742   4.900   4.220   4.861 -1.3604  0.2907  0.4519
   89MOL   C16726743   4.539   3.890   4.894 -0.3837  0.0356 -0.7268
   89MOL   C16826744   4.433   3.899   5.017 -0.2783 -0.0283 -0.3794
   89MOL   C16926745   4.289   3.906   4.954  0.3455 -0.3752 -0.1926
   89MOL   C17026746   4.434   3.776   5.107 -0.1266  0.7516 -0.0044
   89MOL   O17126747   4.423   3.775   5.231  0.2201  0.0308  0.5276
   89MOL   O17226748   4.455   3.658   5.033  0.5328 -0.3836 -0.1050
   89MOL   C17326749   4.439   3.524   5.089 -0.2124  0.3220  0.2606
   89MOL   H17426750   4.503   3.805   4.836  0.7005 -0.4549 -0.6819
   89MOL   H17526751   4.508   3.976   4.835  3.5252  0.5408 -2.1785
   89MOL   H17626752   4.248   4.006   4.959 -0.9851 -0.8454 -1.2823
   89MOL   H17726753   4.270   3.875   4.851  0.0033 -1.0836  0.0821
   89MOL   H17826754   4.216   3.842   5.005 -1.8646 -0.1965 -3.0169
   89MOL   H17926755   4.332   3.524   5.114  0.2401  0.8072  2.3408
   89MOL   H18026756   4.508   3.514   5.173 -1.5630  1.1025  1.4967
   89MOL   H18126757   4.452   3.455   5.006 -4.4800 -0.2957 -0.0234
   89MOL   C18226758   4.461   4.038   5.096 -0.6785 -0.3386 -0.3059
   89MOL   C18326759   4.390   4.088   5.230 -0.3453 -0.1138 -0.4503
   89MOL   C18426760   4.246   4.040   5.223  0.1875  0.3306  0.2509
   89MOL   C18526761   4.459   4.029   5.360  0.1249 -0.2819 -0.1818
   89MOL   O18626762   4.579   3.995   5.364 -0.2912 -0.3370 -0.0705
   89MOL   O18726763   4.372   4.032   5.459  0.4945  0.0076 -0.7025
   89MOL   C18826764   4.408   3.979   5.585 -0.4072  0.5297  0.4137
   89MOL   H18926765   4.451   4.112   5.016 -0.4101  0.5480  0.4822
   89MOL   H19026766   4.567   4.038   5.121 -1.1639 -1.2651  1.8614
   89MOL   H19126767   4.234   3.932   5.229 -1.2928  0.5573  1.7407
   89MOL   H19226768   4.188   4.071   5.309 -2.2600  0.4664 -1.4012
   89MOL   H19326769   4.198   4.086   5.137  1.0920 -1.0268 -1.0073
   89MOL   H19426770   4.449   3.879   5.576 -0.1875  0.4548  2.0632
   89MOL   H19526771   4.317   3.961   5.642 -0.1205 -0.7088  0.4812
   89MOL   H19626772   4.483   4.046   5.628  1.6744 -1.4201 -0.0736
   89MOL   C19726773   4.383   4.241   5.248 -0.0340  0.1692 -0.2386
   89MOL   C19826774   4.503   4.337   5.281  0.1103  0.4096  0.1764
   89MOL   C19926775   4.631   4.292   5.212 -0.3704  1.2179  0.0042
   89MOL   C20026776   4.461   4.476   5.230  0.5972  0.6860  0.4469
   89MOL   O20126777   4.538   4.546   5.160 -0.1817 -0.8049  0.0531
   89MOL   O20226778   4.343   4.516   5.289  0.0863 -0.5509  0.0201
   89MOL   C20326779   4.290   4.648   5.263 -0.2660 -0.1886 -0.0657
   89MOL   H20426780   4.320   4.246   5.337  2.0630 -0.9340  1.3720
   89MOL   H20526781   4.334   4.281   5.160 -0.8764 -2.5126 -1.0374
   89MOL   H20626782   4.712   4.365   5.212 -1.8759  2.9123 -0.6274
   89MOL   H20726783   4.678   4.202   5.252 -1.9333  0.3942  0.0051
   89MOL   H20826784   4.608   4.280   5.106 -3.1365  2.4395  0.4442
   89MOL   H20926785   4.320   4.686   5.165 -0.5621 -1.2318 -0.5734
   89MOL   H21026786   4.323   4.717   5.340  0.1825 -0.3025 -0.1486
   89MOL   H21126787   4.182   4.648   5.276 -0.0993 -2.2458  1.5889
   89MOL   C21226788   4.522   4.353   5.443 -0.2769  0.0807 -0.2000
   89MOL   C21326789   4.650   4.404   5.512  0.5280 -0.2493  0.3909
   89MOL   C21426790   4.750   4.290   5.500  0.1096  0.6946 -0.2553
   89MOL   C21526791   4.711   4.530   5.444 -0.2307  0.2385  0.5131
   89MOL   O21626792   4.824   4.527   5.398  0.4787 -0.1937  0.0311
   89MOL   O21726793   4.635   4.642   5.448  0.5520  0.3232  0.6632
   89MOL   C21826794   4.683   4.762   5.392  0.5294  0.7991 -0.2710
   89MOL   H21926795   4.504   4.252   5.480  1.1261 -0.5490 -1.1915
   89MOL   H22026796   4.439   4.409   5.486 -1.5003 -0.1050 -2.2349
   89MOL   H22126797   4.831   4.298   5.572 -0.8245  0.0276  0.8819
   89MOL   H22226798   4.708   4.192   5.521  0.5531  0.3339 -1.0124
   89MOL   H22326799   4.807   4.289   5.406  1.1725  0.7749  0.3805
   89MOL   H22426800   4.707   4.755   5.285 -0.5842 -2.0871 -0.3785
   89MOL   H22526801   4.773   4.789   5.446 -0.0730  1.3013  0.4851
   89MOL   H22626802   4.613   4.842   5.415  0.7344  1.4180 -1.6872
   89MOL   C22726803   4.614   4.432   5.669 -0.1105 -0.1425  0.0206
   89MOL   C22826804   4.697   4.518   5.772 -0.0550  0.1965 -0.4274
   89MOL   C22926805   4.852   4.498   5.757 -0.4048 -0.0112  0.5837
   89MOL   C23026806   4.657   4.672   5.746 -0.0135  0.6355 -0.0062
   89MOL   O23126807   4.746   4.753   5.716 -0.2089  0.0802 -0.0565
   89MOL   O23226808   4.530   4.697   5.761  0.3581 -0.3853 -0.1299
   89MOL   C23326809   4.473   4.829   5.731  0.0798 -0.0394  0.1727
   89MOL   H23426810   4.617   4.329   5.706  1.4813 -0.0098  0.3231
   89MOL   H23526811   4.508   4.453   5.677  0.1864  0.8511  1.7973
   89MOL   H23626812   4.884   4.546   5.664 -3.3269  1.6245  0.3308
   89MOL   H23726813   4.898   4.546   5.842  0.2974  1.0015 -0.3548
   89MOL   H23826814   4.876   4.392   5.745 -1.5236 -0.0539 -1.6459
   89MOL   H23926815   4.374   4.845   5.775  0.0706 -2.1217  0.9537
   89MOL   H24026816   4.494   4.846   5.626 -2.2196 -0.4469 -0.3872
   89MOL   H24126817   4.534   4.899   5.789  2.0207 -0.5979 -1.1428
   89MOL   C24226818   4.652   4.488   5.918 -0.6164  0.3770 -0.9402
   89MOL   C24326819   4.702   4.360   5.995  0.2309  0.4983 -0.2886
   89MOL   C24426820   4.604   4.371   6.116  0.0737  0.4427  0.3658
   89MOL   C24526821   4.674   4.223   5.929  0.3793 -0.4589 -0.0856
   89MOL   O24626822   4.575   4.150   5.948  0.1142 -0.3060 -0.1345
   89MOL   O24726823   4.775   4.189   5.848 -0.3602 -0.6712  0.6081
   89MOL   C24826824   4.795   4.067   5.786  0.6350 -0.5550  0.2122
   89MOL   H24926825   4.543   4.484   5.906 -0.3822  0.2309 -3.1927
   89MOL   H25026826   4.674   4.578   5.976  0.0162 -0.9043  0.8420
   89MOL   H25126827   4.608   4.289   6.188 -0.6278  0.1837  0.1110
   89MOL   H25226828   4.602   4.470   6.163  0.5808 -0.0971  1.5442
   89MOL   H25326829   4.500   4.361   6.086 -0.6416  3.6738  1.5187
   89MOL   H25426830   4.715   3.993   5.791  1.9558 -1.9662  1.1407
   89MOL   H25526831   4.890   4.036   5.830  1.5357  1.9374  0.0793
   89MOL   H25626832   4.809   4.090   5.680  1.0325  0.0750  0.4002
   89MOL   C25726833   4.853   4.377   6.045 -0.1784 -0.3384 -0.0102
   89MOL   C25826834   4.924   4.310   6.171 -0.1727  0.0674  0.8666
   89MOL   C25926835   4.860   4.358   6.297  0.0220  0.2411 -0.3001
   89MOL   C26026836   4.925   4.153   6.142 -0.4864 -0.1303 -0.0241
   89MOL   O26126837   4.998   4.103   6.059  0.3305  0.0987 -0.0193
   89MOL   O26226838   4.825   4.080   6.210 -0.3933  0.5447 -0.5997
   89MOL   C26326839   4.817   3.946   6.174  0.5439 -0.1388 -0.6347
   89MOL   H26426840   4.889   4.480   6.051  0.5373 -0.6164  0.4643
   89MOL   H26526841   4.914   4.342   5.962 -1.1001 -2.3053  0.1201
   89MOL   H26626842   4.930   4.343   6.379  0.0647  1.0236 -0.1848
   89MOL   H26726843   4.839   4.465   6.287 -1.4690  0.2440  2.2354
   89MOL   H26826844   4.768   4.310   6.332  0.7598  0.4105  1.9432
   89MOL   H26926845   4.720   3.912   6.212 -0.7449  2.1756 -1.7690
   89MOL   H27026846   4.905   3.889   6.203 -0.2625 -1.6912 -1.1461
   89MOL   H27126847   4.824   3.931   6.066  0.6581 -3.0646 -0.2654
   89MOL   C27226848   5.068   4.382   6.171 -0.2240 -0.2151 -0.2579
   89MOL   C27326849   5.183   4.353   6.273  0.7015  0.3568  0.2834
   89MOL   C27426850   5.315   4.388   6.188 -0.4947 -0.9701  0.3162
   89MOL   C27526851   5.172   4.449   6.396 -0.4638  0.0314  0.0068
   89MOL   O27626852   5.090   4.540   6.412 -0.0716  0.1807  0.0181
   89MOL   O27726853   5.275   4.424   6.485 -0.4738 -0.5466  0.1073
   89MOL   C27826854   5.285   4.498   6.605 -0.1527  0.5329  0.4115
   89MOL   H27926855   5.063   4.490   6.160  0.7825  0.1447  2.4145
   89MOL   H28026856   5.107   4.350   6.074 -0.6466 -0.8475 -0.2267
   89MOL   H28126857   5.407   4.404   6.244  0.1607  1.8089 -1.4406
   89MOL   H28226858   5.328   4.325   6.100 -0.9475 -0.6860  0.0390
   89MOL   H28326859   5.299   4.490   6.153  3.1960 -0.5415 -0.2752
   89MOL   H28426860   5.191   4.480   6.657  0.8789 -0.2280  2.0668
   89MOL   H28526861   5.288   4.606   6.595 -1.1355  0.3320 -2.7108
   89MOL   H28626862   5.374   4.462   6.657 -0.2932 -0.9097 -0.3195
   89MOL   C28726863   5.215   4.206   6.307  0.4688  0.0379  0.1469
   89MOL   C28826864   5.126   4.124   6.407 -0.3669 -0.3664  1.0671
   89MOL   C28926865   5.144   3.969   6.375  0.6808 -0.5617 -0.6450
   89MOL   C29026866   5.141   4.159   6.555  0.3226 -0.3506  0.3315
   89MOL   O29126867   5.069   4.242   6.609 -0.3874  0.1849  0.2783
   89MOL   O29226868   5.253   4.111   6.611 -0.3150 -0.3628 -0.3914
   89MOL   C29326869   5.293   4.160   6.735 -0.2863 -0.0607 -0.3745
   89MOL   H29426870   5.309   4.202   6.363 -1.2106  1.0357  3.1691
   89MOL   H29526871   5.235   4.143   6.221  1.9431 -2.1989  2.0520
   89MOL   H29626872   5.133   3.953   6.267  1.8062  1.3361 -1.0599
   89MOL   H29726873   5.235   3.925   6.415  2.7575  2.1629 -2.2275
   89MOL   H29826874   5.062   3.908   6.412 -0.2310 -1.0922 -3.4123
   89MOL   H29926875   5.227   4.131   6.816 -2.5958  2.0714 -1.4264
   89MOL   H30026876   5.306   4.269   6.734  0.1993 -0.1053  0.6109
   89MOL   H30126877   5.385   4.112   6.767 -1.7078 -1.5801  1.5182
   89MOL   H30226878   5.021   4.149   6.391 -0.0905 -1.0921 -2.1742
   90MOL     C126879   6.047   2.157   3.070  0.1709  0.6161  0.2887
   90MOL     C226880   6.023   2.270   2.965 -0.4084 -0.1432  0.2055
   90MOL     C326881   6.156   2.287   2.882 -0.2445 -0.3215  0.3586
   90MOL     C426882   5.913   2.216   2.865  0.0357 -0.5230 -0.5878
   90MOL     O526883   5.924   2.217   2.742  1.1775  0.5944  0.4014
   90MOL     O626884   5.808   2.166   2.927  0.2653  0.1739 -0.0428
   90MOL     C726885   5.710   2.090   2.858  0.2371  0.7118  0.1163
   90MOL     H826886   6.050   2.057   3.025 -0.1781  0.0599  1.4883
   90MOL     H926887   6.141   2.149   3.125  0.6602 -1.0637 -0.7363
   90MOL    H1026888   6.247   2.283   2.942  1.1724  1.4574 -1.5718
   90MOL    H1126889   6.171   2.200   2.818  1.6579  1.4427 -1.7376
   90MOL    H1226890   6.157   2.373   2.814  1.5698  1.1665  2.1846
   90MOL    H1326891   5.628   2.154   2.824  0.6351 -0.0751 -2.4208
   90MOL    H1426892   5.661   2.022   2.928 -1.8623 -1.5603 -3.4197
   90MOL    H1526893   5.754   2.043   2.770  1.3286 -1.3973  1.7275
   90MOL    H1626894   5.961   2.152   3.136  0.0122 -0.2351  0.0245
   90MOL    C1726895   5.982   2.396   3.040 -0.5883  0.5276  0.0509
   90MOL    C1826896   5.894   2.511   2.978  0.7174 -0.3646 -0.5246
   90MOL    C1926897   5.955   2.550   2.841  0.6247 -0.7464  0.0444
   90MOL    C2026898   5.751   2.462   2.961  0.2053 -0.7053  0.4552
   90MOL    O2126899   5.694   2.468   2.852 -0.1619 -0.4877  0.3765
   90MOL    O2226900   5.698   2.407   3.071 -0.1788 -0.6151  0.3949
   90MOL    C2326901   5.559   2.381   3.072  0.3938  0.4522  0.1537
   90MOL    H2426902   6.070   2.436   3.090  0.4649 -3.2217  1.3638
   90MOL    H2526903   5.922   2.354   3.121  2.3652 -1.4465  1.3013
   90MOL    H2626904   5.903   2.631   2.791 -1.1128 -2.3484 -0.7939
   90MOL    H2726905   6.061   2.577   2.845  0.1858  0.9469  0.5819
   90MOL    H2826906   5.960   2.466   2.772  0.5805 -1.7174  1.2016
   90MOL    H2926907   5.552   2.293   3.135  0.7507  0.8254  0.7159
   90MOL    H3026908   5.511   2.356   2.977 -0.7674  1.0456  0.5731
   90MOL    H3126909   5.498   2.457   3.120 -2.6251 -0.9509 -1.2900
   90MOL    C3226910   5.884   2.631   3.084 -0.3374  0.2943 -0.3008
   90MOL    C3326911   5.824   2.779   3.049 -0.0417  0.1250  0.3350
   90MOL    C3426912   5.842   2.859   3.180  0.4007  0.0934  0.0339
   90MOL    C3526913   5.921   2.852   2.953  0.7403  0.6207 -0.4390
   90MOL    O3626914   5.890   2.882   2.837 -0.2363  0.0540  0.2534
   90MOL    O3726915   6.044   2.861   2.996  0.3781 -0.0042  0.0160
   90MOL    C3826916   6.140   2.932   2.927 -0.3223 -0.5617 -0.1063
   90MOL    H3926917   5.987   2.654   3.115 -0.6106  0.2944  0.6268
   90MOL    H4026918   5.840   2.592   3.176  0.0117 -0.8707 -0.6229
   90MOL    H4126919   5.943   2.851   3.219 -0.4308 -2.9775  1.6963
   90MOL    H4226920   5.829   2.966   3.164 -0.9882  0.5489  3.6779
   90MOL    H4326921   5.774   2.815   3.253  0.9307 -1.8834 -0.6325
   90MOL    H4426922   6.225   2.960   2.990 -1.3486  1.1680  0.5534
   90MOL    H4526923   6.104   3.023   2.879  1.0588 -0.1005 -0.3051
   90MOL    H4626924   6.179   2.875   2.843  1.3033 -1.9384  1.5579
   90MOL    C4726925   5.676   2.772   2.992 -0.1309  0.8647  0.3229
   90MOL    C4826926   5.582   2.895   2.993 -0.3344  1.1844 -0.0640
   90MOL    C4926927   5.465   2.845   2.907 -0.0165  0.1042  0.2480
   90MOL    C5026928   5.522   2.915   3.134  0.1636  0.1088 -0.1927
   90MOL    O5126929   5.556   3.005   3.208 -0.1224  0.2459 -0.3810
   90MOL    O5226930   5.454   2.807   3.174 -0.2011 -0.5504 -0.4699
   90MOL    C5326931   5.408   2.800   3.308 -0.3030  0.4009 -0.5508
   90MOL    H5426932   5.631   2.689   3.049  1.0059 -0.1550 -0.2494
   90MOL    H5526933   5.673   2.738   2.889 -1.0330  1.9951 -0.0318
   90MOL    H5626934   5.375   2.900   2.934 -0.0125 -0.7214  1.9797
   90MOL    H5726935   5.479   2.856   2.799  0.4919 -2.1950  0.0581
   90MOL    H5826936   5.428   2.746   2.932 -2.4999  1.0803  0.5454
   90MOL    H5926937   5.327   2.869   3.328  1.5532  2.1821  1.0088
   90MOL    H6026938   5.490   2.809   3.380 -0.7921  0.2163  0.0310
   90MOL    H6126939   5.365   2.700   3.310  1.8471 -0.5430  1.1019
   90MOL    C6226940   5.640   3.033   2.927 -0.2583 -0.1480 -0.5987
   90MOL    C6326941   5.558   3.165   2.891 -0.2469 -0.4352  0.6035
   90MOL    C6426942   5.664   3.281   2.870  0.3207 -0.0161  0.2084
   90MOL    C6526943   5.494   3.139   2.747  0.1264 -0.1771 -0.4889
   90MOL    O6626944   5.371   3.115   2.729  0.7437  0.3341 -0.7052
   90MOL    O6726945   5.578   3.154   2.650 -0.8521  0.4588  0.0272
   90MOL    C6826946   5.535   3.131   2.517  0.0259  0.3299 -0.4041
   90MOL    H6926947   5.701   3.007   2.841  0.2641 -0.1156 -0.2393
   90MOL    H7026948   5.714   3.073   2.996  0.8545 -1.7292 -0.8348
   90MOL    H7126949   5.620   3.374   2.833 -0.8031  0.0599  1.6710
   90MOL    H7226950   5.704   3.304   2.969 -1.2617  2.3481  0.3442
   90MOL    H7326951   5.745   3.242   2.808 -0.4403  0.4341 -1.0906
   90MOL    H7426952   5.512   3.027   2.493  1.9224 -0.0367 -0.7398
   90MOL    H7526953   5.611   3.162   2.445 -0.9342  2.6118 -0.4863
   90MOL    H7626954   5.445   3.188   2.494  0.1857  0.6222 -0.2994
   90MOL    C7726955   5.447   3.212   2.996  0.1694 -0.5589 -0.7509
   90MOL    C7826956   5.336   3.321   3.001 -1.1736  0.4926 -0.1324
   90MOL    C7926957   5.395   3.457   3.056 -0.1432  0.4800  0.0949
   90MOL    C8026958   5.285   3.364   2.862 -0.6897  0.1763  0.3155
   90MOL    O8126959   5.172   3.341   2.814  0.0677 -0.1445  0.2327
   90MOL    O8226960   5.376   3.433   2.788  0.3267 -0.1112 -0.3745
   90MOL    C8326961   5.337   3.482   2.660  0.4691 -0.7975  1.0339
   90MOL    H8426962   5.502   3.214   3.090  0.7905 -0.4982 -1.1083
   90MOL    H8526963   5.392   3.119   3.013 -1.9779  0.8883  0.4300
   90MOL    H8626964   5.426   3.455   3.161 -0.2689 -0.8211  0.1040
   90MOL    H8726965   5.492   3.482   3.013 -1.0574  0.7825 -1.8291
   90MOL    H8826966   5.325   3.539   3.039 -0.6750 -0.6771 -3.5878
   90MOL    H8926967   5.259   3.556   2.680  1.4322 -0.4549  3.6891
   90MOL    H9026968   5.303   3.401   2.595 -2.3292  1.6833 -0.7263
   90MOL    H9126969   5.423   3.529   2.614 -1.2819  0.2524 -1.2732
   90MOL    C9226970   5.216   3.270   3.082  0.0542  0.3433  0.3924
   90MOL    C9326971   5.194   3.275   3.241  0.2440  0.1525  0.1232
   90MOL    C9426972   5.323   3.219   3.323 -0.6775 -0.2628  0.0865
   90MOL    C9526973   5.169   3.423   3.288 -0.1819  0.7493  1.1804
   90MOL    O9626974   5.140   3.515   3.212  0.3025 -0.4586 -0.4488
   90MOL    O9726975   5.180   3.429   3.416  0.2071 -0.0826 -0.1091
   90MOL    C9826976   5.125   3.542   3.482  0.1824  0.3778 -0.1232
   90MOL    H9926977   5.190   3.168   3.055  0.7797 -0.2825  1.9721
   90MOL   H10026978   5.124   3.315   3.047  1.1226  0.0030 -3.0142
   90MOL   H10126979   5.304   3.230   3.430 -0.3791  1.0418  0.0119
   90MOL   H10226980   5.339   3.114   3.298 -2.3434 -1.1655  2.5919
   90MOL   H10326981   5.419   3.267   3.305  0.3671 -1.6868  1.6698
   90MOL   H10426982   5.161   3.629   3.426 -1.4325  1.0369 -0.1703
   90MOL   H10526983   5.168   3.570   3.578 -1.0529 -0.8633  0.8234
   90MOL   H10626984   5.016   3.537   3.491  0.5502 -2.0008  3.9388
   90MOL   C10726985   5.068   3.185   3.284  0.8515  0.0356  0.2316
   90MOL   C10826986   4.917   3.212   3.245 -0.3905 -0.3313  0.1339
   90MOL   C10926987   4.855   3.353   3.288  0.0649 -0.4522 -0.5847
   90MOL   C11026988   4.887   3.200   3.093  0.6538 -0.7360 -0.3147
   90MOL   O11126989   4.816   3.274   3.025  0.5451 -0.1605  0.0822
   90MOL   O11226990   4.951   3.090   3.044  0.2931 -0.0287 -0.1501
   90MOL   C11326991   4.950   3.063   2.905  0.1551  0.2014 -0.2153
   90MOL   H11426992   5.064   3.183   3.392 -1.1409 -0.9280  0.1610
   90MOL   H11526993   5.091   3.080   3.266 -2.2160 -0.6385 -0.0822
   90MOL   H11626994   4.882   3.381   3.389 -1.8264  2.1819 -0.7676
   90MOL   H11726995   4.879   3.433   3.217  0.1085  0.5126  0.5165
   90MOL   H11826996   4.748   3.334   3.298  0.0810 -1.7384 -2.4912
   90MOL   H11926997   5.049   3.039   2.865  0.8131  0.6465  1.1071
   90MOL   H12026998   4.920   3.139   2.833 -1.9107 -0.6853 -0.3053
   90MOL   H12126999   4.886   2.975   2.898  2.5318 -1.5782 -0.2483
   90MOL   C12227000   4.821   3.105   3.313  0.0076  0.2639  0.0359
   90MOL   C12327001   4.830   2.948   3.339  0.4342 -0.4336 -0.2068
   90MOL   C12427002   4.897   2.873   3.219  0.3830  0.1382 -0.1874
   90MOL   C12527003   4.916   2.917   3.467 -0.9697 -0.6127 -0.6225
   90MOL   O12627004   4.975   3.009   3.528  0.3816  0.4394  0.2691
   90MOL   O12727005   4.931   2.784   3.497 -0.0066 -0.2745 -0.0386
   90MOL   C12827006   5.006   2.747   3.605 -0.6289 -0.4014 -0.0326
   90MOL   H12927007   4.736   3.126   3.249 -0.6850 -0.8182  0.5984
   90MOL   H13027008   4.815   3.152   3.411  0.3577  1.2484 -0.3992
   90MOL   H13127009   4.837   2.894   3.131 -1.8619 -0.1339  1.2480
   90MOL   H13227010   5.003   2.893   3.199  0.9500  2.2158  4.3931
   90MOL   H13327011   4.898   2.764   3.230  0.0086  0.0817 -0.7036
   90MOL   H13427012   5.098   2.805   3.614  0.3789 -2.0688  0.5908
   90MOL   H13527013   5.046   2.646   3.598  1.4473  0.4215 -0.4273
   90MOL   H13627014   4.939   2.754   3.690 -0.6540 -1.7273  0.0724
   90MOL   C13727015   4.688   2.891   3.358 -0.0244 -1.1519  0.4139
   90MOL   C13827016   4.591   2.924   3.483  0.1264  0.8046 -0.7761
   90MOL   C13927017   4.637   2.856   3.614 -0.0630  0.3261  0.2939
   90MOL   C14027018   4.576   3.075   3.492  0.5547 -0.7533 -1.0034
   90MOL   O14127019   4.508   3.141   3.421 -0.1058  0.1658  0.8364
   90MOL   O14227020   4.650   3.126   3.592 -0.1296 -0.0146 -0.0188
   90MOL   C14327021   4.676   3.264   3.605 -0.1793 -0.1114  0.0793
   90MOL   H14427022   4.696   2.782   3.358  0.3963 -1.1361  2.1926
   90MOL   H14527023   4.634   2.920   3.268  0.5701 -1.6473 -0.1158
   90MOL   H14627024   4.655   2.753   3.583  0.4145  0.8684 -1.2461
   90MOL   H14727025   4.725   2.899   3.661 -0.0656 -0.6540  1.2205
   90MOL   H14827026   4.556   2.835   3.684 -0.7730 -0.5263 -0.7743
   90MOL   H14927027   4.648   3.324   3.519 -0.3210 -0.4165 -0.0882
   90MOL   H15027028   4.782   3.284   3.624 -0.1727 -0.9170  0.9297
   90MOL   H15127029   4.621   3.302   3.691  0.8180 -0.7769  1.0249
   90MOL   C15227030   4.457   2.861   3.434  0.0318 -0.0182 -0.3266
   90MOL   C15327031   4.325   2.827   3.523  0.5369 -0.4385 -0.9686
   90MOL   C15427032   4.302   2.944   3.621 -0.3113  0.3403  0.7846
   90MOL   C15527033   4.209   2.833   3.420 -0.6223 -0.8227 -0.2388
   90MOL   O15627034   4.120   2.917   3.425  0.5544  0.3671  0.2434
   90MOL   O15727035   4.222   2.750   3.319  0.8495 -0.7717 -0.1710
   90MOL   C15827036   4.108   2.717   3.239  0.2313  0.8235 -0.3348
   90MOL   H15927037   4.480   2.768   3.383  2.3665  0.8547 -0.9379
   90MOL   H16027038   4.434   2.920   3.345  1.9017  1.5906  0.2023
   90MOL   H16127039   4.203   2.929   3.663 -0.1318 -0.9076  0.8003
   90MOL   H16227040   4.374   2.938   3.704  0.7163 -0.9190 -0.1711
   90MOL   H16327041   4.315   3.043   3.579  3.1373 -0.5295 -0.4296
   90MOL   H16427042   4.123   2.666   3.144  0.4539  0.5402 -0.1500
   90MOL   H16527043   4.072   2.811   3.198 -0.0953  0.7602 -0.1915
   90MOL   H16627044   4.027   2.677   3.299  0.3803 -0.0991 -0.7375
   90MOL   C16727045   4.340   2.687   3.581 -1.1487  0.2670 -0.7854
   90MOL   C16827046   4.277   2.630   3.716 -0.0642 -0.1598  0.4822
   90MOL   C16927047   4.329   2.715   3.833  0.5536  0.0891  0.4870
   90MOL   C17027048   4.120   2.653   3.701  0.5332 -0.6604 -0.3307
   90MOL   O17127049   4.053   2.698   3.793 -0.2166 -0.0290  0.5574
   90MOL   O17227050   4.068   2.617   3.584  0.2924  0.5439  0.8687
   90MOL   C17327051   3.929   2.603   3.564 -0.0388 -0.2541  0.2819
   90MOL   H17427052   4.448   2.685   3.597 -1.0490  0.8593 -1.3937
   90MOL   H17527053   4.321   2.616   3.501 -1.0453 -0.2210 -0.3809
   90MOL   H17627054   4.289   2.664   3.921  1.0236 -0.0932  0.5975
   90MOL   H17727055   4.437   2.704   3.841  0.6795  0.1898 -1.0576
   90MOL   H17827056   4.289   2.816   3.833  0.9933  0.2683 -0.9627
   90MOL   H17927057   3.882   2.678   3.627 -0.2747 -0.8342  0.8037
   90MOL   H18027058   3.895   2.507   3.604 -1.3673  0.7329  1.5256
   90MOL   H18127059   3.885   2.621   3.466  0.5036  0.5983  0.1920
   90MOL   C18227060   4.315   2.486   3.756  0.5573 -0.1195 -0.2593
   90MOL   C18327061   4.340   2.378   3.643 -0.3102  0.4327 -0.1638
   90MOL   C18427062   4.220   2.351   3.551 -0.3674 -0.2362  0.0297
   90MOL   C18527063   4.469   2.387   3.555  0.5083 -0.3872 -0.2180
   90MOL   O18627064   4.456   2.366   3.434  0.1559  0.0989  0.1942
   90MOL   O18727065   4.567   2.449   3.610  0.1546 -0.0182  0.2182
   90MOL   C18827066   4.688   2.454   3.530 -0.0375 -0.2341  0.2325
   90MOL   H18927067   4.243   2.446   3.827  1.5507  0.0878  0.8680
   90MOL   H19027068   4.411   2.498   3.805  0.2022  0.0632  0.3873
   90MOL   H19127069   4.125   2.353   3.604 -1.3268  0.8015 -1.6816
   90MOL   H19227070   4.217   2.430   3.476  1.6810  1.6198  1.8163
   90MOL   H19327071   4.229   2.256   3.500 -1.9640 -0.7349  0.6217
   90MOL   H19427072   4.686   2.524   3.446 -0.1642 -1.5242 -0.8594
   90MOL   H19527073   4.711   2.360   3.480  0.8404  0.6778 -1.1368
   90MOL   H19627074   4.777   2.475   3.589  0.2474  2.4107 -1.0245
   90MOL   C19727075   4.346   2.236   3.722  0.7043  0.2963 -0.1103
   90MOL   C19827076   4.454   2.188   3.830 -0.7467  0.1947  0.0962
   90MOL   C19927077   4.596   2.174   3.754  0.0086 -0.2563 -0.4496
   90MOL   C20027078   4.470   2.286   3.951  0.4558 -0.7889 -0.0161
   90MOL   O20127079   4.581   2.340   3.978  0.1165  0.4764 -0.5959
   90MOL   O20227080   4.350   2.312   4.019  0.1683 -0.5377  0.4467
   90MOL   C20327081   4.345   2.416   4.121  0.2845  0.4954  0.2123
   90MOL   H20427082   4.350   2.156   3.648 -0.8936 -0.1145  0.2289
   90MOL   H20527083   4.247   2.232   3.767  0.3173  1.9420 -0.7809
   90MOL   H20627084   4.644   2.272   3.753  0.2039 -0.2468  3.0148
   90MOL   H20727085   4.673   2.117   3.806  1.4716  1.4376 -0.7114
   90MOL   H20827086   4.587   2.144   3.650  1.4144  1.1843 -1.0102
   90MOL   H20927087   4.399   2.501   4.079  2.0917 -1.1995 -1.0072
   90MOL   H21027088   4.392   2.389   4.216  0.9774 -0.5220 -0.4016
   90MOL   H21127089   4.246   2.458   4.133 -0.8459 -1.3608 -2.1376
   90MOL   C21227090   4.409   2.051   3.877  1.2712  0.4406  0.1070
   90MOL   C21327091   4.496   1.955   3.965  0.1059  0.0358 -0.4514
   90MOL   C21427092   4.575   2.030   4.072 -0.1469 -0.0125  0.0377
   90MOL   C21527093   4.393   1.864   4.036  0.2344  0.3168 -0.6237
   90MOL   O21627094   4.373   1.867   4.161  0.0784 -0.2456 -0.4733
   90MOL   O21727095   4.316   1.790   3.955  0.0669 -0.3329 -0.3367
   90MOL   C21827096   4.206   1.713   3.992 -0.0992  0.1274 -0.2759
   90MOL   H21927097   4.385   1.991   3.789  0.5857  0.4465  0.2855
   90MOL   H22027098   4.310   2.060   3.922  1.5368 -1.3583  1.1027
   90MOL   H22127099   4.511   2.098   4.127  0.6097 -1.0837  2.3018
   90MOL   H22227100   4.617   1.964   4.148  1.2732 -0.0585 -0.7733
   90MOL   H22327101   4.656   2.091   4.032  0.7358 -0.4734  1.0900
   90MOL   H22427102   4.173   1.653   3.907 -1.2909  1.2407 -0.6267
   90MOL   H22527103   4.121   1.774   4.025  0.2868  1.4044 -1.6015
   90MOL   H22627104   4.246   1.647   4.069 -1.3655 -1.5810 -1.0607
   90MOL   C22727105   4.589   1.862   3.879 -0.1487  0.0003 -0.5572
   90MOL   C22827106   4.724   1.784   3.935  0.1282  0.0597 -0.1611
   90MOL   C22927107   4.843   1.891   3.925  0.5512  0.3413 -0.0641
   90MOL   C23027108   4.723   1.727   4.075  0.4565  0.5996  0.5728
   90MOL   O23127109   4.806   1.763   4.161  0.1987 -0.5038  0.4175
   90MOL   O23227110   4.618   1.643   4.091  0.5623  0.2919 -0.9197
   90MOL   C23327111   4.593   1.598   4.227  0.1997 -0.1598  0.5167
   90MOL   H23427112   4.618   1.923   3.794 -1.8383  2.3533  0.5025
   90MOL   H23527113   4.523   1.792   3.827  0.5778 -1.5513  0.5549
   90MOL   H23627114   4.943   1.859   3.955  0.0799  0.3344  1.5406
   90MOL   H23727115   4.860   1.918   3.821  0.4268  0.7500  0.0206
   90MOL   H23827116   4.819   1.979   3.985  1.3227 -0.4028  1.3574
   90MOL   H23927117   4.679   1.535   4.246  0.2166 -0.8652 -1.7526
   90MOL   H24027118   4.500   1.542   4.228  0.6931 -0.9890  0.1611
   90MOL   H24127119   4.589   1.684   4.294  2.5377  1.8645 -1.8074
   90MOL   C24227120   4.742   1.668   3.832  0.0538 -0.3314 -0.0785
   90MOL   C24327121   4.849   1.546   3.837 -0.2666 -0.0951 -0.5692
   90MOL   C24427122   4.841   1.479   3.691  0.4139  0.1630  0.7117
   90MOL   C24527123   4.991   1.609   3.859 -0.0930 -0.0865 -0.0419
   90MOL   O24627124   5.064   1.633   3.765  0.0334 -0.1040 -0.1890
   90MOL   O24727125   5.026   1.625   3.992 -0.3613 -0.0485  0.5665
   90MOL   C24827126   5.158   1.677   4.030  0.2499 -0.0137 -0.8098
   90MOL   H24927127   4.759   1.716   3.736 -1.8658  0.4247 -0.0457
   90MOL   H25027128   4.645   1.620   3.823  1.2516 -2.6689 -1.0425
   90MOL   H25127129   4.740   1.449   3.666  0.0081 -0.2599  2.7555
   90MOL   H25227130   4.884   1.534   3.607 -1.0296 -0.3807 -0.3913
   90MOL   H25327131   4.903   1.390   3.680  0.0724 -0.0542  0.5561
   90MOL   H25427132   5.245   1.638   3.977  0.2189  1.2490 -1.7945
   90MOL   H25527133   5.169   1.657   4.137 -1.5528  2.4550 -0.1337
   90MOL   H25627134   5.160   1.785   4.020  0.8295 -0.2075 -2.8681
   90MOL   C25727135   4.809   1.454   3.963  0.2341 -0.1514  0.6717
   90MOL   C25827136   4.836   1.300   3.976 -0.1520 -0.2976  0.6016
   90MOL   C25927137   4.728   1.223   3.900  0.0504  0.2531 -0.0158
   90MOL   C26027138   4.972   1.264   3.909 -0.3149  0.8339  0.5693
   90MOL   O26127139   4.982   1.177   3.822  0.4147 -0.2724 -0.0675
   90MOL   O26227140   5.078   1.323   3.972  0.1478  0.3080 -0.0250
   90MOL   C26327141   5.214   1.294   3.931 -0.4236 -0.5859 -0.4342
   90MOL   H26427142   4.701   1.450   3.969  0.1545  1.0001  0.2045
   90MOL   H26527143   4.838   1.500   4.057  0.0763  0.9320  0.2044
   90MOL   H26627144   4.704   1.269   3.804 -0.9132  0.9307  0.5355
   90MOL   H26727145   4.753   1.121   3.871  1.7381  1.0005 -1.2673
   90MOL   H26827146   4.637   1.223   3.960  0.8877 -1.5443  1.3081
   90MOL   H26927147   5.230   1.187   3.918  0.8438 -0.3139 -1.1621
   90MOL   H27027148   5.285   1.322   4.009 -0.3263  0.8242 -1.0043
   90MOL   H27127149   5.247   1.354   3.846  0.3705 -4.2364 -2.7932
   90MOL   C27227150   4.825   1.264   4.131 -0.5680 -0.0173  0.2250
   90MOL   C27327151   4.838   1.119   4.190 -0.9834  0.3236  0.2639
   90MOL   C27427152   4.741   1.019   4.129  0.2810  0.8098  0.3551
   90MOL   C27527153   4.982   1.070   4.172  0.2190  0.7903 -0.0968
   90MOL   O27627154   5.002   0.967   4.104  0.2069 -0.5438  0.3534
   90MOL   O27727155   5.078   1.140   4.232  0.0410  0.6567 -0.6730
   90MOL   C27827156   5.216   1.105   4.214 -0.4334 -0.0741 -0.3800
   90MOL   H27927157   4.727   1.300   4.163  0.7344  2.7124  1.2742
   90MOL   H28027158   4.898   1.329   4.178 -1.5003  1.8921 -0.9117
   90MOL   H28127159   4.727   0.921   4.174 -1.7973 -0.1130 -2.1233
   90MOL   H28227160   4.647   1.075   4.128 -0.1531  0.0815 -0.0851
   90MOL   H28327161   4.763   0.995   4.025 -2.9936  0.4715 -0.3062
   90MOL   H28427162   5.278   1.192   4.192 -0.6888 -0.3033 -2.1407
   90MOL   H28527163   5.232   1.019   4.149 -0.7665  0.1419 -0.7550
   90MOL   H28627164   5.241   1.082   4.317 -0.0283 -0.9443 -0.6672
   90MOL   C28727165   4.824   1.121   4.346  0.1547 -0.2521 -0.2205
   90MOL   C28827166   4.683   1.140   4.400  0.2551  0.3879  0.5059
   90MOL   C28927167   4.650   1.061   4.522 -0.0022  0.2742  1.0794
   90MOL   C29027168   4.646   1.288   4.423 -0.1142 -0.4399 -0.5609
   90MOL   O29127169   4.551   1.351   4.372  0.4448 -0.3145 -0.2567
   90MOL   O29227170   4.719   1.346   4.519 -0.3200  0.0335  0.4564
   90MOL   C29327171   4.700   1.480   4.568 -0.8012 -0.3419  0.1021
   90MOL   H29427172   4.889   1.197   4.390  0.2588 -0.5420  0.1285
   90MOL   H29527173   4.861   1.025   4.382  1.4336  0.6685  0.9544
   90MOL   H29627174   4.732   1.067   4.594  1.9368  0.1335 -1.0458
   90MOL   H29727175   4.562   1.100   4.573 -2.0891  0.0062 -2.1378
   90MOL   H29827176   4.635   0.957   4.492  3.9967 -0.1105  0.0859
   90MOL   H29927177   4.596   1.496   4.595 -1.0773 -1.1764 -0.4313
   90MOL   H30027178   4.725   1.554   4.493  1.3887 -1.3067 -0.1859
   90MOL   H30127179   4.769   1.492   4.652  1.3988  1.5820 -1.9154
   90MOL   H30227180   4.608   1.113   4.326  1.0803 -1.9247  0.4862
   91MOL     C127181   2.769   4.132   5.059 -0.6863 -1.1614 -0.6340
   91MOL     C227182   2.796   4.273   5.001  0.2696  0.1894  0.1715
   91MOL     C327183   2.924   4.272   4.927 -0.6276  0.5428  0.0647
   91MOL     C427184   2.677   4.305   4.903  0.6005  0.1728  0.4189
   91MOL     O527185   2.581   4.232   4.886  0.3443 -0.0860  0.4205
   91MOL     O627186   2.697   4.419   4.836  0.4760  0.1967  0.9211
   91MOL     C727187   2.583   4.478   4.768  0.2150  0.3887  0.9175
   91MOL     H827188   2.853   4.117   5.128 -1.3016 -2.4549 -0.1475
   91MOL     H927189   2.672   4.126   5.108 -1.2637 -2.2651 -1.8865
   91MOL    H1027190   2.929   4.193   4.852  0.9903  0.3819  0.3305
   91MOL    H1127191   2.942   4.375   4.898 -1.9325  0.4094 -1.2754
   91MOL    H1227192   3.007   4.256   4.996 -1.1209 -1.7207  0.1685
   91MOL    H1327193   2.545   4.400   4.702 -2.4395  1.7301  0.7957
   91MOL    H1427194   2.602   4.571   4.715 -1.2131 -0.0539 -0.4057
   91MOL    H1527195   2.496   4.488   4.834 -0.2589 -2.7994  0.8600
   91MOL    H1627196   2.762   4.061   4.977 -0.2894 -1.7268 -0.1825
   91MOL    C1727197   2.810   4.378   5.120 -0.1672 -0.4746  0.6898
   91MOL    C1827198   2.715   4.402   5.242  0.1539  0.5943  0.3228
   91MOL    C1927199   2.567   4.395   5.189  0.1130 -0.2596  0.3104
   91MOL    C2027200   2.739   4.280   5.347 -0.7525  0.3354 -0.3779
   91MOL    O2127201   2.841   4.209   5.348  0.5149 -0.8482  0.0646
   91MOL    O2227202   2.647   4.268   5.440 -0.4794 -0.8374 -0.0587
   91MOL    C2327203   2.650   4.183   5.547  0.1234  0.5276 -1.2007
   91MOL    H2427204   2.817   4.477   5.077 -0.2030  0.8683  3.6482
   91MOL    H2527205   2.909   4.371   5.164 -0.4329  0.0195  1.3762
   91MOL    H2627206   2.495   4.401   5.270 -0.0646 -0.1715  0.1469
   91MOL    H2727207   2.538   4.482   5.129 -1.0191 -0.0149  1.1931
   91MOL    H2827208   2.537   4.306   5.135  0.3799  0.3957 -0.9406
   91MOL    H2927209   2.733   4.212   5.611 -0.3783  1.3316 -0.9171
   91MOL    H3027210   2.653   4.081   5.506 -1.3792  0.2609 -0.6823
   91MOL    H3127211   2.558   4.191   5.605  2.4727 -0.4334  2.8635
   91MOL    C3227212   2.747   4.549   5.297 -0.2219  0.3840 -0.5960
   91MOL    C3327213   2.892   4.599   5.343  0.1051  0.3842 -0.3827
   91MOL    C3427214   2.957   4.494   5.430  0.4202  0.0205  0.3054
   91MOL    C3527215   2.993   4.622   5.227  0.9059  0.5398  0.6224
   91MOL    O3627216   3.110   4.600   5.230  0.1643 -0.7100 -0.0276
   91MOL    O3727217   2.929   4.675   5.115 -0.1118  0.3632 -0.3718
   91MOL    C3827218   2.997   4.684   4.989  0.1203  0.1022 -1.0640
   91MOL    H3927219   2.676   4.549   5.380  2.2422  1.0197  1.5513
   91MOL    H4027220   2.705   4.629   5.236 -2.0923  2.1356  2.8161
   91MOL    H4127221   3.028   4.548   5.493  0.8598  0.0842 -0.2387
   91MOL    H4227222   2.902   4.448   5.512 -0.1144  1.5767  0.8310
   91MOL    H4327223   3.014   4.419   5.374  2.1172  0.2398  1.6801
   91MOL    H4427224   3.039   4.584   4.972 -1.1515 -0.1635 -2.7839
   91MOL    H4527225   3.086   4.747   4.980  0.5056 -0.6431 -2.7228
   91MOL    H4627226   2.935   4.722   4.909 -0.3690  2.6205  0.4536
   91MOL    C4727227   2.885   4.723   5.437 -0.0404  0.0437 -0.0032
   91MOL    C4827228   2.790   4.847   5.414 -0.9383  0.2591  0.0105
   91MOL    C4927229   2.640   4.820   5.456  0.1226 -0.7335 -0.0211
   91MOL    C5027230   2.830   4.956   5.518 -0.0549 -0.4799  0.1638
   91MOL    O5127231   2.777   4.963   5.630  0.3063 -0.0556 -0.2189
   91MOL    O5227232   2.921   5.043   5.474  0.0706  0.5444  0.3189
   91MOL    C5327233   2.955   5.146   5.568 -0.4630  0.4033 -0.3476
   91MOL    H5427234   2.989   4.750   5.454 -0.5048  0.7614  1.8354
   91MOL    H5527235   2.856   4.671   5.528 -0.4058 -2.5831 -1.5632
   91MOL    H5627236   2.572   4.905   5.466 -1.4748 -1.6886 -2.3046
   91MOL    H5727237   2.584   4.762   5.382  0.6897 -3.9215  1.9963
   91MOL    H5827238   2.627   4.770   5.552  0.2959 -0.4219  0.1650
   91MOL    H5927239   3.059   5.177   5.559  0.0193 -1.2456 -0.6350
   91MOL    H6027240   2.937   5.123   5.673 -2.5390 -1.0647 -0.9946
   91MOL    H6127241   2.909   5.243   5.549 -0.2862  0.9987  2.1168
   91MOL    C6227242   2.795   4.908   5.276 -0.9181 -0.6538 -0.0801
   91MOL    C6327243   2.696   5.017   5.209  1.4956 -0.1705  0.3742
   91MOL    C6427244   2.688   5.132   5.305 -0.4091 -0.0659 -0.3183
   91MOL    C6527245   2.776   5.069   5.088  0.6565  0.6092 -0.2483
   91MOL    O6627246   2.842   5.002   5.007 -0.0169  0.4307  0.4300
   91MOL    O6727247   2.767   5.206   5.069 -0.1816 -0.0343 -0.4009
   91MOL    C6827248   2.860   5.278   4.996 -1.1951 -0.6505 -0.0636
   91MOL    H6927249   2.779   4.823   5.209 -2.0060 -1.7554  1.5251
   91MOL    H7027250   2.900   4.928   5.256 -1.0427  0.0293 -0.0539
   91MOL    H7127251   2.643   5.100   5.399 -0.5244  0.1162 -0.3090
   91MOL    H7227252   2.783   5.179   5.330 -1.5361  1.8444  0.5943
   91MOL    H7327253   2.624   5.212   5.267  0.4057  0.5657 -0.3665
   91MOL    H7427254   2.887   5.376   5.036 -1.0834 -0.4017 -0.7427
   91MOL    H7527255   2.827   5.286   4.892  0.4734 -0.7957 -0.6128
   91MOL    H7627256   2.953   5.224   4.989  0.0274  1.2927  0.6258
   91MOL    C7727257   2.559   4.945   5.174  0.4222 -0.0279  0.0324
   91MOL    C7827258   2.456   4.999   5.067 -0.4245 -0.0566  0.3430
   91MOL    C7927259   2.430   5.149   5.080  0.4391  0.3804  0.5776
   91MOL    C8027260   2.509   4.973   4.925  0.0731  0.5290 -0.5938
   91MOL    O8127261   2.487   5.051   4.832  0.2340  0.0922 -0.2286
   91MOL    O8227262   2.559   4.850   4.899 -0.2671  0.0224  0.3862
   91MOL    C8327263   2.639   4.841   4.783 -0.3268  0.2611 -0.3632
   91MOL    H8427264   2.496   4.947   5.263  0.0159  0.1499 -0.2564
   91MOL    H8527265   2.575   4.838   5.164  0.3521  0.0014 -0.4322
   91MOL    H8627266   2.357   5.177   5.004  0.1000  0.2402  0.8519
   91MOL    H8727267   2.385   5.184   5.172 -0.8145  0.4623 -0.0487
   91MOL    H8827268   2.513   5.219   5.070 -1.1451  2.2563  0.2258
   91MOL    H8927269   2.693   4.746   4.788 -1.7001 -0.4355  2.3843
   91MOL    H9027270   2.719   4.914   4.777  1.4857 -1.5261  1.2336
   91MOL    H9127271   2.583   4.841   4.689  0.4606 -3.8235 -0.9513
   91MOL    C9227272   2.308   4.941   5.065  1.1540 -1.0052 -0.0387
   91MOL    C9327273   2.262   4.793   5.099  0.5522  0.3887 -0.1433
   91MOL    C9427274   2.345   4.685   5.025 -0.6260 -0.3400 -0.2346
   91MOL    C9527275   2.279   4.769   5.257 -0.5592 -0.2578 -0.3603
   91MOL    O9627276   2.342   4.673   5.300 -0.3772  0.0741 -0.3071
   91MOL    O9727277   2.209   4.853   5.332 -0.7157  0.3318 -0.1316
   91MOL    C9827278   2.177   4.819   5.464 -0.1509 -0.0075 -0.3043
   91MOL    H9927279   2.261   4.971   4.971 -0.1316 -1.1673  0.5445
   91MOL   H10027280   2.265   5.008   5.139 -0.6661 -1.8323 -0.3032
   91MOL   H10127281   2.342   4.688   4.916 -0.0834 -1.3066 -0.2799
   91MOL   H10227282   2.448   4.705   5.053 -1.6091  2.3792  1.6172
   91MOL   H10327283   2.319   4.583   5.054 -2.7410  0.4782  0.8723
   91MOL   H10427284   2.117   4.729   5.476  1.6969 -1.2298 -0.1004
   91MOL   H10527285   2.111   4.900   5.495 -2.5363 -1.0313 -2.5296
   91MOL   H10627286   2.261   4.807   5.533 -0.5246  1.5018  0.4503
   91MOL   C10727287   2.112   4.781   5.062  0.0322 -0.3670  0.8009
   91MOL   C10827288   2.013   4.661   5.096  0.0842 -0.4977  0.3608
   91MOL   C10927289   2.082   4.525   5.119  0.5638 -0.3263  0.2187
   91MOL   C11027290   1.934   4.699   5.225 -0.5451  0.2170 -0.7106
   91MOL   O11127291   1.938   4.632   5.324 -0.2352 -0.4346 -0.1484
   91MOL   O11227292   1.869   4.809   5.207 -0.1621 -0.4312  0.2741
   91MOL   C11327293   1.802   4.875   5.309 -0.5618 -0.3663  0.5364
   91MOL   H11427294   2.119   4.788   4.953 -0.5228 -0.0476  0.7829
   91MOL   H11527295   2.072   4.871   5.108 -0.5357  0.4883 -1.3166
   91MOL   H11627296   2.169   4.515   5.184  1.3091 -0.8765 -0.8616
   91MOL   H11727297   2.021   4.444   5.160  0.9681 -0.5523  0.3838
   91MOL   H11827298   2.121   4.484   5.026 -1.4233 -0.1804 -0.7021
   91MOL   H11927299   1.851   4.969   5.335 -0.2256 -0.4157  0.0850
   91MOL   H12027300   1.798   4.815   5.400  1.6617 -1.5008 -0.0901
   91MOL   H12127301   1.698   4.890   5.282 -0.0942 -0.6481 -1.4709
   91MOL   C12227302   1.907   4.649   4.980 -0.3617  0.2915  0.7055
   91MOL   C12327303   1.780   4.556   4.957 -0.1531  0.4204 -0.8110
   91MOL   C12427304   1.823   4.410   4.923 -0.2243 -0.2806 -0.3634
   91MOL   C12527305   1.692   4.546   5.089 -0.5768  0.2658 -0.2069
   91MOL   O12627306   1.690   4.451   5.167 -0.4077 -0.1433 -0.2950
   91MOL   O12727307   1.622   4.665   5.117  0.0615  0.1232 -0.0708
   91MOL   C12827308   1.502   4.659   5.206 -0.5894  0.6774 -0.1684
   91MOL   H12927309   1.964   4.624   4.890 -1.8623  0.8898 -0.4454
   91MOL   H13027310   1.881   4.752   4.953  0.5301  0.2123 -0.5210
   91MOL   H13127311   1.869   4.358   5.008 -2.7882  0.1111  1.3238
   91MOL   H13227312   1.733   4.352   4.902 -0.1654  0.0057 -1.4438
   91MOL   H13327313   1.891   4.412   4.838 -0.9422  2.3081 -0.9160
   91MOL   H13427314   1.431   4.578   5.192 -2.5815  2.5353 -1.1662
   91MOL   H13527315   1.446   4.753   5.208 -2.8864 -0.6930  1.0778
   91MOL   H13627316   1.537   4.635   5.306 -2.1254 -0.7013  0.0526
   91MOL   C13727317   1.698   4.632   4.840  0.0316 -0.1809  0.4101
   91MOL   C13827318   1.569   4.580   4.763  0.1804 -0.0196 -0.2748
   91MOL   C13927319   1.491   4.708   4.718  0.0000 -0.0114  0.3869
   91MOL   C14027320   1.614   4.494   4.639 -0.0490  1.1439  0.5216
   91MOL   O14127321   1.591   4.527   4.524  0.5626  0.5400  1.1344
   91MOL   O14227322   1.679   4.377   4.668 -0.3962 -0.0360  0.3409
   91MOL   C14327323   1.731   4.299   4.557 -0.2742  0.1652 -0.0859
   91MOL   H14427324   1.765   4.666   4.761  0.9415 -1.2035  0.7261
   91MOL   H14527325   1.661   4.723   4.888  1.6421  0.0441  1.2435
   91MOL   H14627326   1.566   4.785   4.698 -0.0356 -0.0976 -0.0885
   91MOL   H14727327   1.431   4.689   4.629 -0.0601  0.0861  0.4067
   91MOL   H14827328   1.428   4.747   4.798 -0.9843 -2.3494  0.7861
   91MOL   H14927329   1.661   4.298   4.473  0.3581 -0.4119 -0.6208
   91MOL   H15027330   1.737   4.195   4.589 -2.0273 -0.1477 -0.7191
   91MOL   H15127331   1.830   4.329   4.521 -0.5463 -0.0977 -1.0816
   91MOL   C15227332   1.469   4.507   4.861 -0.8888 -0.6379  0.5695
   91MOL   C15327333   1.336   4.430   4.815  0.1178  0.0562  0.6624
   91MOL   C15427334   1.241   4.523   4.743  0.0991  0.1079  0.7191
   91MOL   C15527335   1.363   4.306   4.730  0.2133 -0.0223 -0.1250
   91MOL   O15627336   1.323   4.300   4.612  0.1378  0.2988 -0.6646
   91MOL   O15727337   1.439   4.209   4.790 -0.2410 -0.1690  0.7142
   91MOL   C15827338   1.480   4.098   4.715  0.1505  0.5157  0.8305
   91MOL   H15927339   1.451   4.587   4.933 -1.1755  1.0386 -1.3290
   91MOL   H16027340   1.536   4.436   4.910  1.0651  1.6570  1.3338
   91MOL   H16127341   1.142   4.480   4.731 -0.0465  0.2686  1.3654
   91MOL   H16227342   1.232   4.624   4.784  0.2821  1.2085 -1.8338
   91MOL   H16327343   1.270   4.548   4.640  1.0464  0.2318  1.0139
   91MOL   H16427344   1.395   4.032   4.703  0.1135  0.4233  1.5894
   91MOL   H16527345   1.560   4.053   4.775  1.9271  1.9528 -0.3921
   91MOL   H16627346   1.514   4.129   4.616  2.5196 -0.6764  1.2259
   91MOL   C16727347   1.269   4.384   4.950 -0.5178  0.4177 -0.5639
   91MOL   C16827348   1.127   4.324   4.985  0.2439 -0.1103  0.3716
   91MOL   C16927349   1.038   4.442   5.031 -0.3051 -0.3696 -0.2202
   91MOL   C17027350   1.053   4.259   4.864 -0.2362 -0.0020 -0.4420
   91MOL   O17127351   0.950   4.299   4.814  0.0340  0.3961  0.5281
   91MOL   O17227352   1.113   4.145   4.827  0.4992  0.0236 -0.1187
   91MOL   C17327353   1.052   4.057   4.731 -0.1545  0.0078 -0.1527
   91MOL   H17427354   1.290   4.459   5.026  0.4948 -1.1181  0.6987
   91MOL   H17527355   1.338   4.309   4.988 -0.7461  1.3732  1.8286
   91MOL   H17627356   1.048   4.529   4.965 -2.3983 -0.1454 -0.2768
   91MOL   H17727357   0.936   4.405   5.036 -0.2326 -0.6733 -0.8815
   91MOL   H17827358   1.065   4.475   5.131  2.5352 -1.5132 -0.5651
   91MOL   H17927359   1.124   3.985   4.692 -0.3631 -0.6112  0.5886
   91MOL   H18027360   0.996   4.100   4.648 -0.5767  0.8660  0.5750
   91MOL   H18127361   0.978   4.002   4.789  1.3399 -0.0664  1.7690
   91MOL   C18227362   1.144   4.209   5.096 -0.6184  0.4790  0.8416
   91MOL   C18327363   1.167   4.235   5.254  0.4726  0.0305 -0.0318
   91MOL   C18427364   1.285   4.321   5.275  0.2166  0.5389 -0.3226
   91MOL   C18527365   1.038   4.292   5.319  0.3891  0.7929  0.6944
   91MOL   O18627366   1.044   4.398   5.377  0.7245 -0.1392  0.2568
   91MOL   O18727367   0.931   4.216   5.309 -0.1732  0.2116 -0.6746
   91MOL   C18827368   0.806   4.277   5.341 -0.1444  0.6755 -0.1926
   91MOL   H18927369   1.223   4.139   5.068  0.7436  2.6188 -0.8052
   91MOL   H19027370   1.059   4.141   5.087 -3.0122  3.5612 -0.9568
   91MOL   H19127371   1.299   4.321   5.383  1.5305  0.3365 -0.4892
   91MOL   H19227372   1.375   4.291   5.222  0.5670  1.9338 -0.5334
   91MOL   H19327373   1.261   4.423   5.246 -1.4523  0.1927 -0.2087
   91MOL   H19427374   0.778   4.360   5.275 -1.7207  0.6128  0.3583
   91MOL   H19527375   0.797   4.307   5.446 -0.8455  0.5703 -0.2184
   91MOL   H19627376   0.732   4.198   5.330 -2.5159  2.4842  2.0043
   91MOL   C19727377   1.204   4.086   5.317  0.2439 -0.3840  0.3009
   91MOL   C19827378   1.260   4.056   5.457 -0.4458  0.0144  0.1791
   91MOL   C19927379   1.408   4.077   5.450  0.1751 -0.4623 -0.2855
   91MOL   C20027380   1.192   4.147   5.560 -0.7221 -0.8893 -0.2934
   91MOL   O20127381   1.254   4.236   5.621 -0.4826 -0.1547 -0.5225
   91MOL   O20227382   1.054   4.126   5.569  0.7242  0.2724 -0.0978
   91MOL   C20327383   0.983   4.211   5.660  0.0148  0.2089  0.3259
   91MOL   H20427384   1.252   4.023   5.242 -0.6436 -0.0341 -0.5714
   91MOL   H20527385   1.103   4.046   5.315 -0.0068  0.2885 -2.2195
   91MOL   H20627386   1.434   4.076   5.556  2.8925 -2.7811 -0.9025
   91MOL   H20727387   1.459   3.994   5.400  0.7590 -1.1025  1.3258
   91MOL   H20827388   1.444   4.174   5.415  2.0581 -0.5455  1.3171
   91MOL   H20927389   0.990   4.318   5.640 -1.9144  0.4112  0.6039
   91MOL   H21027390   1.015   4.193   5.762 -0.6855  1.2925  0.7569
   91MOL   H21127391   0.878   4.183   5.657  0.0735 -0.0585  0.7892
   91MOL   C21227392   1.220   3.906   5.489 -0.0004  0.0474 -0.0775
   91MOL   C21327393   1.281   3.814   5.600  0.1915  0.3331 -0.2879
   91MOL   C21427394   1.423   3.775   5.565 -0.8442  1.1162  0.1097
   91MOL   C21527395   1.285   3.893   5.736 -0.0577 -0.0512 -0.0466
   91MOL   O21627396   1.388   3.927   5.788  0.6552  0.4446 -0.4990
   91MOL   O21727397   1.160   3.917   5.789 -0.2247  0.7548  0.8702
   91MOL   C21827398   1.152   4.014   5.891  0.2907 -0.1835  0.3899
   91MOL   H21927399   1.254   3.867   5.393 -0.3985 -0.7155  0.0923
   91MOL   H22027400   1.112   3.913   5.481 -0.1558 -2.3619 -0.4683
   91MOL   H22127401   1.460   3.686   5.617  1.4879  0.6411 -2.2766
   91MOL   H22227402   1.441   3.741   5.463 -3.0278 -0.8891  0.3324
   91MOL   H22327403   1.501   3.847   5.585  1.4490 -1.2449 -0.0498
   91MOL   H22427404   1.045   4.033   5.899  0.4214  0.0722  1.5185
   91MOL   H22527405   1.195   4.102   5.844  2.4116 -1.3690  0.0486
   91MOL   H22627406   1.200   3.986   5.984 -3.6916  0.6542  2.8145
   91MOL   C22727407   1.185   3.693   5.620 -0.4633 -0.4122  0.9209
   91MOL   C22827408   1.194   3.557   5.534 -0.3243 -0.8615 -0.0370
   91MOL   C22927409   1.228   3.587   5.387 -0.2233  0.5761  0.2929
   91MOL   C23027410   1.300   3.467   5.608  0.3745 -0.5778  0.1210
   91MOL   O23127411   1.405   3.447   5.555 -0.3630 -0.0844  0.1350
   91MOL   O23227412   1.254   3.417   5.725 -0.2244  0.7725 -0.4541
   91MOL   C23327413   1.339   3.325   5.797 -0.5705  0.3079 -0.1091
   91MOL   H23427414   1.086   3.739   5.621 -0.9005 -1.2886 -0.0499
   91MOL   H23527415   1.207   3.669   5.724 -1.0401  1.2508  1.4317
   91MOL   H23627416   1.313   3.648   5.356  0.3112 -1.1007 -1.6979
   91MOL   H23727417   1.255   3.492   5.339  0.0448  1.2945 -0.9888
   91MOL   H23827418   1.140   3.641   5.352 -0.3361 -0.0332 -0.3848
   91MOL   H23927419   1.357   3.235   5.739 -1.3502 -1.4533  2.3022
   91MOL   H24027420   1.289   3.298   5.890 -0.3984 -0.7789 -0.3214
   91MOL   H24127421   1.429   3.375   5.831  0.4023 -1.0300 -0.6783
   91MOL   C24227422   1.047   3.499   5.540  0.0520  0.3017 -0.8549
   91MOL   C24327423   1.006   3.358   5.465  0.0726 -0.0465 -0.0333
   91MOL   C24427424   1.113   3.251   5.484 -0.4048  0.3217  0.1689
   91MOL   C24527425   0.878   3.308   5.536  0.8937 -0.0432 -0.2242
   91MOL   O24627426   0.874   3.202   5.592  0.3923  0.6086  0.1606
   91MOL   O24727427   0.772   3.401   5.526 -0.0210  0.1322  0.3974
   91MOL   C24827428   0.642   3.387   5.575 -0.1841  0.1374  0.6413
   91MOL   H24927429   0.978   3.573   5.497 -0.6330  0.5333  0.6175
   91MOL   H25027430   1.012   3.496   5.643  0.1277  1.5098 -0.7897
   91MOL   H25127431   1.156   3.240   5.584 -2.0068 -4.0762  0.4994
   91MOL   H25227432   1.078   3.148   5.471  0.2577 -0.0748  1.3683
   91MOL   H25327433   1.195   3.266   5.414 -1.6784  0.6584 -1.2774
   91MOL   H25427434   0.584   3.479   5.568 -0.5051  0.0603  2.1260
   91MOL   H25527435   0.651   3.365   5.682 -0.8209 -3.3911  0.0321
   91MOL   H25627436   0.592   3.303   5.526  1.1239 -0.2960  0.0280
   91MOL   C25727437   0.985   3.385   5.308 -0.0639 -0.3582  0.5066
   91MOL   C25827438   0.898   3.301   5.214 -0.0861  0.2192  0.3136
   91MOL   C25927439   0.926   3.151   5.230  0.3613  0.5763 -0.5641
   91MOL   C26027440   0.743   3.326   5.237 -0.0841  0.4212  0.4741
   91MOL   O26127441   0.656   3.238   5.237 -0.8760  0.4212  0.0909
   91MOL   O26227442   0.708   3.457   5.246 -0.0638 -0.2806 -0.7630
   91MOL   C26327443   0.580   3.505   5.246 -0.3566 -0.1990 -0.1463
   91MOL   H26427444   1.082   3.388   5.259 -1.0608  0.3105 -1.4761
   91MOL   H26527445   0.953   3.488   5.294 -1.5369 -0.8837 -0.1356
   91MOL   H26627446   0.889   3.078   5.158  1.5710  0.6885 -1.3019
   91MOL   H26727447   1.034   3.145   5.241 -0.0182  1.0580  4.4935
   91MOL   H26827448   0.884   3.127   5.327 -1.0411 -0.4879 -1.4153
   91MOL   H26927449   0.555   3.566   5.333 -2.7625 -0.9079 -0.3117
   91MOL   H27027450   0.503   3.429   5.233  0.5585 -1.0675 -0.5412
   91MOL   H27127451   0.565   3.572   5.162 -0.4836  0.3355  0.3043
   91MOL   C27227452   0.936   3.331   5.065  0.6721  0.6445  0.2033
   91MOL   C27327453   0.910   3.459   4.978 -0.2375  0.1561 -0.1973
   91MOL   C27427454   1.006   3.445   4.854  1.0544 -0.0799 -0.0552
   91MOL   C27527455   0.763   3.465   4.931  0.1983  0.0487  0.1605
   91MOL   O27627456   0.702   3.571   4.938  0.4261 -0.7318  0.3413
   91MOL   O27727457   0.714   3.348   4.888 -0.3952  0.2910  0.4718
   91MOL   C27827458   0.591   3.343   4.823 -0.4013 -0.0154 -0.5916
   91MOL   H27927459   0.912   3.242   5.007 -1.0396  1.4291 -0.3107
   91MOL   H28027460   1.045   3.323   5.057  0.6892  0.4753  0.5938
   91MOL   H28127461   0.988   3.346   4.811  1.3384 -0.3570  0.4662
   91MOL   H28227462   0.976   3.513   4.775  1.1806  0.4514  0.3558
   91MOL   H28327463   1.112   3.463   4.871  1.3957 -0.6917 -1.4925
   91MOL   H28427464   0.620   3.342   4.718  2.8600 -0.1634  0.2578
   91MOL   H28527465   0.521   3.426   4.834  0.7005  0.5995  2.2717
   91MOL   H28627466   0.537   3.251   4.848  0.4929 -0.3463  0.1827
   91MOL   C28727467   0.945   3.589   5.053  0.3644 -0.2171 -0.8547
   91MOL   C28827468   0.953   3.728   4.976  0.3337 -0.4700  0.0182
   91MOL   C28927469   0.889   3.846   5.042  0.4062  0.5948  0.5816
   91MOL   C29027470   1.098   3.760   4.931  0.2991  0.2616 -0.0612
   91MOL   O29127471   1.135   3.739   4.816  0.4204 -0.2630 -0.1722
   91MOL   O29227472   1.176   3.812   5.028  0.0506 -0.3574  0.6184
   91MOL   C29327473   1.303   3.860   4.996  0.1870 -0.8005 -0.0050
   91MOL   H29427474   1.035   3.577   5.114 -0.2588  0.5701  0.2282
   91MOL   H29527475   0.870   3.600   5.131  0.2361 -3.8803 -0.3990
   91MOL   H29627476   0.930   3.885   5.136  0.1912  1.3958  0.3492
   91MOL   H29727477   0.900   3.934   4.979  0.0933  0.8756  0.9133
   91MOL   H29827478   0.784   3.820   5.053  0.3497  0.0858 -1.0665
   91MOL   H29927479   1.362   3.906   5.076 -1.3191 -1.4989  1.5331
   91MOL   H30027480   1.276   3.955   4.949 -0.6985 -1.2592 -0.4266
   91MOL   H30127481   1.368   3.796   4.937  0.8652  1.0753 -1.3790
   91MOL   H30227482   0.902   3.712   4.880 -3.5124 -1.6185  2.1604
   92MOL     C127483   2.143   3.965   5.257  0.4085 -0.3424  0.4615
   92MOL     C227484   2.131   4.042   5.385 -0.0606  0.2086  0.0860
   92MOL     C327485   2.264   4.023   5.472  0.3941  0.2976  0.1396
   92MOL     C427486   2.126   4.189   5.351 -0.8528  0.3626  0.1811
   92MOL     O527487   2.128   4.236   5.235 -0.1769 -0.2490 -0.2085
   92MOL     O627488   2.123   4.267   5.466 -0.3242  0.0961 -0.4090
   92MOL     C727489   2.092   4.404   5.451  0.2027  0.0891 -0.8110
   92MOL     H827490   2.240   3.986   5.213 -0.5915  3.6874 -0.0490
   92MOL     H927491   2.128   3.858   5.276 -1.7309 -0.0976  0.2968
   92MOL    H1027492   2.234   4.057   5.571  1.8553 -0.5296  0.8842
   92MOL    H1127493   2.284   3.917   5.490 -1.8191 -0.1891 -0.0193
   92MOL    H1227494   2.351   4.077   5.435  0.3749 -0.9731 -1.8397
   92MOL    H1327495   2.172   4.471   5.420 -0.3950  1.3005  0.2223
   92MOL    H1427496   2.059   4.438   5.549  0.1783 -0.8566 -0.4829
   92MOL    H1527497   2.014   4.429   5.379 -1.9336 -0.4835  1.2701
   92MOL    H1627498   2.072   4.000   5.182  0.7816 -0.2097  0.1746
   92MOL    C1727499   2.011   4.007   5.472 -0.0068 -0.1068 -0.9572
   92MOL    C1827500   1.852   4.033   5.440  0.3474 -0.2962 -0.8174
   92MOL    C1927501   1.809   4.143   5.338 -0.5097  1.0377  0.1920
   92MOL    C2027502   1.800   3.900   5.370 -0.3164  0.3943 -1.0243
   92MOL    O2127503   1.758   3.894   5.256  0.2961 -0.0047 -0.3347
   92MOL    O2227504   1.809   3.802   5.457 -0.0793  0.0854 -0.4897
   92MOL    C2327505   1.762   3.675   5.426 -0.1181 -0.1862  0.4488
   92MOL    H2427506   2.028   4.047   5.571 -1.5730 -0.8477 -0.3711
   92MOL    H2527507   2.025   3.899   5.480  0.8844  0.0679  0.0172
   92MOL    H2627508   1.855   4.242   5.351  0.8301  0.4947 -0.2807
   92MOL    H2727509   1.848   4.124   5.238  3.8433  4.0611  1.1408
   92MOL    H2827510   1.702   4.161   5.337 -0.2305  2.8402  0.7269
   92MOL    H2927511   1.789   3.605   5.506 -0.3801  0.4765  1.1279
   92MOL    H3027512   1.801   3.636   5.333  1.8735 -0.3550  1.3190
   92MOL    H3127513   1.654   3.682   5.415 -0.1279 -0.1102  0.5890
   92MOL    C3227514   1.786   4.053   5.578 -0.1849 -0.1175 -0.1891
   92MOL    C3327515   1.785   4.182   5.672 -0.3754  0.0765 -0.0135
   92MOL    C3427516   1.924   4.204   5.740  0.0580 -0.2585  0.0275
   92MOL    C3527517   1.746   4.309   5.595  0.1598  0.0460  0.0382
   92MOL    O3627518   1.822   4.403   5.590 -0.1423 -0.0211  0.3822
   92MOL    O3727519   1.624   4.314   5.562  0.3692 -0.5108  0.1317
   92MOL    C3827520   1.565   4.438   5.522 -0.5222 -0.0256  0.1966
   92MOL    H3927521   1.828   3.974   5.639  0.8605 -0.0257 -0.7794
   92MOL    H4027522   1.681   4.024   5.573 -0.0963 -1.1656  2.9391
   92MOL    H4127523   1.923   4.299   5.794  1.0647 -0.5448  0.5506
   92MOL    H4227524   1.953   4.122   5.806 -1.0336 -1.8461 -1.4334
   92MOL    H4327525   1.993   4.214   5.657 -1.6608 -1.5403 -1.5821
   92MOL    H4427526   1.595   4.467   5.422 -1.7691  0.7475  0.0367
   92MOL    H4527527   1.589   4.511   5.600  1.0783 -1.4254  1.0609
   92MOL    H4627528   1.461   4.408   5.530 -0.2455 -0.5734  2.0770
   92MOL    C4727529   1.676   4.145   5.788 -0.1208 -0.6265 -0.1867
   92MOL    C4827530   1.654   4.233   5.916  0.3453 -0.0449 -0.0771
   92MOL    C4927531   1.515   4.199   5.966  0.1405  0.0516  0.9717
   92MOL    C5027532   1.758   4.180   6.023  0.1855  0.2073  0.6304
   92MOL    O5127533   1.744   4.074   6.077 -0.4877  0.1060 -0.4268
   92MOL    O5227534   1.862   4.266   6.049  0.6191  0.1991 -0.0027
   92MOL    C5327535   1.959   4.229   6.152  0.4636 -0.7385  0.1779
   92MOL    H5427536   1.699   4.043   5.815  0.0426 -0.2469  1.1358
   92MOL    H5527537   1.577   4.139   5.742 -1.1270  3.7079  1.1249
   92MOL    H5627538   1.487   4.094   5.961 -0.3078  0.2460 -1.8886
   92MOL    H5727539   1.489   4.223   6.069 -0.1016 -0.1609  0.9616
   92MOL    H5827540   1.446   4.236   5.890 -0.6263 -3.1330  0.0280
   92MOL    H5927541   2.032   4.309   6.145 -1.1405  0.5908 -2.0598
   92MOL    H6027542   2.012   4.135   6.139  0.7365 -0.3169 -2.0192
   92MOL    H6127543   1.915   4.236   6.251 -1.6946  0.5215 -0.8240
   92MOL    C6227544   1.665   4.393   5.896 -0.4254  0.4358  0.2333
   92MOL    C6327545   1.617   4.508   5.993 -0.3261 -0.3469  0.3717
   92MOL    C6427546   1.658   4.484   6.139 -0.6409 -0.5648 -0.8891
   92MOL    C6527547   1.698   4.639   5.946 -0.8623  0.3666  0.6819
   92MOL    O6627548   1.728   4.728   6.021 -1.0142 -0.8810 -0.3612
   92MOL    O6727549   1.727   4.640   5.807  0.3012  0.5469 -0.2166
   92MOL    C6827550   1.795   4.739   5.744  0.4143 -0.0621 -0.4308
   92MOL    H6927551   1.616   4.413   5.801  0.8493 -2.8054 -1.1930
   92MOL    H7027552   1.772   4.412   5.886 -0.0163 -2.2369 -1.0844
   92MOL    H7127553   1.612   4.551   6.212  2.0811 -1.4656  1.7647
   92MOL    H7227554   1.628   4.386   6.174 -1.3104  0.4337  1.4277
   92MOL    H7327555   1.764   4.487   6.165 -0.4597  2.2140 -1.7431
   92MOL    H7427556   1.742   4.833   5.764  0.1899 -0.1002 -0.8475
   92MOL    H7527557   1.805   4.716   5.638 -2.8433 -1.1970 -0.5451
   92MOL    H7627558   1.889   4.755   5.798  0.9869  2.3593 -2.0483
   92MOL    C7727559   1.456   4.525   5.984  0.6606  0.0142 -0.3476
   92MOL    C7827560   1.378   4.656   6.008 -0.8896 -0.3611  0.2867
   92MOL    C7927561   1.423   4.735   6.144 -0.2648  0.2335 -0.0521
   92MOL    C8027562   1.391   4.752   5.891  0.0444 -0.2628 -0.0270
   92MOL    O8127563   1.375   4.873   5.906  1.1047  0.2027 -0.1148
   92MOL    O8227564   1.402   4.696   5.770 -0.1406  0.4717  0.4975
   92MOL    C8327565   1.423   4.785   5.660  0.1489 -0.3478  0.6876
   92MOL    H8427566   1.425   4.451   6.059  0.1368 -2.1912 -2.6802
   92MOL    H8527567   1.435   4.492   5.883 -3.0874 -0.6698  0.5770
   92MOL    H8627568   1.403   4.664   6.224  0.0809  2.3455  1.9466
   92MOL    H8727569   1.526   4.769   6.139  0.4639 -2.0956 -2.0155
   92MOL    H8827570   1.366   4.827   6.154 -0.4150 -0.0770  2.0954
   92MOL    H8927571   1.417   4.731   5.565 -0.8210 -1.6017  1.4477
   92MOL    H9027572   1.520   4.835   5.663 -0.7947  1.5327  0.5408
   92MOL    H9127573   1.344   4.860   5.669  1.0220  0.4038  2.2917
   92MOL    C9227574   1.220   4.641   6.034  0.2955  0.3438  0.7100
   92MOL    C9327575   1.112   4.554   5.954  0.1941  0.2007 -0.5014
   92MOL    C9427576   1.121   4.569   5.809 -0.3608  0.2937  0.6855
   92MOL    C9527577   1.148   4.409   5.986  0.4413  0.4052  0.4760
   92MOL    O9627578   1.186   4.330   5.898 -0.2256  0.2750  0.1441
   92MOL    O9727579   1.142   4.375   6.118  0.0557 -0.5985 -0.2134
   92MOL    C9827580   1.197   4.249   6.156 -0.0784 -0.0270 -0.3617
   92MOL    H9927581   1.180   4.740   6.057  0.9990  0.6603  0.5998
   92MOL   H10027582   1.214   4.596   6.133 -1.0779 -0.9634  0.0584
   92MOL   H10127583   1.059   4.496   5.757  0.4520 -0.6902  1.0625
   92MOL   H10227584   1.099   4.673   5.785  1.4778  0.1683 -1.7727
   92MOL   H10327585   1.221   4.553   5.769 -0.6375 -0.5256  0.2940
   92MOL   H10427586   1.304   4.257   6.141 -0.0873 -1.3635 -1.3044
   92MOL   H10527587   1.150   4.168   6.100  0.3134 -0.4095 -0.1415
   92MOL   H10627588   1.182   4.238   6.263  0.0819 -3.0986 -0.6243
   92MOL   C10727589   0.967   4.571   6.027  0.0843  0.7639 -0.3579
   92MOL   C10827590   0.865   4.680   5.974 -0.3861 -0.8525  0.7352
   92MOL   C10927591   0.933   4.816   5.991  0.4392 -0.1337 -0.2247
   92MOL   C11027592   0.822   4.660   5.830  0.0373 -0.1461  0.3729
   92MOL   O11127593   0.810   4.753   5.752 -0.2922 -0.0671 -0.4486
   92MOL   O11227594   0.796   4.522   5.792 -0.1155  0.0224 -0.0843
   92MOL   C11327595   0.747   4.504   5.656 -0.0884 -0.5284 -0.1986
   92MOL   H11427596   0.974   4.583   6.135  0.7469  0.3134 -0.3450
   92MOL   H11527597   0.917   4.477   6.005  2.2442 -0.3263 -0.7715
   92MOL   H11627598   0.864   4.894   5.955  0.7081  1.5243  2.7022
   92MOL   H11727599   0.958   4.829   6.096  0.8838 -0.8023 -0.2501
   92MOL   H11827600   1.032   4.823   5.946 -0.1728  2.6687 -1.2662
   92MOL   H11927601   0.747   4.401   5.620 -1.8081 -0.3855 -0.6532
   92MOL   H12027602   0.802   4.566   5.585 -2.2750  0.8679 -0.6875
   92MOL   H12127603   0.648   4.546   5.644  0.1032 -0.7436 -2.9732
   92MOL   C12227604   0.733   4.660   6.066  0.0418 -0.8134  0.3704
   92MOL   C12327605   0.629   4.775   6.087  0.3121 -0.0374  0.0846
   92MOL   C12427606   0.696   4.897   6.155 -0.4466 -0.0001  0.9527
   92MOL   C12527607   0.561   4.817   5.948  0.2567 -0.2283  0.7517
   92MOL   O12627608   0.565   4.934   5.898  0.0934  0.9232 -0.7962
   92MOL   O12727609   0.499   4.724   5.895 -1.0293 -0.8581 -0.2630
   92MOL   C12827610   0.441   4.739   5.764 -0.1636 -0.3468  0.0201
   92MOL   H12927611   0.776   4.631   6.162 -2.3498 -0.6767  1.4981
   92MOL   H13027612   0.681   4.571   6.031 -2.1408  0.5697  0.0440
   92MOL   H13127613   0.789   4.862   6.201  0.2486  0.1428 -0.3388
   92MOL   H13227614   0.727   4.968   6.078  1.2054  0.7675  2.2790
   92MOL   H13327615   0.636   4.962   6.219  0.6928  0.7512  1.2842
   92MOL   H13427616   0.390   4.648   5.732 -0.3446 -0.3461  0.3009
   92MOL   H13527617   0.519   4.760   5.691 -0.6861  1.4184 -0.0557
   92MOL   H13627618   0.374   4.825   5.771 -0.0829 -0.3092  0.3698
   92MOL   C13727619   0.502   4.720   6.174 -0.0159 -0.1856 -0.5364
   92MOL   C13827620   0.512   4.641   6.310 -0.0155 -0.3921  0.0221
   92MOL   C13927621   0.548   4.488   6.278 -0.5322  0.3341 -0.0029
   92MOL   C14027622   0.618   4.711   6.405  0.0239 -0.5073  0.4648
   92MOL   O14127623   0.726   4.661   6.437 -0.0192  0.1447 -0.3986
   92MOL   O14227624   0.576   4.830   6.444  0.0333 -0.4772 -0.2474
   92MOL   C14327625   0.648   4.903   6.536  0.7365  0.0061  0.3474
   92MOL   H14427626   0.444   4.655   6.109 -0.2181 -1.2548  0.6871
   92MOL   H14527627   0.438   4.807   6.179 -1.4801 -1.2637 -0.1478
   92MOL   H14627628   0.648   4.475   6.236  0.1371  2.6126  0.7895
   92MOL   H14727629   0.547   4.432   6.372  0.9435 -0.1357 -0.2614
   92MOL   H14827630   0.478   4.454   6.201 -1.7407  2.3621  0.1517
   92MOL   H14927631   0.619   4.886   6.639  1.5321 -3.2863  0.1073
   92MOL   H15027632   0.638   5.007   6.506  1.2699  0.4443  1.6750
   92MOL   H15127633   0.754   4.880   6.551  0.6425  0.2386  1.3759
   92MOL   C15227634   0.364   4.656   6.368 -0.7752  0.5472 -0.2174
   92MOL   C15327635   0.305   4.566   6.482  0.4192 -0.2452 -0.8610
   92MOL   C15427636   0.410   4.559   6.595  0.4379 -0.2206 -0.0220
   92MOL   C15527637   0.175   4.635   6.540 -0.2065 -0.3133  0.0479
   92MOL   O15627638   0.159   4.662   6.659 -0.3690  0.0300 -0.0441
   92MOL   O15727639   0.104   4.687   6.442  0.2172 -0.7027  0.0490
   92MOL   C15827640   7.869   4.766   6.470  0.0838 -0.6009  0.4376
   92MOL   H15927641   0.299   4.638   6.282  0.0523 -2.1730 -0.3192
   92MOL   H16027642   0.334   4.757   6.397 -2.8556 -0.4974  1.4495
   92MOL   H16127643   0.503   4.503   6.584  0.3708 -0.4643  0.6578
   92MOL   H16227644   0.436   4.662   6.619 -3.2361  1.1003 -1.2643
   92MOL   H16327645   0.375   4.526   6.693  0.2259  1.6303  0.5449
   92MOL   H16427646   0.016   4.828   6.556 -0.1563 -0.6471  0.5407
   92MOL   H16527647   7.795   4.698   6.513 -0.3658  0.3722  1.1937
   92MOL   H16627648   7.826   4.834   6.396  1.0377 -0.0612  0.3770
   92MOL   C16727649   0.266   4.426   6.418  0.5263 -0.1768 -0.1839
   92MOL   C16827650   0.229   4.301   6.507 -0.2231 -0.6107 -0.6605
   92MOL   C16927651   0.128   4.347   6.615  0.4763  0.2020 -0.0118
   92MOL   C17027652   0.165   4.198   6.419  0.0661 -0.0325 -0.3004
   92MOL   O17127653   0.047   4.167   6.446  0.5106  0.3792  0.1167
   92MOL   O17227654   0.232   4.155   6.303 -0.0192  0.0208 -0.1912
   92MOL   C17327655   0.162   4.088   6.198 -0.1766 -0.3509 -0.2860
   92MOL   H17427656   0.337   4.392   6.343 -0.0259 -0.7827 -0.4423
   92MOL   H17527657   0.176   4.454   6.363  1.1239  2.0533 -0.0731
   92MOL   H17627658   0.165   4.415   6.692  0.7094 -0.7482  0.7236
   92MOL   H17727659   0.045   4.407   6.579  0.6146  0.1510 -0.4113
   92MOL   H17827660   0.072   4.264   6.659 -4.4298  2.9361 -0.7523
   92MOL   H17927661   0.116   4.151   6.122  0.8130 -0.7798 -1.2684
   92MOL   H18027662   0.087   4.025   6.247 -0.3712 -0.3181 -0.5393
   92MOL   H18127663   0.228   4.022   6.141 -0.5298  0.3594 -1.5408
   92MOL   C18227664   0.362   4.232   6.566  0.1391  0.0950 -0.4679
   92MOL   C18327665   0.366   4.106   6.659 -0.5423 -0.3427 -0.0644
   92MOL   C18427666   0.293   4.132   6.791 -0.5766  0.1139 -0.1857
   92MOL   C18527667   0.302   3.981   6.592  0.8415 -0.3180  0.2942
   92MOL   O18627668   0.329   3.953   6.471  0.0971 -0.4098 -0.0531
   92MOL   O18727669   0.223   3.907   6.671 -0.1566 -0.2522  0.0516
   92MOL   C18827670   0.182   3.775   6.628 -0.3638 -0.5655 -0.2726
   92MOL   H18927671   0.415   4.313   6.617 -0.4116  1.6735 -2.3522
   92MOL   H19027672   0.443   4.218   6.495  0.8346 -2.3459  0.7259
   92MOL   H19127673   0.185   4.133   6.787 -0.6119 -3.4258 -2.3566
   92MOL   H19227674   0.326   4.068   6.873  1.0166 -0.1892 -1.0292
   92MOL   H19327675   0.318   4.237   6.809 -1.8415  0.4734 -0.5090
   92MOL   H19427676   0.137   3.780   6.529  0.1587 -4.0600 -0.7211
   92MOL   H19527677   0.097   3.748   6.692  0.3760  2.0628  1.9420
   92MOL   H19627678   0.260   3.699   6.633 -1.4005 -1.6456 -0.2662
   92MOL   C19727679   0.518   4.074   6.680  0.4970  0.0397 -0.3581
   92MOL   C19827680   0.593   3.980   6.789  0.0863  0.2370  0.4252
   92MOL   C19927681   0.526   3.838   6.790 -0.5831 -0.0137  0.2865
   92MOL   C20027682   0.731   3.947   6.727 -0.4112  0.4677 -0.9677
   92MOL   O20127683   0.789   4.032   6.657 -0.0271 -0.2720  0.2287
   92MOL   O20227684   0.785   3.831   6.767 -0.3326  0.2984 -0.0141
   92MOL   C20327685   0.911   3.784   6.724  0.2295 -0.6284 -1.2813
   92MOL   H20427686   0.572   4.168   6.679 -0.3012  0.5001 -0.0661
   92MOL   H20527687   0.546   4.029   6.584  0.7940  1.3963 -0.9209
   92MOL   H20627688   0.525   3.796   6.690  2.0422  0.7767 -0.1015
   92MOL   H20727689   0.580   3.765   6.851  1.9527  1.2762 -0.3570
   92MOL   H20827690   0.423   3.840   6.826 -0.2044 -0.9012  1.4827
   92MOL   H20927691   0.948   3.728   6.810 -1.4230  1.7900  1.0756
   92MOL   H21027692   0.976   3.869   6.705 -0.5648  0.8910  2.4258
   92MOL   H21127693   0.906   3.710   6.643  0.0371 -1.2149 -0.7394
   92MOL   C21227694   0.600   4.027   6.941 -0.6897  0.5880 -0.3016
   92MOL   C21327695   0.652   4.166   6.996 -0.7123  0.2835  0.3569
   92MOL   C21427696   0.801   4.174   6.955 -0.1595  0.0140  0.1504
   92MOL   C21527697   0.577   4.293   6.936 -0.1460  0.4023 -0.4675
   92MOL   O21627698   0.618   4.339   6.824 -0.2156 -0.3288  0.7434
   92MOL   O21727699   0.469   4.335   7.009 -0.3214 -0.2172  0.5630
   92MOL   C21827700   0.409   4.456   6.987  0.2472 -0.2503 -0.1577
   92MOL   H21927701   0.674   3.958   6.982 -1.6775  0.5366  1.4705
   92MOL   H22027702   0.503   4.003   6.985  0.7939 -4.4007  0.5843
   92MOL   H22127703   0.815   4.163   6.847 -0.4975 -0.1172  0.1200
   92MOL   H22227704   0.858   4.261   6.989  0.3148 -0.6961  1.1947
   92MOL   H22327705   0.863   4.089   6.984  3.1060  1.6382 -1.8154
   92MOL   H22427706   0.378   4.493   7.085  0.1408 -1.6229  0.3413
   92MOL   H22527707   0.328   4.434   6.917 -1.3326  1.2311  1.1525
   92MOL   H22627708   0.485   4.521   6.945  0.9798 -0.3664  0.9820
   92MOL   C22727709   0.641   4.182   7.159 -0.1128  0.0718  0.0962
   92MOL   C22827710   0.543   4.102   7.247 -0.3589  0.2955 -0.1673
   92MOL   C22927711   0.401   4.141   7.216 -0.4198  0.3105 -0.0430
   92MOL   C23027712   0.567   3.951   7.233  0.1428 -0.1452  0.1611
   92MOL   O23127713   0.474   3.872   7.217  0.2091 -0.0324 -0.4805
   92MOL   O23227714   0.697   3.917   7.241 -0.3619 -0.7795  0.1289
   92MOL   C23327715   0.737   3.786   7.213 -0.0160 -0.3332  0.2204
   92MOL   H23427716   0.638   4.288   7.187 -0.1913  0.1711 -0.2766
   92MOL   H23527717   0.740   4.165   7.202  0.0952  1.2567  0.1098
   92MOL   H23627718   0.383   4.127   7.109 -1.6670  1.4232  0.0041
   92MOL   H23727719   0.330   4.074   7.264  0.1167  0.4076  0.8901
   92MOL   H23827720   0.379   4.243   7.248 -1.6864 -0.2530  0.9057
   92MOL   H23927721   0.686   3.707   7.269 -0.1816 -1.0684 -0.9499
   92MOL   H24027722   0.842   3.771   7.240  0.2852  1.8636  0.3707
   92MOL   H24127723   0.738   3.780   7.104 -0.1985  2.9644  0.0011
   92MOL   C24227724   0.595   4.131   7.393  1.3696 -0.3414  0.1434
   92MOL   C24327725   0.564   4.063   7.532 -0.0310 -0.3166  1.0311
   92MOL   C24427726   0.660   3.946   7.552  0.2575 -0.7429 -0.3143
   92MOL   C24527727   0.592   4.184   7.629 -0.0607  0.3387 -0.1585
   92MOL   O24627728   0.507   4.264   7.663  0.0007  0.3697 -0.1259
   92MOL   O24727729   0.723   4.201   7.657  0.5773  0.5326 -0.4598
   92MOL   C24827730   0.760   4.310   7.735  0.1483 -0.5593 -0.1091
   92MOL   H24927731   0.558   4.233   7.400 -2.0559 -1.4992 -0.2366
   92MOL   H25027732   0.704   4.138   7.388  1.4127  0.0499  1.3807
   92MOL   H25127733   0.642   3.853   7.498 -0.8923  0.4419 -2.0000
   92MOL   H25227734   0.761   3.971   7.518  0.8895 -1.1859  1.1682
   92MOL   H25327735   0.663   3.915   7.657  3.2599 -0.8805 -0.3855
   92MOL   H25427736   0.868   4.325   7.741  0.0983  0.7211 -2.1578
   92MOL   H25527737   0.728   4.290   7.837 -3.1563  0.0086 -0.9891
   92MOL   H25627738   0.708   4.397   7.696  0.6221  0.2273  0.9761
   92MOL   C25727739   0.414   4.017   7.536  0.5461  0.2421 -0.6682
   92MOL   C25827740   0.343   3.935   7.651  0.0184  0.6575 -0.6368
   92MOL   C25927741   0.204   3.913   7.592 -0.5545  0.6164  0.3311
   92MOL   C26027742   0.413   3.798   7.670  0.5575 -0.0963 -0.2793
   92MOL   O26127743   0.422   3.738   7.778  0.2915  0.5283 -0.2607
   92MOL   O26227744   0.435   3.743   7.552  0.4780  0.0535  0.0675
   92MOL   C26327745   0.505   3.620   7.538 -0.1521  0.9018 -0.4411
   92MOL   H26427746   0.393   3.973   7.438 -2.2138  2.1699 -0.9915
   92MOL   H26527747   0.358   4.110   7.537 -0.4624 -0.3548 -0.7424
   92MOL   H26627748   0.209   3.889   7.486  0.1367 -0.7394  0.6586
   92MOL   H26727749   0.154   3.834   7.649  1.4048 -0.5814  0.4449
   92MOL   H26827750   0.144   4.002   7.571 -1.8723 -0.3376 -0.0571
   92MOL   H26927751   0.601   3.631   7.589 -0.1574  0.1411 -0.2539
   92MOL   H27027752   0.512   3.593   7.433  1.7018 -4.3858  0.8583
   92MOL   H27127753   0.434   3.553   7.587  1.2784  0.3663  0.9587
   92MOL   C27227754   0.331   4.010   7.793  0.1876  0.0547 -0.0647
   92MOL   C27327755   0.216   4.104   7.839  0.5732  0.4506  0.2820
   92MOL   C27427756   0.197   4.219   7.734 -0.1466  0.2914 -1.0040
   92MOL   C27527757   0.081   4.023   7.859  0.0162 -0.5596 -0.1396
   92MOL   O27627758   7.852   4.059   7.809  0.1185 -0.3728  0.7336
   92MOL   O27727759   0.089   3.912   0.052  0.3571  0.0449  0.3064
   92MOL   C27827760   7.848   3.840   0.072  0.7576  0.0429  0.2817
   92MOL   H27927761   0.426   4.062   7.807 -0.5144  1.3231  0.0541
   92MOL   H28027762   0.340   3.933   7.869 -2.0469  0.5818  0.7613
   92MOL   H28127763   0.183   4.187   7.631  2.0087 -1.0810 -0.9020
   92MOL   H28227764   0.115   4.276   7.777  0.7633  1.0337 -0.2307
   92MOL   H28327765   0.289   4.278   7.734  0.3447 -0.4346 -2.6633
   92MOL   H28427766   7.815   3.794   7.857  2.2844  1.5733 -1.0513
   92MOL   H28527767   7.759   3.883   0.118 -1.0720 -2.9516 -0.2679
   92MOL   H28627768   7.877   3.774   0.154  0.0276 -0.4769  0.1335
   92MOL   C28727769   0.258   4.157   0.102 -0.0276  0.0413  0.2425
   92MOL   C28827770   0.154   4.228   0.193  0.5151 -0.3613  0.4277
   92MOL   C28927771   0.180   4.214   0.344  0.0082  0.7951 -0.1193
   92MOL   C29027772   0.131   4.374   0.155 -0.1547 -0.4397 -0.4968
   92MOL   O29127773   0.219   4.433   0.091 -0.4040  0.0915  0.2537
   92MOL   O29227774   0.018   4.413   0.195  0.1078 -0.0049 -0.6735
   92MOL   C29327775   7.845   4.540   0.173  0.0948 -0.6237 -0.3986
   92MOL   H29427776   0.351   4.213   0.095  1.4625 -2.2529  1.0255
   92MOL   H29527777   0.294   4.085   0.175 -0.1300  0.4540  0.6997
   92MOL   H29627778   0.286   4.211   0.370 -0.2338  1.6864  1.0025
   92MOL   H29727779   0.145   4.300   0.402 -0.4909 -0.7566  1.9330
   92MOL   H29827780   0.121   4.135   0.390 -0.8086  1.2529 -0.3720
   92MOL   H29927781   0.031   4.623   0.206 -2.3287  1.3026 -0.4477
   92MOL   H30027782   7.744   4.548   0.214  0.1692  2.8081 -0.7059
   92MOL   H30127783   7.833   4.557   0.066 -2.3546 -0.4705 -0.1233
   92MOL   H30227784   0.064   4.170   0.175  0.8992 -0.1725 -2.2576
   93MOL     C127785   1.111   0.836   1.458 -0.7421 -0.1021  0.3302
   93MOL     C227786   0.989   0.747   1.426 -0.2915 -0.3984  0.0205
   93MOL     C327787   0.988   0.663   1.556  0.3786 -0.1780  0.6023
   93MOL     C427788   0.866   0.843   1.417 -0.5017  0.6785  0.3043
   93MOL     O527789   0.774   0.848   1.505  0.5559  0.1487  0.2768
   93MOL     O627790   0.876   0.920   1.306  0.3827  0.0183 -0.4188
   93MOL     C727791   0.764   1.000   1.267 -0.3176  0.0860  0.0389
   93MOL     H827792   1.201   0.793   1.503 -0.0944  1.2201  0.3117
   93MOL     H927793   1.145   0.893   1.372 -1.2912 -1.7428 -1.0013
   93MOL    H1027794   0.990   0.719   1.650 -0.4222  1.3480 -0.2745
   93MOL    H1127795   0.900   0.599   1.566  1.8149 -2.3176 -0.0551
   93MOL    H1227796   1.069   0.590   1.566 -0.6554 -1.3780  0.3355
   93MOL    H1327797   0.686   0.933   1.232  1.6793 -2.8533  1.0239
   93MOL    H1427798   0.797   1.056   1.180 -1.0167  2.5749  1.3153
   93MOL    H1527799   0.721   1.061   1.347 -0.4234 -0.6305  0.5260
   93MOL    H1627800   1.084   0.918   1.525  0.0420  0.7172 -0.3501
   93MOL    C1727801   1.018   0.674   1.295 -0.5446  0.8013  0.3597
   93MOL    C1827802   0.942   0.537   1.251 -0.9368  0.6273 -0.6807
   93MOL    C1927803   0.991   0.508   1.106 -0.0407  0.1256  0.1454
   93MOL    C2027804   1.000   0.427   1.344 -0.3099  0.4629  0.0861
   93MOL    O2127805   0.926   0.379   1.428  0.3632  0.2589 -0.2100
   93MOL    O2227806   1.126   0.392   1.333  0.5239  0.1284  0.2720
   93MOL    C2327807   1.181   0.329   1.441 -0.2624  0.6790  0.3710
   93MOL    H2427808   1.124   0.650   1.296 -1.0764 -1.8423  3.9869
   93MOL    H2527809   1.003   0.742   1.212  0.5817 -0.4595 -0.9100
   93MOL    H2627810   0.988   0.409   1.060 -0.8018 -0.1217  0.7084
   93MOL    H2727811   0.921   0.566   1.046  0.5616  0.9736  0.2509
   93MOL    H2827812   1.087   0.557   1.091  0.1166 -0.5372 -1.0314
   93MOL    H2927813   1.140   0.228   1.447  1.1369  0.1878  2.5871
   93MOL    H3027814   1.164   0.386   1.532 -1.3031  1.2981 -0.2010
   93MOL    H3127815   1.289   0.314   1.435  0.1159  2.6288  1.7696
   93MOL    C3227816   0.789   0.557   1.268 -0.3582  0.1580 -0.1074
   93MOL    C3327817   0.675   0.458   1.234  0.5616 -0.5694 -0.1838
   93MOL    C3427818   0.709   0.380   1.105  0.0305  0.3056  0.5303
   93MOL    C3527819   0.643   0.370   1.358  0.0360 -0.9940  0.7004
   93MOL    O3627820   0.658   0.247   1.356 -0.2850  0.0951  0.0081
   93MOL    O3727821   0.615   0.444   1.471 -0.3765 -0.3612 -0.1134
   93MOL    C3827822   0.589   0.369   1.586  0.2957  0.2292  0.4530
   93MOL    H3927823   0.760   0.650   1.218 -0.2899 -1.0258 -2.4080
   93MOL    H4027824   0.777   0.596   1.369  0.0889  0.8789 -0.3265
   93MOL    H4127825   0.795   0.317   1.125 -0.9423 -0.5350  2.1691
   93MOL    H4227826   0.645   0.296   1.078  1.6026 -0.5941 -0.5103
   93MOL    H4327827   0.707   0.452   1.024 -0.4722  2.7001  2.6122
   93MOL    H4427828   0.575   0.441   1.666 -0.0006 -0.1284  0.7264
   93MOL    H4527829   0.678   0.307   1.605 -0.0096 -0.1167  0.7754
   93MOL    H4627830   0.507   0.297   1.580  1.3295 -0.8953 -0.6419
   93MOL    C4727831   0.555   0.549   1.209  0.0499  0.0231 -0.3563
   93MOL    C4827832   0.406   0.495   1.191 -0.4948 -0.1158 -0.2055
   93MOL    C4927833   0.337   0.626   1.132 -0.0145  0.3078 -0.2298
   93MOL    C5027834   0.396   0.387   1.083 -0.7875  0.0475 -0.7370
   93MOL    O5127835   0.383   0.414   0.969  1.0503 -0.2633  0.2116
   93MOL    O5227836   0.416   0.265   1.136 -0.0598  0.5880  0.6913
   93MOL    C5327837   0.416   0.154   1.041  0.2661 -0.3049 -0.4278
   93MOL    H5427838   0.576   0.601   1.116 -0.4604 -0.9927 -1.0521
   93MOL    H5527839   0.547   0.620   1.291 -0.0856  0.2271 -0.5447
   93MOL    H5627840   0.237   0.596   1.100 -0.2629  0.4313  0.4304
   93MOL    H5727841   0.326   0.704   1.207 -0.6281  0.7050 -0.7302
   93MOL    H5827842   0.377   0.675   1.044 -1.1289 -0.9035 -1.4420
   93MOL    H5927843   0.484   0.180   0.960  0.1256 -1.0012 -0.7703
   93MOL    H6027844   0.316   0.123   1.011  0.9555 -0.7752 -2.3361
   93MOL    H6127845   0.461   0.070   1.094  0.3282  0.1649  0.2718
   93MOL    C6227846   0.334   0.451   1.331  0.4555 -0.1603 -0.1448
   93MOL    C6327847   0.177   0.447   1.354 -0.3061  0.1437 -0.9651
   93MOL    C6427848   0.100   0.588   1.343  0.0572 -0.3210  0.0338
   93MOL    C6527849   0.108   0.345   1.262  0.4213  0.2399  0.2233
   93MOL    O6627850   0.003   0.373   1.202 -0.3966 -0.5567 -0.5488
   93MOL    O6727851   0.168   0.226   1.266  0.2604  0.3840 -0.4963
   93MOL    C6827852   0.108   0.106   1.224  0.6461  0.8970  0.9549
   93MOL    H6927853   0.367   0.520   1.409  0.5940 -0.5776  0.1696
   93MOL    H7027854   0.372   0.353   1.360 -1.4598 -0.3577  1.7979
   93MOL    H7127855   0.094   0.628   1.242 -1.0301  0.3069  0.3422
   93MOL    H7227856   7.875   0.576   1.378  0.2319 -3.2278 -0.3394
   93MOL    H7327857   0.150   0.664   1.403 -0.0301  0.1864 -0.5344
   93MOL    H7427858   0.194   0.044   1.198 -1.7530 -0.6504 -3.7959
   93MOL    H7527859   0.053   0.118   1.131  1.1481 -2.1629  0.2181
   93MOL    H7627860   0.036   0.060   1.292 -0.6619 -1.8028 -2.1521
   93MOL    C7727861   0.171   0.395   1.508  0.1877  0.4126  0.4390
   93MOL    C7827862   0.038   0.381   1.601  0.3986 -0.1873  0.2643
   93MOL    C7927863   0.026   0.520   1.660 -0.3289  0.2919  0.1274
   93MOL    C8027864   7.789   0.342   1.518 -0.8131 -0.2538 -0.2755
   93MOL    O8127865   7.700   0.427   1.489  0.0932  0.2713 -0.6044
   93MOL    O8227866   7.788   0.214   1.488 -0.0348 -0.1663  0.6483
   93MOL    C8327867   7.677   0.166   1.415 -0.1029 -0.2387  0.0120
   93MOL    H8427868   0.229   0.465   1.568  1.5006  0.0670 -0.4056
   93MOL    H8527869   0.221   0.298   1.505  2.5241  1.5559  1.0314
   93MOL    H8627870   7.815   0.549   1.716 -0.4866  1.3303 -0.6532
   93MOL    H8727871   0.107   0.527   1.733 -0.0929  0.8984 -0.1925
   93MOL    H8827872   0.022   0.606   1.594  0.5596  1.2075  1.2451
   93MOL    H8927873   7.663   0.221   1.322  1.5770 -2.3075 -1.5051
   93MOL    H9027874   7.593   0.190   1.480  0.1514 -0.2221  0.3361
   93MOL    H9127875   7.691   0.058   1.403  0.1384 -0.3327  1.0742
   93MOL    C9227876   0.071   0.282   1.719 -0.4638  0.0115  0.6487
   93MOL    C9327877   7.855   0.239   1.838  0.0260 -0.6101 -0.2442
   93MOL    C9427878   7.803   0.368   1.915 -0.0767 -0.3953 -0.5127
   93MOL    C9527879   7.744   0.155   1.780  0.3057 -0.8043 -0.1460
   93MOL    O9627880   7.626   0.190   1.794 -0.4398 -0.1355  0.4583
   93MOL    O9727881   7.781   0.030   1.739  0.5095 -0.4106 -0.5950
   93MOL    C9827882   7.688   7.825   1.686  0.5435  0.2561  0.5493
   93MOL    H9927883   0.164   0.324   1.759  1.4242 -0.2374 -3.2928
   93MOL   H10027884   0.101   0.192   1.666  0.4359  0.8840 -0.3406
   93MOL   H10127885   7.748   0.336   2.004 -0.6278  1.0771 -0.2999
   93MOL   H10227886   0.007   0.437   1.936  2.0692 -3.6710  2.3358
   93MOL   H10327887   7.724   0.417   1.857 -1.7419 -0.7140  1.3823
   93MOL   H10427888   7.622   7.775   1.756 -0.4762 -2.7032 -2.4408
   93MOL   H10527889   7.736   7.743   1.634  1.0552 -0.5668  2.2681
   93MOL   H10627890   7.620   7.863   1.610  0.5684  0.4543  0.6243
   93MOL   C10727891   0.067   0.151   1.939  0.6051  0.1034 -0.1509
   93MOL   C10827892   0.019   0.100   2.080 -0.1098 -0.5376 -0.1168
   93MOL   C10927893   0.128   0.001   2.129 -0.5707 -0.2568 -0.4229
   93MOL   C11027894   0.021   0.219   2.177  0.4069 -0.5702  0.3488
   93MOL   O11127895   7.796   0.262   2.229 -0.1308 -0.1023 -0.3583
   93MOL   O11227896   0.136   0.284   2.202 -0.6658  0.0314 -0.2381
   93MOL   C11327897   0.136   0.392   2.298  0.5094 -1.0685  0.2921
   93MOL   H11427898   0.155   0.213   1.954 -0.6913  1.5744  1.5635
   93MOL   H11527899   0.120   0.076   1.879 -0.5140 -0.0491 -0.9643
   93MOL   H11627900   0.222   0.056   2.135 -0.1451 -1.2095  2.3188
   93MOL   H11727901   0.118   7.827   2.225 -1.0849  0.2725 -0.1871
   93MOL   H11827902   0.137   7.804   2.051 -1.4043  2.1783 -2.9102
   93MOL   H11927903   0.215   0.466   2.283 -0.7539  0.1224 -0.5529
   93MOL   H12027904   0.157   0.368   2.403 -2.0549 -0.2799  1.0304
   93MOL   H12127905   0.050   0.459   2.299 -1.5305 -3.5855  2.7627
   93MOL   C12227906   7.758   0.029   2.067 -0.0243  0.3429  0.5632
   93MOL   C12327907   7.684   7.810   2.167 -0.5328 -0.0960 -0.5563
   93MOL   C12427908   7.691   7.862   2.314 -0.1829 -0.1817 -0.6781
   93MOL   C12527909   7.533   7.817   2.121 -0.4957  0.1617  0.1924
   93MOL   O12627910   7.443   7.839   2.201 -0.1158  0.6199  0.0804
   93MOL   O12727911   7.519   7.795   1.990 -0.5595 -0.4361 -0.2436
   93MOL   C12827912   7.396   7.815   1.922 -0.3315  0.1066  0.8406
   93MOL   H12927913   7.779   7.848   1.978 -1.4157 -0.1196  0.5295
   93MOL   H13027914   7.680   0.098   2.035 -0.6001 -0.1919  0.8155
   93MOL   H13127915   7.624   7.812   2.384  0.4936  0.7594  0.6613
   93MOL   H13227916   7.791   7.840   2.351 -0.3307  2.4582  1.4082
   93MOL   H13327917   7.681   0.092   2.321  0.8682  0.0434 -2.2763
   93MOL   H13427918   7.369   0.043   1.912  0.7707  0.3776  0.6739
   93MOL   H13527919   7.311   7.760   1.963 -1.1233 -0.6232 -1.6921
   93MOL   H13627920   7.402   7.775   1.821 -0.0572  2.1573  0.0168
   93MOL   C13727921   7.740   7.666   2.136 -0.0918 -0.1124 -0.0584
   93MOL   C13827922   7.718   7.530   2.213  0.4987  0.1854 -0.5935
   93MOL   C13927923   7.795   7.544   2.348  0.4986  0.6442  0.1056
   93MOL   C14027924   7.572   7.491   2.239 -0.0445  0.3716  0.4107
   93MOL   O14127925   7.470   7.536   2.185 -0.1456  0.0342 -0.0364
   93MOL   O14227926   7.574   7.402   2.333 -0.0694  0.4336 -0.4631
   93MOL   C14327927   7.460   7.339   2.389 -0.1902 -0.5014 -0.3326
   93MOL   H14427928   7.848   7.673   2.135 -0.0185 -1.0717 -2.0845
   93MOL   H14527929   7.710   7.651   2.033 -0.0161 -0.3536 -0.0466
   93MOL   H14627930   0.016   7.580   2.321 -0.0910  0.2293 -2.8371
   93MOL   H14727931   7.747   7.615   2.416  3.6096  2.2347  0.6883
   93MOL   H14827932   7.802   7.450   2.403 -1.0390 -0.1099 -0.9455
   93MOL   H14927933   7.463   7.380   2.490  2.2782  1.7477 -1.2696
   93MOL   H15027934   7.461   7.230   2.397  1.4617 -0.4946 -0.3206
   93MOL   H15127935   7.365   7.363   2.341 -0.8798 -4.6513 -1.2268
   93MOL   C15227936   7.793   7.414   2.130 -0.3034 -0.3470  0.4250
   93MOL   C15327937   7.773   7.385   1.976  0.4994 -0.0922 -0.0192
   93MOL   C15427938   7.622   7.408   1.929 -0.5009 -0.3997  0.2766
   93MOL   C15527939   7.863   7.480   1.889  0.7559 -0.2420 -0.6954
   93MOL   O15627940   7.824   7.534   1.784 -0.3692  0.1289  0.2309
   93MOL   O15727941   0.108   7.507   1.934  0.4272 -0.1527 -0.1588
   93MOL   C15827942   0.197   7.598   1.864 -1.3961 -0.5273 -1.1934
   93MOL   H15927943   7.767   7.326   2.189  2.5355 -0.5833  1.3804
   93MOL   H16027944   0.018   7.434   2.160 -0.4894 -0.4022  1.1132
   93MOL   H16127945   7.613   7.387   1.822  0.9984  1.3622 -0.2275
   93MOL   H16227946   7.544   7.348   1.975 -0.3091 -0.3272  0.6979
   93MOL   H16327947   7.589   7.512   1.935 -1.4831 -0.7780  1.5003
   93MOL   H16427948   0.211   7.557   1.764 -1.6403 -0.7757 -1.1253
   93MOL   H16527949   0.290   7.604   1.920 -0.9176  0.9798 -2.1040
   93MOL   H16627950   0.162   7.701   1.868  1.9999  0.5748  2.3170
   93MOL   C16727951   7.804   7.238   1.926  0.4857  0.0123 -1.2038
   93MOL   C16827952   0.031   7.137   1.988 -0.8718  0.5176 -1.0215
   93MOL   C16927953   0.163   7.211   2.027 -0.3864  0.6281 -0.1373
   93MOL   C17027954   7.857   7.073   2.124 -0.1914  0.3014  0.3128
   93MOL   O17127955   7.747   7.093   2.172 -0.2929 -0.4496 -0.1784
   93MOL   O17227956   0.075   6.997   2.186 -0.2826  0.2201 -0.4243
   93MOL   C17327957   0.045   6.933   2.303 -0.4915 -0.0941 -0.3330
   93MOL   H17427958   7.830   7.252   1.821 -2.2574  1.0786 -1.7986
   93MOL   H17527959   7.710   7.183   1.926  1.1495 -1.1468 -1.1971
   93MOL   H17627960   0.247   7.141   2.032 -1.7100 -0.8835  1.7623
   93MOL   H17727961   0.196   7.285   1.953  0.6346  0.4117  0.0907
   93MOL   H17827962   0.162   7.262   2.124 -3.3358  0.0148  0.1818
   93MOL   H17927963   7.831   6.874   2.295  0.0840 -1.2821  1.5936
   93MOL   H18027964   0.036   7.003   2.386  4.0940 -0.0720  0.2507
   93MOL   H18127965   0.118   6.857   2.331  0.2542  1.0657  0.9200
   93MOL   C18227966   0.065   7.029   1.886 -0.0042 -0.1706  0.3739
   93MOL   C18327967   7.838   6.934   1.812  0.6373  0.7249 -0.4503
   93MOL   C18427968   7.751   6.858   1.924  0.4532  0.6621 -0.3289
   93MOL   C18527969   7.730   7.002   1.720 -0.8505 -0.4210  0.8972
   93MOL   O18627970   7.610   6.964   1.714  0.0225 -0.2266  0.4425
   93MOL   O18727971   7.770   7.105   1.634 -0.8224  0.3526 -0.0508
   93MOL   C18827972   7.684   7.144   1.527  0.0491 -0.0631  0.1817
   93MOL   H18927973   0.124   6.953   1.937 -2.2386 -2.4613 -0.3777
   93MOL   H19027974   0.130   7.070   1.808  0.1262  0.9623  1.0502
   93MOL   H19127975   7.720   6.757   1.894  1.8822  0.0189  0.3338
   93MOL   H19227976   7.809   6.839   2.014 -1.0323 -2.6710  0.0066
   93MOL   H19327977   7.659   6.908   1.954 -0.8171 -2.3559  1.0528
   93MOL   H19427978   7.654   7.054   1.473 -0.9128  1.3330 -1.6779
   93MOL   H19527979   7.744   7.203   1.457 -1.7934 -0.5166 -1.8131
   93MOL   H19627980   7.605   7.211   1.559  0.9701  1.5409 -0.7880
   93MOL   C19727981   0.032   6.814   1.743  0.7146 -0.5010 -0.8117
   93MOL   C19827982   0.141   6.816   1.631 -0.0314  0.1930  0.2761
   93MOL   C19927983   0.097   6.901   1.510  0.4475 -0.2177 -0.0578
   93MOL   C20027984   0.269   6.869   1.691  1.0799  0.5572 -0.1519
   93MOL   O20127985   0.301   6.847   1.808  0.4104  0.1765  0.1889
   93MOL   O20227986   0.346   6.948   1.602  0.4677  0.1646  0.6518
   93MOL   C20327987   0.464   7.000   1.663  0.0499  0.4965  0.0668
   93MOL   H20427988   7.824   6.760   1.702 -0.9202  0.6078  1.0658
   93MOL   H20527989   0.079   6.760   1.825  2.7803  2.9454  0.3451
   93MOL   H20627990   0.174   6.892   1.434  0.6466  0.1328  0.0970
   93MOL   H20727991   0.004   6.871   1.463  0.2445 -0.6517  0.6124
   93MOL   H20827992   0.087   7.008   1.532  2.3617  0.1021 -0.6336
   93MOL   H20927993   0.433   7.056   1.751  1.0788 -1.1957  1.5430
   93MOL   H21027994   0.516   7.057   1.587 -0.5473 -0.7064 -1.2721
   93MOL   H21127995   0.522   6.914   1.695  0.0296  1.0693  1.6962
   93MOL   C21227996   0.158   6.666   1.566  0.2256  0.6944 -0.7292
   93MOL   C21327997   0.215   6.533   1.639 -0.6433  0.2082 -0.5141
   93MOL   C21427998   0.366   6.553   1.668 -0.1430  0.8701  0.2090
   93MOL   C21527999   0.150   6.509   1.776  0.2689  0.3264 -0.3613
   93MOL   O21628000   0.216   6.476   1.875  0.0763 -0.5975 -0.0839
   93MOL   O21728001   0.018   6.523   1.769 -0.6116  0.3224 -0.1005
   93MOL   C21828002   7.814   6.493   1.880 -0.8131 -0.4008 -0.0636
   93MOL   H21928003   0.236   6.680   1.492  1.7489  2.8659  1.2319
   93MOL   H22028004   0.065   6.649   1.511 -1.9782  1.8904  2.4788
   93MOL   H22128005   0.421   6.475   1.721 -0.1030  0.3108 -0.6423
   93MOL   H22228006   0.416   6.571   1.573 -0.6834 -1.6678 -0.6034
   93MOL   H22328007   0.380   6.641   1.731  0.6604 -0.1373  1.4770
   93MOL   H22428008   7.842   6.555   1.965 -1.3727 -2.2307  1.4660
   93MOL   H22528009   7.835   6.392   1.913  0.5681 -0.0933  0.0720
   93MOL   H22628010   7.709   6.509   1.857 -0.6607 -0.1266 -0.5849
   93MOL   C22728011   0.194   6.407   1.541  0.1274  0.2746  0.3201
   93MOL   C22828012   0.192   6.254   1.585 -0.0215  0.6778  0.2608
   93MOL   C22928013   0.323   6.215   1.669  0.0962  0.1774  0.0579
   93MOL   C23028014   0.076   6.220   1.674  0.2553 -0.2173  0.6478
   93MOL   O23128015   7.846   6.276   1.652  0.1924 -0.0442  0.5560
   93MOL   O23228016   0.100   6.139   1.773 -0.3270 -0.1251  0.1667
   93MOL   C23328017   0.004   6.090   1.860 -0.2453  0.0863  0.3648
   93MOL   H23428018   0.261   6.422   1.457 -2.3140  1.3475 -1.4969
   93MOL   H23528019   0.095   6.419   1.497  0.1366 -0.7583 -0.0013
   93MOL   H23628020   0.414   6.245   1.618  0.3137  1.5776  1.2355
   93MOL   H23728021   0.320   6.276   1.759 -0.9126 -1.2351  1.0026
   93MOL   H23828022   0.336   6.111   1.698 -2.4071 -0.2869 -0.3986
   93MOL   H23928023   0.027   6.011   1.931 -1.1878 -1.1790 -0.7132
   93MOL   H24028024   7.787   6.063   1.813 -0.5579 -0.7112  1.4396
   93MOL   H24128025   7.856   6.168   1.932 -0.6481 -0.9648  1.3683
   93MOL   C24228026   0.190   6.157   1.458 -0.5006 -0.2886 -0.8715
   93MOL   C24328027   0.097   6.155   1.324 -0.5904 -0.1932 -0.7903
   93MOL   C24428028   7.842   6.095   1.368  0.2469 -0.0978  0.5224
   93MOL   C24528029   0.070   6.293   1.270  0.1374 -0.6474 -0.5479
   93MOL   O24628030   7.841   6.347   1.268  0.2334  0.0742  0.7274
   93MOL   O24728031   0.180   6.360   1.223 -0.0031  0.4736  0.1263
   93MOL   C24828032   0.168   6.493   1.178 -0.3982 -0.5978  0.4890
   93MOL   H24928033   0.175   6.053   1.487 -0.9498  0.0186  0.0219
   93MOL   H25028034   0.292   6.161   1.421 -0.1766 -0.6922 -0.0365
   93MOL   H25128035   7.774   6.089   1.283  1.3282  0.3837 -0.3798
   93MOL   H25228036   7.858   5.995   1.408 -1.3109 -0.1486  1.0585
   93MOL   H25328037   7.782   6.161   1.432  0.3808  1.1963 -0.6595
   93MOL   H25428038   0.252   6.553   1.212 -1.6279  1.1388  0.5036
   93MOL   H25528039   0.067   6.530   1.194 -0.6883 -1.0471 -0.2676
   93MOL   H25628040   0.164   6.492   1.069 -0.5753  2.1077  0.4585
   93MOL   C25728041   0.169   6.071   1.217 -0.4683  0.1694  0.9484
   93MOL   C25828042   0.102   6.029   1.083 -0.3641 -0.1113  0.2254
   93MOL   C25928043   0.028   6.136   1.008  0.2112 -0.7192  1.0562
   93MOL   C26028044   0.226   5.989   0.999 -0.2398  0.1523 -0.2814
   93MOL   O26128045   0.260   6.053   0.901 -0.0682  0.1526 -0.3364
   93MOL   O26228046   0.301   5.886   1.048 -0.4899  0.1740 -0.2774
   93MOL   C26328047   0.397   5.830   0.959 -0.0148 -0.1623  0.1031
   93MOL   H26428048   0.206   5.976   1.254  1.3322  1.0164  1.3779
   93MOL   H26528049   0.267   6.116   1.204  0.4991 -1.7792  1.3900
   93MOL   H26628050   0.101   6.218   1.006 -0.4002 -0.2213 -1.7242
   93MOL   H26728051   7.871   6.116   0.907 -0.9480 -0.3388  1.3731
   93MOL   H26828052   7.814   6.177   1.049 -0.1897  0.0373 -0.5736
   93MOL   H26928053   0.467   5.763   1.009  0.0315 -0.0621  0.1711
   93MOL   H27028054   0.468   5.907   0.928  1.6159 -0.7199  2.3432
   93MOL   H27128055   0.346   5.780   0.876  0.5957  1.5273 -1.3059
   93MOL   C27228056   0.019   5.888   1.117 -0.1293  0.7235 -0.3769
   93MOL   C27328057   7.783   5.829   1.032  0.5760  0.4538  0.8800
   93MOL   C27428058   7.661   5.904   1.061  0.3215  0.5131 -0.3930
   93MOL   C27528059   7.821   5.832   0.880  0.1232 -0.4882 -0.0869
   93MOL   O27628060   0.048   5.771   0.841  0.3659  0.3423 -0.3168
   93MOL   O27728061   7.749   5.917   0.802 -0.0853  0.2665 -0.3276
   93MOL   C27828062   7.817   5.957   0.688  0.0822  0.1086  0.1676
   93MOL   H27928063   7.861   5.888   1.220 -2.8980  0.8830 -1.3080
   93MOL   H28028064   0.094   5.811   1.134 -0.9790 -0.6747 -2.7392
   93MOL   H28128065   7.675   6.013   1.059 -1.3378  0.7283 -2.4335
   93MOL   H28228066   7.581   5.887   0.988  0.0508  1.0276 -0.2230
   93MOL   H28328067   7.627   5.880   1.162 -0.1846  0.3159 -0.6051
   93MOL   H28428068   0.046   5.979   0.690 -0.1644  1.3474  2.5942
   93MOL   H28528069   7.768   6.047   0.650  0.5857  0.1347 -0.4254
   93MOL   H28628070   7.807   5.869   0.626  2.8702  1.3725 -2.1982
   93MOL   C28728071   7.757   5.681   1.085  0.1975  0.6412  0.3299
   93MOL   C28828072   7.630   5.592   1.067 -0.1311  0.8657 -0.2529
   93MOL   C28928073   7.514   5.629   1.164  0.1716  0.0732 -0.0974
   93MOL   C29028074   7.583   5.581   0.920  0.0440  0.0270  0.0834
   93MOL   O29128075   7.624   5.489   0.848 -0.1284  0.2565 -0.1570
   93MOL   O29228076   7.484   5.665   0.892 -0.0556 -0.2426  0.2422
   93MOL   C29328077   7.449   5.683   0.750  0.7913 -0.7348  0.8638
   93MOL   H29428078   7.781   5.672   1.191  2.7391 -0.2960 -0.2794
   93MOL   H29528079   7.846   5.624   1.057 -0.4407  0.1752 -0.7571
   93MOL   H29628080   7.429   5.562   1.164  0.2666 -0.0494  0.3193
   93MOL   H29728081   7.544   5.632   1.268 -2.1964  0.8837  0.5809
   93MOL   H29828082   7.463   5.725   1.162 -2.1000 -1.1122 -1.1629
   93MOL   H29928083   7.521   5.748   0.702 -2.5433  2.0705 -0.5252
   93MOL   H30028084   7.351   5.729   0.744  1.7095  1.0958 -0.4339
   93MOL   H30128085   7.448   5.588   0.697  1.7566  0.3636 -1.1483
   93MOL   H30228086   7.670   5.493   1.091  1.0935  1.8674  1.9413
   94MOL     C128087   4.377   7.580   4.858 -0.1610  1.1602 -0.2783
   94MOL     C228088   4.370   7.466   4.963  0.7248  0.7607  0.3207
   94MOL     C328089   4.396   7.538   5.099  0.5913 -0.4890 -0.3265
   94MOL     C428090   4.222   7.414   4.976 -0.4502  0.4970 -0.6143
   94MOL     O528091   4.131   7.456   4.900 -0.2566  0.3649  0.2159
   94MOL     O628092   4.218   7.319   5.067  0.5942  0.3360  0.3038
   94MOL     C728093   4.099   7.249   5.083  0.7550 -0.4524  0.1287
   94MOL     H828094   4.482   7.607   4.850 -0.0148  0.9868  0.9467
   94MOL     H928095   4.336   7.538   4.766 -1.3218  1.7644 -0.0412
   94MOL    H1028096   4.367   7.483   5.189 -1.5036  1.3492  0.1660
   94MOL    H1128097   4.499   7.565   5.120  0.3119  0.7942 -0.5787
   94MOL    H1228098   4.342   7.632   5.108 -3.9231 -2.6983 -2.4059
   94MOL    H1328099   4.053   7.288   5.173 -0.2208 -0.4044 -0.3751
   94MOL    H1428100   4.121   7.143   5.099  2.0779  0.0702  1.8667
   94MOL    H1528101   4.032   7.259   4.997 -0.0669  1.6713  1.0029
   94MOL    H1628102   4.324   7.671   4.885  0.9708  0.8934  3.0279
   94MOL    C1728103   4.474   7.346   4.961  0.5705  0.2578 -0.2925
   94MOL    C1828104   4.474   7.247   4.839 -0.5417 -0.6249 -0.2917
   94MOL    C1928105   4.503   7.328   4.706 -0.0218 -0.1079 -0.1372
   94MOL    C2028106   4.590   7.156   4.876  0.3788 -0.3099 -0.2029
   94MOL    O2128107   4.576   7.078   4.971  0.7497 -0.5945  0.2312
   94MOL    O2228108   4.710   7.169   4.807  0.2228  0.0042 -0.1463
   94MOL    C2328109   4.826   7.104   4.850 -0.0049  0.1185 -0.2148
   94MOL    H2428110   4.466   7.278   5.045  0.7925 -0.5127 -0.8983
   94MOL    H2528111   4.575   7.386   4.958 -0.1541  2.2682  0.6517
   94MOL    H2628112   4.569   7.414   4.721  0.3937  0.0742 -2.7495
   94MOL    H2728113   4.540   7.270   4.622 -0.2339 -0.3400 -0.0686
   94MOL    H2828114   4.411   7.375   4.669  0.1544 -0.0456 -0.4979
   94MOL    H2928115   4.897   7.082   4.770  1.3240 -0.8603  1.1895
   94MOL    H3028116   4.801   7.014   4.908 -0.0836  0.1132 -0.2584
   94MOL    H3128117   4.871   7.164   4.929  0.9207 -2.1929  1.0927
   94MOL    C3228118   4.337   7.175   4.810 -0.6626 -0.0404 -0.3505
   94MOL    C3328119   4.308   7.054   4.707  0.2794 -0.1399 -0.0388
   94MOL    C3428120   4.436   6.964   4.683  0.2384 -0.1335 -0.4205
   94MOL    C3528121   4.195   6.963   4.765  0.2539  0.3922  0.2764
   94MOL    O3628122   4.186   6.838   4.738  0.6463 -0.3701 -0.3278
   94MOL    O3728123   4.092   7.035   4.824 -0.4560 -0.9526 -0.0079
   94MOL    C3828124   3.982   6.963   4.873  0.5861 -0.3991  0.0131
   94MOL    H3928125   4.265   7.253   4.784 -0.0173  1.1722  1.3795
   94MOL    H4028126   4.295   7.150   4.908  1.5955 -0.0304  0.6446
   94MOL    H4128127   4.459   6.906   4.773 -1.4429 -1.6109 -0.9314
   94MOL    H4228128   4.402   6.878   4.625 -1.7947 -0.4021  1.1105
   94MOL    H4328129   4.529   7.003   4.642  1.1050 -1.5900  0.0879
   94MOL    H4428130   3.906   7.034   4.904  1.2794 -0.1636  1.1901
   94MOL    H4528131   4.014   6.911   4.963  0.0184  1.2347  1.1688
   94MOL    H4628132   3.935   6.903   4.795 -2.7242 -0.4348  1.9780
   94MOL    C4728133   4.251   7.122   4.574 -0.1825 -0.5286  0.1554
   94MOL    C4828134   4.231   7.052   4.428  0.3187  0.5616 -0.1603
   94MOL    C4928135   4.373   7.032   4.377  0.1525 -0.2522  0.5061
   94MOL    C5028136   4.155   6.917   4.448  0.3758 -0.3718  0.0117
   94MOL    O5128137   4.212   6.812   4.424 -0.3030 -0.2534  0.4880
   94MOL    O5228138   4.020   6.934   4.472 -0.3235 -0.1787 -0.5939
   94MOL    C5328139   3.934   6.819   4.497 -0.5614  0.7299  0.1903
   94MOL    H5428140   4.313   7.211   4.561 -1.3989  0.8268  3.2453
   94MOL    H5528141   4.158   7.166   4.609  0.4170  0.7468  0.1701
   94MOL    H5628142   4.374   7.007   4.271  0.6621  1.8887 -0.0114
   94MOL    H5728143   4.440   7.117   4.392 -0.1912 -0.1941  1.7870
   94MOL    H5828144   4.422   6.948   4.428 -1.8486 -0.3688  2.3236
   94MOL    H5928145   3.832   6.851   4.480 -1.2600 -1.6863 -0.3140
   94MOL    H6028146   3.948   6.781   4.598 -3.7560  1.0690  0.8102
   94MOL    H6128147   3.956   6.733   4.432 -0.4613  0.3579  0.7107
   94MOL    C6228148   4.164   7.155   4.337 -0.6098 -0.3624 -0.2188
   94MOL    C6328149   4.155   7.157   4.181 -0.4739 -0.4285 -0.3627
   94MOL    C6428150   4.279   7.232   4.124 -0.7946 -0.8246 -0.0616
   94MOL    C6528151   4.139   7.019   4.124  0.9691 -0.2176  0.1601
   94MOL    O6628152   4.232   6.970   4.062  0.1116 -0.0982 -0.1490
   94MOL    O6728153   4.022   6.965   4.152  0.3839 -0.1075 -0.4681
   94MOL    C6828154   3.993   6.831   4.120  0.4543  0.6200  0.0193
   94MOL    H6928155   4.211   7.248   4.369  0.0570 -0.6957 -0.2388
   94MOL    H7028156   4.065   7.171   4.382 -0.9870  0.2508 -1.2532
   94MOL    H7128157   4.283   7.341   4.129 -0.2323 -0.7504 -1.6754
   94MOL    H7228158   4.376   7.208   4.168 -0.6355 -1.1816 -0.6112
   94MOL    H7328159   4.278   7.208   4.018  1.0742  2.3860 -0.9003
   94MOL    H7428160   4.056   6.761   4.174 -3.1600 -1.3602  1.7923
   94MOL    H7528161   4.007   6.809   4.014  2.1511  0.7588  0.1944
   94MOL    H7628162   3.890   6.805   4.143  0.5585  1.8730  2.0561
   94MOL    C7728163   4.024   7.241   4.152  0.1907  0.0831 -0.4499
   94MOL    C7828164   3.973   7.288   4.007 -0.1975 -1.0746  0.3784
   94MOL    C7928165   3.981   7.171   3.907 -0.2017 -0.1585  1.0279
   94MOL    C8028166   3.818   7.315   4.022  0.6155 -0.2514  0.1823
   94MOL    O8128167   3.762   7.429   4.011  0.0760  0.1613  0.6968
   94MOL    O8228168   3.743   7.208   4.043 -0.6070  0.2185 -0.2586
   94MOL    C8328169   3.601   7.205   4.031  0.1449 -0.4696  1.3399
   94MOL    H8428170   4.029   7.335   4.208  0.8662 -0.7303  0.8941
   94MOL    H8528171   3.934   7.198   4.197 -0.7757  0.5211 -1.9305
   94MOL    H8628172   4.084   7.136   3.906 -0.0797  0.1967 -0.2795
   94MOL    H8728173   3.918   7.085   3.931 -0.5682 -0.8112 -2.0403
   94MOL    H8828174   3.946   7.194   3.806 -0.0086 -2.5809  0.3847
   94MOL    H8928175   3.551   7.244   4.121 -1.4132  0.0677  0.2741
   94MOL    H9028176   3.555   7.106   4.022  0.8809 -0.7268  0.3716
   94MOL    H9128177   3.568   7.272   3.952  0.5637 -1.1696  0.5781
   94MOL    C9228178   4.062   7.425   3.963  0.0534 -0.2711  0.8553
   94MOL    C9328179   4.038   7.529   3.845 -0.0380  0.1482  0.1301
   94MOL    C9428180   3.958   7.441   3.731  0.1354 -0.1049  0.2717
   94MOL    C9528181   3.943   7.650   3.882 -0.0293  0.3043  0.4265
   94MOL    O9628182   3.856   7.683   3.801 -0.1654 -0.3484 -0.0348
   94MOL    O9728183   3.953   7.715   4.002 -0.2360 -0.0805 -0.3859
   94MOL    C9828184   3.869   7.822   4.036 -0.2059  0.2660  0.4189
   94MOL    H9928185   4.160   7.381   3.945 -0.1008 -0.6596  0.9543
   94MOL   H10028186   4.083   7.484   4.053 -0.0729  0.5206  0.3689
   94MOL   H10128187   3.945   7.508   3.646  0.3375  1.4303  1.4216
   94MOL   H10228188   4.012   7.354   3.694 -1.6230 -1.7750  1.5229
   94MOL   H10328189   3.858   7.406   3.755 -0.2766  0.4661 -0.5652
   94MOL   H10428190   3.893   0.017   3.959 -0.1289 -1.0855 -0.8557
   94MOL   H10528191   3.893   7.865   4.134  0.6556  1.7142 -0.4095
   94MOL   H10628192   3.765   7.788   4.030  0.1464 -1.2716  2.3967
   94MOL   C10728193   4.178   7.570   3.781 -0.1933 -0.0971  0.7406
   94MOL   C10828194   4.274   7.678   3.838  0.7079 -0.4437  0.4876
   94MOL   C10928195   4.230   7.819   3.785  0.3411 -0.1644 -0.3500
   94MOL   C11028196   4.275   7.687   3.995 -0.6436 -0.2281 -0.0537
   94MOL   O11128197   4.327   7.595   4.063 -0.0491 -0.3374  0.6537
   94MOL   O11228198   4.223   7.801   4.050  0.1692  0.3191 -0.5694
   94MOL   C11328199   4.243   7.827   4.183  0.4202 -0.2106  0.3834
   94MOL   H11428200   4.161   7.607   3.680 -0.9136  1.8856  1.5469
   94MOL   H11528201   4.232   7.476   3.773  0.1983  0.3687 -2.9498
   94MOL   H11628202   4.302   0.019   3.812  0.0771 -0.4504  1.2040
   94MOL   H11728203   4.235   7.827   3.676 -1.5923  2.4656 -0.2903
   94MOL   H11828204   4.135   7.852   3.827  1.2489  2.1812 -0.0285
   94MOL   H11928205   4.189   7.753   4.242 -2.6801  1.0191 -0.8359
   94MOL   H12028206   4.221   0.051   4.217 -2.4680 -0.9165  0.7674
   94MOL   H12128207   4.348   7.813   4.209  1.1990  2.6685 -1.0254
   94MOL   C12228208   4.422   7.641   3.797 -0.1785  0.2531  0.3494
   94MOL   C12328209   4.482   7.616   3.649 -0.8149  0.5223 -0.1273
   94MOL   C12428210   4.420   7.487   3.577  0.0868 -0.2249  1.3521
   94MOL   C12528211   4.452   7.732   3.561 -0.0277 -0.9377  0.2469
   94MOL   O12628212   4.377   7.726   3.463  0.0100 -0.2748 -0.0131
   94MOL   O12728213   4.514   7.844   3.602 -0.3212 -0.3842  0.0295
   94MOL   C12828214   4.507   0.080   3.524 -0.3425 -0.1174  0.1289
   94MOL   H12928215   4.454   7.561   3.862 -2.6077  0.2675  1.6112
   94MOL   H13028216   4.472   7.726   3.843 -0.2808  0.9624 -0.8084
   94MOL   H13128217   4.314   7.493   3.553  0.3183  2.5809  0.7915
   94MOL   H13228218   4.457   7.474   3.476 -1.4763  1.6787  0.4867
   94MOL   H13328219   4.440   7.392   3.626 -0.1506 -1.5753 -1.1046
   94MOL   H13428220   4.567   0.154   3.578  1.1152  0.8275 -2.7084
   94MOL   H13528221   4.406   0.122   3.519 -0.0507  0.4057 -1.9218
   94MOL   H13628222   4.539   0.047   3.426 -0.4345  1.4994 -0.4689
   94MOL   C13728223   4.637   7.594   3.684  1.1674  0.1002  0.2823
   94MOL   C13828224   4.736   7.556   3.573 -0.0779 -0.2362  1.0748
   94MOL   C13928225   4.719   7.638   3.446 -0.0127  0.1096 -0.5329
   94MOL   C14028226   4.877   7.595   3.633  0.6466  0.0148  0.3522
   94MOL   O14128227   4.948   7.684   3.580 -0.0787 -0.4413  0.1015
   94MOL   O14228228   4.912   7.517   3.740 -0.6685 -0.1135 -0.2016
   94MOL   C14328229   5.037   7.555   3.806 -0.2456 -0.5278 -0.0010
   94MOL   H14428230   4.627   7.516   3.759  1.1735 -0.7511 -0.5952
   94MOL   H14528231   4.666   7.689   3.728  1.2057 -0.2420  1.0007
   94MOL   H14628232   4.640   7.596   3.383 -0.8642  0.7211  0.1188
   94MOL   H14728233   4.704   7.743   3.471  0.3530  0.1151 -0.3211
   94MOL   H14828234   4.807   7.645   3.382  0.1520 -0.8498 -0.4239
   94MOL   H14928235   4.996   7.583   3.903  0.1182  1.0925 -0.3127
   94MOL   H15028236   5.084   7.649   3.778 -1.5024 -0.4372 -1.8792
   94MOL   H15128237   5.099   7.468   3.829 -1.2686 -1.0448  0.8572
   94MOL   C15228238   4.733   7.400   3.531 -0.0397  0.5563  0.0754
   94MOL   C15328239   4.859   7.318   3.472  0.3241  0.2055  0.9091
   94MOL   C15428240   4.940   7.268   3.598  0.0263 -0.1394 -0.6631
   94MOL   C15528241   4.795   7.192   3.407  0.3288 -0.1362  0.0072
   94MOL   O15628242   4.718   7.204   3.309  0.0025 -0.2585 -0.0669
   94MOL   O15728243   4.819   7.074   3.466 -0.4919  0.0969 -0.1837
   94MOL   C15828244   4.738   6.964   3.436  0.3592 -0.0015  0.1936
   94MOL   H15928245   4.650   7.395   3.462 -1.3237 -1.6298  1.7212
   94MOL   H16028246   4.680   7.345   3.609  1.0070  1.9496  1.8307
   94MOL   H16128247   4.880   7.251   3.687  2.2831  0.7973  1.1061
   94MOL   H16228248   5.004   7.184   3.570 -0.4057 -0.8049  0.3458
   94MOL   H16328249   5.008   7.350   3.620  1.3681 -0.9531 -1.6465
   94MOL   H16428250   4.748   6.924   3.335 -2.0732 -0.2267  0.0116
   94MOL   H16528251   4.632   6.991   3.437  0.9440  2.6431 -2.0484
   94MOL   H16628252   4.753   6.886   3.510 -0.2380  1.7922  2.2630
   94MOL   C16728253   4.938   7.408   3.364 -0.0015 -0.6321  0.3394
   94MOL   C16828254   5.073   7.379   3.288  0.2850  0.4338  0.9907
   94MOL   C16928255   5.185   7.396   3.390 -0.0530 -0.1215 -0.5183
   94MOL   C17028256   5.072   7.232   3.238  0.4407 -0.5350 -0.5019
   94MOL   O17128257   5.157   7.152   3.267  0.4047 -0.0894  0.6367
   94MOL   O17228258   4.973   7.209   3.151  0.0924  0.1013 -0.1477
   94MOL   C17328259   4.946   7.078   3.100 -0.3985 -0.1259 -0.7058
   94MOL   H17428260   4.955   7.508   3.404  1.2152  0.2698 -2.3015
   94MOL   H17528261   4.870   7.412   3.279  1.7196 -2.3182 -1.1576
   94MOL   H17628262   5.182   7.497   3.431  1.1883 -0.1602 -0.3084
   94MOL   H17728263   5.182   7.334   3.480 -0.3732 -0.0778 -0.4997
   94MOL   H17828264   5.289   7.396   3.357  0.3354  1.4710  0.6345
   94MOL   H17928265   5.024   7.049   3.031  0.0558  0.3529 -0.4061
   94MOL   H18028266   4.850   7.088   3.049 -0.7081 -0.1551 -0.1408
   94MOL   H18128267   4.953   7.011   3.186 -0.3264  2.3701  1.3388
   94MOL   C18228268   5.076   7.481   3.161  0.0817 -0.2653  0.4683
   94MOL   C18328269   5.189   7.496   3.052 -0.3965  0.2890  0.6676
   94MOL   C18428270   5.262   7.626   3.054 -0.8592  0.3887 -0.3677
   94MOL   C18528271   5.298   7.384   3.064 -0.9860  0.3811  0.1270
   94MOL   O18628272   5.403   7.400   3.125 -0.1418  0.1208 -0.3343
   94MOL   O18728273   5.271   7.273   2.987 -0.0220 -0.2191  0.9759
   94MOL   C18828274   5.348   7.159   3.009 -0.7588  0.2205 -0.6256
   94MOL   H18928275   5.062   7.579   3.206  1.3390  0.6405 -1.0470
   94MOL   H19028276   4.980   7.466   3.113  0.4814  1.7045 -1.0180
   94MOL   H19128277   5.325   7.625   2.965  1.3227  0.1359  1.1284
   94MOL   H19228278   5.204   7.719   3.059 -2.2961 -0.3849 -2.0880
   94MOL   H19328279   5.332   7.631   3.137  0.6207 -0.2737 -1.5394
   94MOL   H19428280   5.454   7.186   3.003 -0.1242 -1.6883  1.4217
   94MOL   H19528281   5.335   7.082   2.933 -0.1867 -1.7427  1.2477
   94MOL   H19628282   5.337   7.116   3.108 -0.4681  2.9124  0.6269
   94MOL   C19728283   5.117   7.469   2.913 -0.5783  0.7177  0.1594
   94MOL   C19828284   5.029   7.586   2.849  0.6198 -0.1261  0.7596
   94MOL   C19928285   4.933   7.651   2.951 -0.4359  0.1666  0.0588
   94MOL   C20028286   5.124   7.702   2.797  0.7990  0.5864  0.0429
   94MOL   O20128287   5.098   7.820   2.808  0.2217  0.3604 -0.8481
   94MOL   O20228288   5.230   7.661   2.726  0.0019 -0.4732 -0.8051
   94MOL   C20328289   5.312   7.765   2.678  0.5478 -0.1328 -0.7441
   94MOL   H20428290   5.059   7.377   2.908  1.1853 -0.4447  0.6587
   94MOL   H20528291   5.190   7.435   2.839 -1.5498 -0.1653 -0.4007
   94MOL   H20628292   4.875   7.734   2.911  3.5466  1.8255 -2.5951
   94MOL   H20728293   4.857   7.581   2.986  0.1219 -0.1369  0.6729
   94MOL   H20828294   4.977   7.702   3.036 -0.4567 -1.0073  0.7828
   94MOL   H20928295   5.364   7.821   2.754  2.8604 -1.3646 -1.3722
   94MOL   H21028296   5.261   7.828   2.606 -3.4355 -1.7003  0.5564
   94MOL   H21128297   5.393   7.710   2.630  0.1294 -0.4866 -1.0649
   94MOL   C21228298   4.965   7.520   2.724 -0.0967 -0.1107 -0.0946
   94MOL   C21328299   4.899   7.597   2.604 -0.5196 -0.2166  0.0566
   94MOL   C21428300   4.816   7.720   2.642 -0.0067  0.2217  0.5569
   94MOL   C21528301   5.014   7.645   2.503 -0.0036  0.1020 -0.4852
   94MOL   O21628302   5.008   7.760   2.452 -0.2455 -0.5052  0.4253
   94MOL   O21728303   5.097   7.549   2.465 -0.2593 -0.8184 -0.2046
   94MOL   C21828304   5.192   7.586   2.367 -0.1266  0.3366 -0.3446
   94MOL   H21928305   4.884   7.461   2.768  1.6626 -1.5137  1.3402
   94MOL   H22028306   5.006   7.429   2.683 -3.5204 -2.5512  1.6504
   94MOL   H22128307   4.873   7.802   2.686  0.9366 -0.0392 -0.1630
   94MOL   H22228308   4.775   7.750   2.546 -2.6746 -2.3216  0.7902
   94MOL   H22328309   4.732   7.696   2.707 -1.2658  0.0490 -1.0993
   94MOL   H22428310   5.241   7.501   2.319  0.2259  0.2111  0.2360
   94MOL   H22528311   5.273   7.655   2.391  0.9675 -0.7090 -0.9673
   94MOL   H22628312   5.142   7.639   2.286  0.8730  1.8188 -0.0219
   94MOL   C22728313   4.802   7.489   2.532  0.2024 -0.1605  0.0408
   94MOL   C22828314   4.683   7.511   2.427 -0.4315  0.2761 -1.2587
   94MOL   C22928315   4.744   7.601   2.315 -0.5711 -0.2974 -0.9677
   94MOL   C23028316   4.654   7.374   2.366 -0.8867  0.5107  0.0618
   94MOL   O23128317   4.673   7.355   2.245  0.7048  0.0203 -0.0099
   94MOL   O23228318   4.621   7.276   2.457  0.6613  0.0478 -0.0943
   94MOL   C23328319   4.592   7.150   2.413  0.7235 -0.2293  0.0557
   94MOL   H23428320   4.764   7.430   2.615  0.4867 -0.5739 -0.1258
   94MOL   H23528321   4.866   7.418   2.480 -0.6272 -0.4431 -0.6047
   94MOL   H23628322   4.833   7.553   2.277  1.0963 -0.3547  2.7583
   94MOL   H23728323   4.688   7.605   2.222  0.0820 -2.2987 -1.4758
   94MOL   H23828324   4.778   7.698   2.352  1.7954 -1.3205 -0.4092
   94MOL   H23928325   4.666   7.087   2.464  1.4150 -0.7927 -1.6041
   94MOL   H24028326   4.597   7.134   2.305 -2.0657  2.0933 -0.4587
   94MOL   H24128327   4.494   7.110   2.438  1.5193 -0.8923  2.2721
   94MOL   C24228328   4.563   7.579   2.519 -0.4854  0.2372 -0.0602
   94MOL   C24328329   4.414   7.572   2.462  0.2852  0.5413  0.2202
   94MOL   C24428330   4.417   7.611   2.317 -0.3070 -0.5941  0.8207
   94MOL   C24528331   4.350   7.427   2.476  0.1023 -0.6428  0.4013
   94MOL   O24628332   4.380   7.348   2.565 -0.5238  0.4844 -0.0522
   94MOL   O24728333   4.257   7.403   2.387 -0.4592 -0.3315  0.5846
   94MOL   C24828334   4.163   7.292   2.395  0.0514  0.1471  0.1650
   94MOL   H24928335   4.582   7.685   2.531  1.4756 -0.1362  0.2972
   94MOL   H25028336   4.567   7.537   2.619 -3.3885 -0.2141 -0.0752
   94MOL   H25128337   4.318   7.636   2.280 -1.0690 -1.5304  2.1563
   94MOL   H25228338   4.478   7.701   2.318  0.2689 -0.9810  0.9586
   94MOL   H25328339   4.451   7.534   2.247 -2.8167 -1.1205  0.1369
   94MOL   H25428340   4.209   7.194   2.384 -0.9184 -0.3502  0.4651
   94MOL   H25528341   4.088   7.316   2.320 -2.0021 -3.7333  0.8304
   94MOL   H25628342   4.108   7.292   2.490 -0.2956 -4.0612  0.0581
   94MOL   C25728343   4.316   7.671   2.528 -0.0973 -0.1165  0.0815
   94MOL   C25828344   4.294   7.694   2.679  0.5168  0.0213 -0.4182
   94MOL   C25928345   4.303   7.569   2.766 -0.0854 -0.2402  0.3040
   94MOL   C26028346   4.415   7.782   2.724 -0.0779  0.4807 -0.5311
   94MOL   O26128347   4.493   7.742   2.807  0.0848 -0.1599  0.3105
   94MOL   O26228348   4.427   0.020   2.661  0.7709  0.0366  1.0620
   94MOL   C26328349   4.539   0.104   2.672 -0.2313 -0.2129  0.4538
   94MOL   H26428350   4.223   7.633   2.486 -0.6467  0.3965  0.8156
   94MOL   H26528351   4.327   7.761   2.468 -0.9871 -0.6726 -0.9396
   94MOL   H26628352   4.397   7.514   2.761  0.8585  1.4185 -0.6083
   94MOL   H26728353   4.304   7.596   2.872  1.6756 -0.2544  0.3047
   94MOL   H26828354   4.221   7.501   2.744 -1.2356  1.1317  0.2877
   94MOL   H26928355   4.623   0.071   2.611 -0.0525  0.2065  0.4728
   94MOL   H27028356   4.568   0.112   2.777  1.4422  0.5007 -0.0545
   94MOL   H27128357   4.519   0.209   2.650  3.3025  0.5733  0.8118
   94MOL   C27228358   4.167   7.786   2.707 -0.4376  0.8027 -0.4249
   94MOL   C27328359   4.015   7.743   2.708 -0.2115  0.1311  1.0386
   94MOL   C27428360   3.931   0.002   2.703  0.0176 -0.0871  0.2966
   94MOL   C27528361   3.984   7.677   2.573 -0.2078 -0.8976 -1.3361
   94MOL   O27628362   3.968   7.549   2.571  0.1076  0.2670 -0.5242
   94MOL   O27728363   3.970   7.755   2.466  0.1053  0.0340 -0.2489
   94MOL   C27828364   3.912   7.697   2.354 -0.0715  0.8574 -0.3828
   94MOL   H27928365   4.172   7.874   2.643 -0.8780  0.4666 -0.9281
   94MOL   H28028366   4.173   7.842   2.800 -0.2838 -2.9611  1.9667
   94MOL   H28128367   3.975   0.074   2.635  2.7425 -1.4335  0.5328
   94MOL   H28228368   3.827   7.867   2.675  0.6120 -0.7059 -1.7188
   94MOL   H28328369   3.941   0.043   2.804  1.9003 -1.6413  0.7992
   94MOL   H28428370   3.964   7.608   2.318 -1.3134  0.1439 -0.4784
   94MOL   H28528371   3.913   7.772   2.275  1.6177 -0.5840 -1.7748
   94MOL   H28628372   3.806   7.670   2.359  0.2130 -0.8788 -2.8027
   94MOL   C28728373   3.968   7.641   2.820 -0.4356  0.5933 -0.2046
   94MOL   C28828374   3.953   7.697   2.968 -0.3472  0.4965 -0.1630
   94MOL   C28928375   3.866   7.606   3.052 -0.2179 -0.0050 -0.0226
   94MOL   C29028376   4.095   7.708   3.029 -0.2541 -0.6721 -0.3626
   94MOL   O29128377   4.150   7.818   3.026 -0.0578 -0.2996 -0.5283
   94MOL   O29228378   4.133   7.602   3.099 -0.6984 -0.1454 -0.0188
   94MOL   C29328379   4.256   7.606   3.167 -0.1590  0.5984  0.7919
   94MOL   H29428380   4.036   7.556   2.818 -1.3753 -0.1490 -0.8315
   94MOL   H29528381   3.866   7.607   2.802  0.2283 -1.0386 -0.9629
   94MOL   H29628382   3.886   7.502   3.026 -2.1947 -1.0686  2.4481
   94MOL   H29728383   3.866   7.626   3.159 -2.4147  0.6435 -0.1137
   94MOL   H29828384   3.758   7.597   3.037 -0.3116  2.0609 -0.7538
   94MOL   H29928385   4.344   7.617   3.104 -0.8027 -1.9551 -0.6570
   94MOL   H30028386   4.261   7.511   3.220  3.2777 -0.6834 -1.6442
   94MOL   H30128387   4.260   7.685   3.242  1.6556  1.0898  0.2046
   94MOL   H30228388   3.907   7.796   2.963 -2.3755 -0.4285 -0.4723
   95MOL     C128389   1.527   6.362   6.172  0.5843  0.3956 -0.1522
   95MOL     C228390   1.383   6.358   6.117  0.0471  0.6238  0.2693
   95MOL     C328391   1.288   6.390   6.237 -0.0713  0.1287 -0.1520
   95MOL     C428392   1.370   6.463   6.001 -0.5922  0.2180  0.4496
   95MOL     O528393   1.463   6.490   5.925  0.0966 -0.1913  0.3627
   95MOL     O628394   1.248   6.511   5.998 -0.1774 -0.4150 -0.1221
   95MOL     C728395   1.219   6.618   5.910 -0.2817  0.2010  0.0376
   95MOL     H828396   1.554   6.467   6.160 -0.1764  0.6162  0.0407
   95MOL     H928397   1.530   6.336   6.278 -2.9901  0.4908  0.0203
   95MOL    H1028398   1.276   6.315   6.315 -1.0011  1.5067  1.0483
   95MOL    H1128399   1.329   6.475   6.291 -0.7517  0.6058 -0.3917
   95MOL    H1228400   1.189   6.416   6.201  0.2418  0.3454 -0.8668
   95MOL    H1328401   1.147   6.684   5.958 -0.5246 -0.5173  0.6791
   95MOL    H1428402   1.174   6.582   5.818  0.5909 -0.6455 -0.0669
   95MOL    H1528403   1.310   6.674   5.884  0.4398 -2.4408 -3.5674
   95MOL    H1628404   1.594   6.302   6.111 -1.3628 -0.0572 -1.8764
   95MOL    C1728405   1.373   6.213   6.060  0.2055  0.1852  0.6953
   95MOL    C1828406   1.261   6.157   5.962 -1.6471  0.2196 -0.0652
   95MOL    C1928407   1.303   6.200   5.819 -0.7587 -0.6313 -0.4721
   95MOL    C2028408   1.273   5.999   5.965  0.1796  0.0569  0.7942
   95MOL    O2128409   1.308   5.936   5.863 -0.9488  0.1668 -0.3760
   95MOL    O2228410   1.235   5.942   6.074  0.2219  0.8579 -0.0335
   95MOL    C2328411   1.261   5.800   6.094 -0.0750  0.3390  0.2439
   95MOL    H2428412   1.370   6.144   6.144 -3.2519 -0.3632  0.1907
   95MOL    H2528413   1.462   6.195   6.000  1.1580  1.0224  1.8437
   95MOL    H2628414   1.404   6.168   5.792  0.5461  0.0082  3.3715
   95MOL    H2728415   1.246   6.143   5.746  1.8229 -1.3335 -1.9909
   95MOL    H2828416   1.292   6.308   5.804 -0.4896 -0.1610  2.4090
   95MOL    H2928417   1.359   5.757   6.116  0.6848  1.8810 -0.0537
   95MOL    H3028418   1.208   5.741   6.019  0.5964 -0.4628  0.3910
   95MOL    H3128419   1.209   5.786   6.188 -1.9336  0.6168 -0.7224
   95MOL    C3228420   1.113   6.201   5.998  0.2427 -0.1123 -0.6867
   95MOL    C3328421   0.980   6.128   5.949  0.2519  0.1435  0.3144
   95MOL    C3428422   0.978   6.079   5.802  0.0477 -0.1519  0.3530
   95MOL    C3528423   0.949   6.009   6.040 -0.2788  0.4042  0.1597
   95MOL    O3628424   0.927   5.902   5.982 -0.1198 -0.1364 -0.1493
   95MOL    O3728425   0.942   6.036   6.166  0.3458 -1.1640  0.3888
   95MOL    C3828426   0.939   5.941   6.260  0.4995 -0.2776 -1.0376
   95MOL    H3928427   1.094   6.307   5.982 -0.6082 -0.0742  0.5007
   95MOL    H4028428   1.108   6.214   6.107 -0.7013 -2.6006 -0.4027
   95MOL    H4128429   1.017   6.160   5.740 -2.2816  0.8865  0.1672
   95MOL    H4228430   1.045   5.995   5.785  0.8755  0.0705  2.3738
   95MOL    H4328431   0.882   6.041   5.769  0.4225 -1.8791  1.2098
   95MOL    H4428432   0.833   5.927   6.285  0.1418  2.0592 -1.1567
   95MOL    H4528433   0.973   5.992   6.350 -0.6959 -1.3595  0.0585
   95MOL    H4628434   1.005   5.857   6.238 -0.7247 -1.3259 -0.7858
   95MOL    C4728435   0.861   6.230   5.982 -0.1950 -0.0834  0.6031
   95MOL    C4828436   0.793   6.329   5.872 -0.0703  0.7391  0.6119
   95MOL    C4928437   0.910   6.418   5.817  0.4919  0.7582  0.2213
   95MOL    C5028438   0.724   6.250   5.755  0.6051 -0.2278  0.0774
   95MOL    O5128439   0.745   6.277   5.639  0.1944  0.1717 -0.3542
   95MOL    O5228440   0.642   6.153   5.803  0.3446 -0.5770  0.0239
   95MOL    C5328441   0.593   6.056   5.722 -0.0511 -0.4431  0.7409
   95MOL    H5428442   0.878   6.282   6.076  1.6591  0.6639 -0.1168
   95MOL    H5528443   0.773   6.172   6.012  0.7710 -1.8256  0.1780
   95MOL    H5628444   0.871   6.512   5.778 -0.0403  0.0781 -0.8868
   95MOL    H5728445   0.987   6.448   5.889  0.7074 -1.4565  0.9697
   95MOL    H5828446   0.978   6.369   5.747  0.7628  2.1807 -0.5197
   95MOL    H5928447   0.538   6.100   5.639 -1.2703 -1.8705  0.7764
   95MOL    H6028448   0.521   6.000   5.782  0.1161  0.0129  1.3667
   95MOL    H6128449   0.678   5.991   5.700  1.6628  2.4250 -1.3789
   95MOL    C6228450   0.686   6.435   5.930  0.5671 -0.5463 -0.5469
   95MOL    C6328451   0.704   6.530   6.056 -0.0511  0.2588 -0.3290
   95MOL    C6428452   0.851   6.587   6.069 -0.4115 -0.5925  0.2120
   95MOL    C6528453   0.608   6.648   6.042 -0.5671 -0.3640  0.3301
   95MOL    O6628454   0.648   6.762   6.075  0.2089  0.2259 -0.1808
   95MOL    O6728455   0.484   6.613   6.012  0.1705  0.0736 -0.0191
   95MOL    C6828456   0.387   6.714   6.008  0.5204 -0.1141  0.2538
   95MOL    H6928457   0.593   6.378   5.928 -0.7380  1.4905 -0.0822
   95MOL    H7028458   0.665   6.499   5.844 -0.7849 -1.1219 -0.6572
   95MOL    H7128459   0.855   6.662   6.148 -3.1050 -0.1627 -0.0033
   95MOL    H7228460   0.927   6.511   6.082 -0.0810 -0.1669  0.7632
   95MOL    H7328461   0.879   6.639   5.977  1.8920 -1.2720  0.4939
   95MOL    H7428462   0.376   6.768   6.102  4.3521  2.0899 -0.4481
   95MOL    H7528463   0.291   6.684   5.967 -0.3929 -0.0309  2.2821
   95MOL    H7628464   0.416   6.795   5.941  0.0262 -0.8275 -0.8340
   95MOL    C7728465   0.656   6.438   6.177  0.2404  0.2056  0.1094
   95MOL    C7828466   0.672   6.474   6.326  0.4086 -0.1719 -0.1190
   95MOL    C7928467   0.821   6.448   6.365  0.4093  0.3755  0.1345
   95MOL    C8028468   0.624   6.612   6.363  0.3100  0.2014  0.3537
   95MOL    O8128469   0.700   6.699   6.402 -0.4161 -0.0320  0.7319
   95MOL    O8228470   0.495   6.624   6.348 -0.1332 -0.1004 -0.2196
   95MOL    C8328471   0.414   6.742   6.375 -0.2307  0.4057 -0.2983
   95MOL    H8428472   0.686   6.334   6.165  0.2745  0.3449 -1.0365
   95MOL    H8528473   0.550   6.423   6.158  0.6514 -0.7624 -1.5016
   95MOL    H8628474   0.891   6.506   6.306  1.9126 -0.4241  1.1146
   95MOL    H8728475   0.847   6.481   6.465  1.2123 -1.1349  0.4480
   95MOL    H8828476   0.834   6.342   6.340  0.8922 -0.0777  2.2096
   95MOL    H8928477   0.373   6.794   6.289  0.6353  1.3283 -0.1648
   95MOL    H9028478   0.469   6.817   6.431  0.9305  0.8091 -1.9356
   95MOL    H9128479   0.341   6.713   6.450  0.6172 -1.0170  0.0028
   95MOL    C9228480   0.591   6.360   6.414  0.1997  0.1150  0.2935
   95MOL    C9328481   0.618   6.327   6.566 -0.4132  0.0888 -0.1365
   95MOL    C9428482   0.748   6.236   6.576 -0.0029  0.1731 -0.9904
   95MOL    C9528483   0.649   6.456   6.648  0.0607  0.4853  0.5044
   95MOL    O9628484   0.762   6.474   6.701  0.5260 -0.0533 -0.2067
   95MOL    O9728485   0.551   6.539   6.655  0.0908  0.3202  0.0295
   95MOL    C9828486   0.573   6.660   6.722 -0.1760 -0.1218 -0.2694
   95MOL    H9928487   0.587   6.264   6.363  0.2889  0.6849 -0.8078
   95MOL   H10028488   0.490   6.398   6.400 -0.2289 -0.7743  0.9462
   95MOL   H10128489   0.748   6.140   6.525 -0.1474  0.0473 -0.7577
   95MOL   H10228490   0.837   6.289   6.544  0.7009  0.4212  1.2929
   95MOL   H10328491   0.781   6.228   6.680  1.5771  2.1351 -1.3098
   95MOL   H10428492   0.612   6.641   6.822  1.9049 -0.0882 -1.0432
   95MOL   H10528493   0.487   6.726   6.728 -0.3656 -0.4603  0.7787
   95MOL   H10628494   0.650   6.712   6.665 -2.2763  0.4753 -2.6178
   95MOL   C10728495   0.483   6.257   6.616 -0.1304  0.4652  0.6960
   95MOL   C10828496   0.477   6.170   6.748 -0.4958 -0.0390 -0.7807
   95MOL   C10928497   0.579   6.050   6.738  0.9088 -0.6176 -0.5007
   95MOL   C11028498   0.529   6.249   6.876  0.1620  0.3300  0.6364
   95MOL   O11128499   0.616   6.202   6.951  0.1417  0.1060 -0.0713
   95MOL   O11228500   0.471   6.361   6.888  0.0310 -0.1173 -0.4292
   95MOL   C11328501   0.475   6.419   7.018 -0.1271 -0.3042 -0.5513
   95MOL   H11428502   0.444   6.196   6.534  0.0379  0.5253  0.5699
   95MOL   H11528503   0.410   6.337   6.624 -2.6891 -1.6475 -0.8169
   95MOL   H11628504   0.594   6.011   6.637 -0.4468 -0.4682 -0.7664
   95MOL   H11728505   0.679   6.071   6.776  1.1457 -1.3250 -0.7314
   95MOL   H11828506   0.562   5.964   6.803 -0.6119  0.8671  1.1041
   95MOL   H11928507   0.421   6.513   7.007  0.4043 -0.2706 -3.1930
   95MOL   H12028508   0.573   6.442   7.059 -0.1765  1.7277 -1.4931
   95MOL   H12128509   0.418   6.364   7.092 -1.2141 -0.3952 -1.4318
   95MOL   C12228510   0.335   6.103   6.754  0.4418 -0.0889  0.6403
   95MOL   C12328511   0.201   6.172   6.808  0.7350  0.2726  0.7229
   95MOL   C12428512   0.203   6.170   6.965  0.0871 -0.3661 -0.2733
   95MOL   C12528513   0.182   6.316   6.758 -0.1874 -0.2112 -0.4495
   95MOL   O12628514   0.160   6.409   6.838 -0.0921  0.1676 -0.2569
   95MOL   O12728515   0.178   6.324   6.621 -0.2126 -0.3254 -0.2892
   95MOL   C12828516   0.174   6.445   6.546  0.0193 -0.7371 -0.4678
   95MOL   H12928517   0.343   6.010   6.811  2.0701 -0.2883  0.0820
   95MOL   H13028518   0.309   6.061   6.657  2.3663  0.9375 -0.3327
   95MOL   H13128519   0.152   6.253   7.014  0.7057 -0.1862  0.0687
   95MOL   H13228520   0.169   6.071   6.997  1.6353 -0.7283  0.3167
   95MOL   H13328521   0.301   6.174   7.013 -2.4240  0.4049  5.1408
   95MOL   H13428522   0.218   6.532   6.594  1.3656 -0.3325 -2.3672
   95MOL   H13528523   0.077   6.455   6.497 -0.3919 -1.1047  0.2725
   95MOL   H13628524   0.244   6.424   6.465  1.3538 -0.7284  0.6825
   95MOL   C13728525   0.091   6.080   6.749 -0.2137  0.6015  0.1321
   95MOL   C13828526   7.813   6.092   6.778  0.8425 -0.0965 -0.6119
   95MOL   C13928527   7.783   6.068   6.930 -0.4176 -0.8501 -0.3331
   95MOL   C14028528   7.753   6.225   6.741  0.2499 -0.7328 -0.4308
   95MOL   O14128529   7.734   6.260   6.626 -0.8501 -0.4142  0.0836
   95MOL   O14228530   7.720   6.297   6.849  0.1954  0.0080  0.4122
   95MOL   C14328531   7.682   6.428   6.825  0.3615 -0.3467  0.0502
   95MOL   H14428532   0.114   5.982   6.790 -1.0866 -0.5471 -2.0791
   95MOL   H14528533   0.102   6.076   6.641  1.1266  0.6914  0.2569
   95MOL   H14628534   7.677   6.068   6.959  0.3698  0.0262  2.8423
   95MOL   H14728535   7.810   5.968   6.963 -0.6533 -0.8737 -0.2069
   95MOL   H14828536   7.836   6.133   7.001 -1.9606  0.9422 -0.7662
   95MOL   H14928537   7.766   6.473   6.772  1.2233  0.2012  1.8418
   95MOL   H15028538   7.660   6.486   6.914 -3.3669 -0.4344 -0.7205
   95MOL   H15128539   7.596   6.437   6.758  0.0777  0.5669  0.5385
   95MOL   C15228540   7.742   5.983   6.684  0.1401  0.0920  0.5902
   95MOL   C15328541   7.597   5.923   6.700 -0.7407  0.6348 -0.8361
   95MOL   C15428542   7.558   5.859   6.564  0.2734  0.3546  0.3746
   95MOL   C15528543   7.606   5.802   6.798  0.5094  0.4817  0.5092
   95MOL   O15628544   7.706   5.773   6.865  0.3330  0.4318  0.3709
   95MOL   O15728545   7.504   5.717   6.797  0.3271  0.4186  0.4583
   95MOL   C15828546   7.502   5.624   6.907  0.7704  0.7096 -0.0067
   95MOL   H15928547   7.810   5.898   6.677 -0.2087 -0.0328 -1.8456
   95MOL   H16028548   7.745   6.016   6.580  0.3437 -0.2226  0.4935
   95MOL   H16128549   7.629   5.779   6.539  1.1074  1.6580 -1.5364
   95MOL   H16228550   7.456   5.821   6.560 -0.2477  1.7845 -0.1577
   95MOL   H16328551   7.569   5.929   6.481 -1.0394 -0.0320 -0.1388
   95MOL   H16428552   7.411   5.567   6.890 -0.4770  2.2976  1.2680
   95MOL   H16528553   7.498   5.675   7.004 -0.1202 -0.5033  0.6124
   95MOL   H16628554   7.594   5.565   6.905  0.8361  0.8570 -1.3363
   95MOL   C16728555   7.488   6.037   6.734  0.0221 -0.6051  0.2886
   95MOL   C16828556   7.348   6.010   6.811  0.2663  0.5359  0.0281
   95MOL   C16928557   7.273   6.148   6.805 -1.1019 -0.0879 -0.4101
   95MOL   C17028558   7.269   5.909   6.727 -0.0646  0.1849 -0.2396
   95MOL   O17128559   7.223   5.805   6.769  0.0375 -0.2737  0.2874
   95MOL   O17228560   7.248   5.954   6.612  0.2292 -0.0662 -0.4734
   95MOL   C17328561   7.162   5.889   6.525 -0.0764  0.2073  0.3087
   95MOL   H17428562   7.464   6.095   6.645  0.9790 -0.0752  0.3705
   95MOL   H17528563   7.525   6.110   6.806  0.1321 -0.9394  0.5743
   95MOL   H17628564   7.263   6.182   6.702  2.1129  0.6863 -0.5164
   95MOL   H17728565   7.176   6.154   6.854  0.1016 -2.1474  2.4150
   95MOL   H17828566   7.341   6.220   6.850 -1.4263 -0.3105  0.4576
   95MOL   H17928567   7.136   5.784   6.540  2.0618 -0.1531  1.7746
   95MOL   H18028568   7.213   5.876   6.430 -0.4621 -1.7535  0.3505
   95MOL   H18128569   7.072   5.949   6.508  0.1290 -0.5414 -3.7633
   95MOL   C18228570   7.366   5.971   6.965  0.7549  0.2905  0.0504
   95MOL   C18328571   7.267   6.019   7.080 -0.2907  0.3214 -0.2168
   95MOL   C18428572   7.331   5.946   7.198  0.0210  0.1931  0.4981
   95MOL   C18528573   7.276   6.165   7.115 -0.3851  0.0981  0.8777
   95MOL   O18628574   7.180   6.242   7.105  0.0538  0.6938  0.3877
   95MOL   O18728575   7.401   6.210   7.144 -0.0356  0.3995  0.2487
   95MOL   C18828576   7.434   6.353   7.133  0.0014  0.0734 -0.1087
   95MOL   H18928577   7.466   6.004   6.992 -0.8777  5.0512  0.8937
   95MOL   H19028578   7.363   5.862   6.962 -1.0589  0.3346 -0.4818
   95MOL   H19128579   7.439   5.953   7.199  0.0045  0.7411 -1.2065
   95MOL   H19228580   7.304   5.991   7.294 -0.6925 -1.1936  0.9598
   95MOL   H19328581   7.310   5.839   7.207  1.8622 -0.2195 -0.0696
   95MOL   H19428582   7.414   6.386   7.031 -1.6842 -0.4113  0.0508
   95MOL   H19528583   7.539   6.368   7.160  0.0928  0.6270 -0.7654
   95MOL   H19628584   7.364   6.406   7.198  2.0711  2.1123  0.5244
   95MOL   C19728585   7.125   5.960   7.048  0.4684  1.0352  0.5759
   95MOL   C19828586   7.001   5.949   7.141  0.4491 -0.3445  0.6093
   95MOL   C19928587   7.047   5.944   7.287 -0.4254  0.0665  0.0138
   95MOL   C20028588   6.909   6.074   7.129 -0.4318  0.0456  0.1825
   95MOL   O20128589   6.870   6.134   7.231  0.4508 -0.3793  0.5537
   95MOL   O20228590   6.887   6.112   7.003 -0.1104 -0.5959  0.4921
   95MOL   C20328591   6.792   6.215   6.980 -0.2827 -0.0324  0.0763
   95MOL   H20428592   7.143   5.863   7.002  3.6717  2.0794 -0.4638
   95MOL   H20528593   7.091   6.021   6.964  1.7637 -0.1226 -0.8053
   95MOL   H20628594   7.091   6.037   7.323  1.0852 -0.2083 -1.0808
   95MOL   H20728595   6.956   5.927   7.345 -0.4926 -1.6906 -0.5574
   95MOL   H20828596   7.112   5.858   7.307  0.3678  0.6624  0.0058
   95MOL   H20928597   6.686   6.194   6.993 -1.0080  2.8262 -0.8948
   95MOL   H21028598   6.799   6.259   6.881 -2.4619 -2.5196 -1.2593
   95MOL   H21128599   6.823   6.300   7.041  0.7827 -0.3240 -0.0456
   95MOL   C21228600   6.929   5.825   7.095  0.5883  0.7159  0.2415
   95MOL   C21328601   6.795   5.771   7.152  0.0721  0.4858  0.1329
   95MOL   C21428602   6.833   5.695   7.286 -0.0418  0.2959 -0.2391
   95MOL   C21528603   6.684   5.875   7.186  1.1396  0.8025  0.4385
   95MOL   O21628604   6.602   5.898   7.098 -0.0856  0.1354  0.0607
   95MOL   O21728605   6.685   5.933   7.306 -0.2095 -0.4763 -0.0505
   95MOL   C21828606   6.584   6.029   7.329  0.0173 -0.2709 -0.2215
   95MOL   H21928607   6.993   5.737   7.100  0.3867  0.6437  1.5603
   95MOL   H22028608   6.905   5.855   6.993 -1.7896  1.7430  1.0612
   95MOL   H22128609   6.757   5.624   7.318  1.7018 -0.6760  1.9184
   95MOL   H22228610   6.925   5.637   7.281 -1.1027 -1.4171 -0.2537
   95MOL   H22328611   6.857   5.757   7.373  0.0770 -0.7485  0.4818
   95MOL   H22428612   6.578   6.106   7.251  0.6710  1.8859  1.8188
   95MOL   H22528613   6.609   6.077   7.423  2.7379 -2.4100  0.1734
   95MOL   H22628614   6.489   5.977   7.340 -1.0978  1.8275  0.3967
   95MOL   C22728615   6.736   5.659   7.061  0.0680 -0.6852 -0.0545
   95MOL   C22828616   6.731   5.650   6.897  0.1599 -0.9724 -0.4427
   95MOL   C22928617   6.673   5.780   6.843 -0.1921 -0.2524 -0.0387
   95MOL   C23028618   6.882   5.640   6.847  0.9005 -0.2509  0.0871
   95MOL   O23128619   6.916   5.718   6.754 -0.2063 -0.4377  0.3627
   95MOL   O23228620   6.957   5.549   6.920  0.0080 -0.5094 -0.3586
   95MOL   C23328621   7.095   5.537   6.897 -0.2448 -0.4293  0.1246
   95MOL   H23428622   6.635   5.655   7.100 -0.4373  1.2385 -1.0813
   95MOL   H23528623   6.792   5.570   7.089  0.7573 -0.4338 -0.6068
   95MOL   H23628624   6.685   5.782   6.735  2.8952  0.4904  0.2668
   95MOL   H23728625   6.570   5.788   6.879 -0.2918 -0.7323 -0.2082
   95MOL   H23828626   6.734   5.869   6.859  0.3246 -0.6451  0.2066
   95MOL   H23928627   7.127   5.567   6.797  0.7658 -0.3963  0.4540
   95MOL   H24028628   7.134   5.438   6.921 -0.8353 -0.4988  0.8308
   95MOL   H24128629   7.145   5.616   6.953  1.2235  0.7785 -2.7720
   95MOL   C24228630   6.665   5.516   6.856  0.2335  0.0306  0.2560
   95MOL   C24328631   6.509   5.501   6.847 -0.5301 -0.4356  0.1723
   95MOL   C24428632   6.426   5.548   6.975 -0.2753  0.8037 -0.0914
   95MOL   C24528633   6.447   5.575   6.724 -0.2377 -0.2657 -0.1401
   95MOL   O24628634   6.518   5.638   6.647  0.0980  0.6837 -0.5282
   95MOL   O24728635   6.317   5.568   6.714  0.1689 -0.1356  0.1705
   95MOL   C24828636   6.267   5.636   6.608  0.2706  0.1874  0.1789
   95MOL   H24928637   6.703   5.445   6.929  0.4625  0.6013  0.6866
   95MOL   H25028638   6.710   5.481   6.763  1.6708 -2.0656  1.6973
   95MOL   H25128639   6.427   5.651   7.009  0.5926  0.7757 -0.0101
   95MOL   H25228640   6.325   5.510   6.961 -0.5337  0.9938  1.2488
   95MOL   H25328641   6.467   5.490   7.058 -0.5480 -1.3710 -1.4282
   95MOL   H25428642   6.276   5.581   6.514  1.1279  0.0369  0.3451
   95MOL   H25528643   6.296   5.739   6.588 -1.0784  0.2446 -1.6744
   95MOL   H25628644   6.158   5.639   6.610  0.2494 -0.8554  2.4080
   95MOL   C25728645   6.476   5.352   6.832  0.1574 -0.4074 -0.4622
   95MOL   C25828646   6.515   5.249   6.719 -0.1020 -1.0744  0.5544
   95MOL   C25928647   6.483   5.301   6.576  1.3564  0.2339  0.6045
   95MOL   C26028648   6.671   5.228   6.734  0.6695 -1.1465  0.3562
   95MOL   O26128649   6.759   5.243   6.646  0.6458  0.0518  0.2176
   95MOL   O26228650   6.705   5.205   6.867 -0.2485  0.2228  0.6607
   95MOL   C26328651   6.840   5.175   6.896  0.5871  0.3498 -0.2582
   95MOL   H26428652   6.368   5.343   6.819  0.3559 -1.8315 -1.1555
   95MOL   H26528653   6.488   5.311   6.932 -2.8953  0.8016  0.4555
   95MOL   H26628654   6.560   5.368   6.538 -0.4856  1.8396 -0.3422
   95MOL   H26728655   6.473   5.220   6.504 -0.0730  0.9377 -0.0116
   95MOL   H26828656   6.392   5.360   6.567  1.5506  0.4909  0.3155
   95MOL   H26928657   6.853   5.186   7.004  2.1075  1.1307 -0.5079
   95MOL   H27028658   6.911   5.250   6.862  1.8273  0.9866  3.4577
   95MOL   H27128659   6.863   5.079   6.850 -0.6200 -0.4517  0.7543
   95MOL   C27228660   6.456   5.098   6.750  0.3657 -0.4457  0.2092
   95MOL   C27328661   6.308   5.066   6.793 -0.5277 -0.1514 -0.4219
   95MOL   C27428662   6.284   5.108   6.937 -0.3658  0.1897 -0.1311
   95MOL   C27528663   6.219   5.135   6.685 -0.1602 -0.5603  0.3140
   95MOL   O27628664   6.225   5.082   6.575 -0.2709 -0.1566 -0.5986
   95MOL   O27728665   6.157   5.241   6.724  0.1291 -0.1619 -0.5905
   95MOL   C27828666   6.071   5.308   6.642  0.1979 -0.1504 -0.3568
   95MOL   H27928667   6.515   5.047   6.826 -0.0359 -0.5539  0.4491
   95MOL   H28028668   6.463   5.040   6.658 -0.8432  1.4452 -1.1254
   95MOL   H28128669   6.257   5.211   6.961  3.0993  1.3889 -1.1000
   95MOL   H28228670   6.198   5.059   6.982  0.6648 -0.9020  0.7021
   95MOL   H28328671   6.365   5.077   7.004  0.9199  2.6614 -0.4995
   95MOL   H28428672   5.972   5.319   6.686 -0.7776 -1.3501 -2.1612
   95MOL   H28528673   6.062   5.264   6.542  1.5391 -0.7591 -0.2130
   95MOL   H28628674   6.109   5.409   6.624 -0.5976 -0.0444 -1.5241
   95MOL   C28728675   6.298   4.915   6.788  0.1761 -0.8538  0.6660
   95MOL   C28828676   6.375   4.817   6.871 -0.4246  0.0238  0.4313
   95MOL   C28928677   6.312   4.678   6.878  0.3375  0.2309  0.6147
   95MOL   C29028678   6.527   4.786   6.833  0.1912 -0.3971  0.1481
   95MOL   O29128679   6.616   4.794   6.913  0.2124  0.2446 -0.2216
   95MOL   O29228680   6.531   4.734   6.711  0.2529  0.2072  0.2627
   95MOL   C29328681   6.642   4.664   6.658 -0.1475 -0.2072 -0.4293
   95MOL   H29428682   6.325   4.881   6.688  2.2096  2.5281  0.0052
   95MOL   H29528683   6.194   4.883   6.785 -0.7326  2.0357 -1.6895
   95MOL   H29628684   6.207   4.679   6.908 -0.5660 -0.0146 -2.3343
   95MOL   H29728685   6.315   4.622   6.784  1.7364 -1.2276  1.4953
   95MOL   H29828686   6.364   4.627   6.959  1.7263 -1.1912 -1.1198
   95MOL   H29928687   6.624   4.615   6.562  0.8636 -1.0299 -0.2003
   95MOL   H30028688   6.667   4.579   6.721 -0.0559 -0.2972 -0.5849
   95MOL   H30128689   6.731   4.726   6.646 -0.6411  0.1794 -2.3479
   95MOL   H30228690   6.365   4.857   6.972 -0.6051  1.4813 -0.1536
   96MOL     C128691   4.540   3.010   5.582  1.1547  0.4991 -0.2883
   96MOL     C228692   4.550   2.881   5.492 -0.2863  0.0450 -0.4903
   96MOL     C328693   4.524   2.753   5.574 -0.7065 -0.9437  0.2969
   96MOL     C428694   4.436   2.902   5.387  0.1861 -0.7472  0.0131
   96MOL     O528695   4.449   2.986   5.297  0.0003 -0.0742 -0.6367
   96MOL     O628696   4.323   2.832   5.413 -0.0023 -0.2487 -0.6206
   96MOL     C728697   4.207   2.868   5.340 -0.0415  0.0437 -0.5828
   96MOL     H828698   4.529   3.098   5.519  1.4484  0.3691 -0.5227
   96MOL     H928699   4.444   3.005   5.633  1.8622  0.1385  1.0353
   96MOL    H1028700   4.538   2.666   5.510 -0.8896 -0.1465 -0.8351
   96MOL    H1128701   4.594   2.749   5.658 -2.8320 -0.9407  2.1037
   96MOL    H1228702   4.426   2.752   5.622 -0.7939 -0.1755  0.1432
   96MOL    H1328703   4.117   2.845   5.397 -0.3814  2.1215 -0.2547
   96MOL    H1428704   4.197   2.809   5.249 -1.0371  0.0456 -0.4819
   96MOL    H1528705   4.193   2.973   5.319  1.3009  0.6501  1.3715
   96MOL    H1628706   4.623   3.019   5.652 -0.6399  0.2718  1.9119
   96MOL    C1728707   4.695   2.890   5.422  0.3043  0.9557  0.4977
   96MOL    C1828708   4.766   2.759   5.362 -0.0682 -0.4996 -0.2431
   96MOL    C1928709   4.890   2.808   5.291 -0.2923  0.1516  0.6249
   96MOL    C2028710   4.819   2.669   5.478  0.1161  0.5598  0.6579
   96MOL    O2128711   4.791   2.550   5.487 -0.3779 -0.0352  0.7032
   96MOL    O2228712   4.895   2.736   5.560  0.1580 -0.0665  0.3536
   96MOL    C2328713   4.938   2.673   5.681 -0.1212 -0.1614 -0.3246
   96MOL    H2428714   4.766   2.926   5.497  0.1765 -0.2471  1.2087
   96MOL    H2528715   4.699   2.971   5.349 -0.2730  0.7246  0.2053
   96MOL    H2628716   4.957   2.726   5.263 -0.1711  1.0505 -1.8579
   96MOL    H2728717   4.889   2.880   5.209 -0.1558  1.6326  1.9139
   96MOL    H2828718   4.950   2.861   5.365  1.6417 -1.1150 -0.0050
   96MOL    H2928719   4.989   2.579   5.661  0.8768  0.0637  1.0495
   96MOL    H3028720   4.863   2.664   5.759  0.3188 -2.7423 -0.1767
   96MOL    H3128721   5.010   2.748   5.715  0.5374 -0.3248 -1.3668
   96MOL    C3228722   4.667   2.681   5.266  0.7824 -0.1501  0.1700
   96MOL    C3328723   4.709   2.620   5.122 -0.1615 -0.2927  0.1114
   96MOL    C3428724   4.755   2.733   5.018  0.1893 -0.1929  0.0686
   96MOL    C3528725   4.826   2.520   5.145 -0.3926 -0.9481  0.5356
   96MOL    O3628726   4.941   2.546   5.108 -0.3529  0.3576 -0.3535
   96MOL    O3728727   4.787   2.414   5.216 -0.4879 -0.1233  0.0855
   96MOL    C3828728   4.897   2.333   5.265 -0.6380  0.3849 -0.3070
   96MOL    H3928729   4.601   2.762   5.234  0.4987  0.6981  2.7451
   96MOL    H4028730   4.598   2.611   5.314 -1.0742  1.6923  0.2720
   96MOL    H4128731   4.788   2.688   4.925  2.9819  1.0333  0.4380
   96MOL    H4228732   4.677   2.804   4.992 -1.6100 -2.0132  0.3075
   96MOL    H4328733   4.848   2.786   5.038  0.0871  0.2867 -0.7072
   96MOL    H4428734   4.942   2.283   5.178 -3.4423 -1.8714 -0.5424
   96MOL    H4528735   4.867   2.247   5.326 -0.2068  1.0890  0.9046
   96MOL    H4628736   4.973   2.382   5.325 -1.8095 -1.2546  2.6251
   96MOL    C4728737   4.579   2.550   5.060 -0.1711 -0.0567 -0.1070
   96MOL    C4828738   4.561   2.495   4.917  0.0318  0.8779 -0.5603
   96MOL    C4928739   4.520   2.615   4.820 -0.2048  0.5075  0.3129
   96MOL    C5028740   4.690   2.427   4.860 -0.2372 -0.0816  0.0972
   96MOL    O5128741   4.751   2.475   4.765  0.0554  0.5584 -0.1843
   96MOL    O5228742   4.721   2.309   4.912 -0.1628  0.1486 -0.0941
   96MOL    C5328743   4.816   2.226   4.851 -0.1734  0.5699 -0.3086
   96MOL    H5428744   4.504   2.627   5.079  1.1612  1.6044 -1.4326
   96MOL    H5528745   4.551   2.470   5.129 -2.3595  1.1297  0.4099
   96MOL    H5628746   4.608   2.679   4.809 -0.0618  0.3956  0.8040
   96MOL    H5728747   4.505   2.580   4.718  3.4997  1.8159 -0.7636
   96MOL    H5828748   4.451   2.689   4.860  1.5737  1.9778  0.7404
   96MOL    H5928749   4.903   2.287   4.874 -0.3491 -0.4140  3.3250
   96MOL    H6028750   4.791   2.215   4.746  0.0083 -0.6606 -0.2377
   96MOL    H6128751   4.829   2.126   4.894  1.6300  1.0944  0.3991
   96MOL    C6228752   4.449   2.389   4.911 -0.5454 -0.0325  0.1540
   96MOL    C6328753   4.295   2.419   4.926 -0.2478 -0.7198 -0.2300
   96MOL    C6428754   4.243   2.275   4.953 -0.6943 -0.5201  0.4425
   96MOL    C6528755   4.266   2.508   5.045  0.5585  0.0376  0.4391
   96MOL    O6628756   4.234   2.630   5.038  0.1885 -0.3332  0.2727
   96MOL    O6728757   4.272   2.445   5.156  0.8655 -0.1088 -0.1645
   96MOL    C6828758   4.243   2.509   5.277  0.3949 -0.1564 -0.1539
   96MOL    H6928759   4.478   2.318   4.988 -0.2687  1.1837  1.1912
   96MOL    H7028760   4.464   2.332   4.819  0.4419  0.1431  0.1936
   96MOL    H7128761   4.278   2.224   5.042 -0.4555 -1.2611 -0.0782
   96MOL    H7228762   4.136   2.263   4.971 -0.6734 -0.5003  0.5760
   96MOL    H7328763   4.263   2.208   4.870  2.9582 -0.3242  1.0943
   96MOL    H7428764   4.245   2.435   5.357  1.8451  3.2923  3.1344
   96MOL    H7528765   4.147   2.559   5.279  0.9097  0.8199  0.4838
   96MOL    H7628766   4.324   2.581   5.290  0.5405 -0.4240  0.4450
   96MOL    C7728767   4.226   2.481   4.797  0.1369  0.4583 -0.1854
   96MOL    C7828768   4.075   2.473   4.757  0.0689  0.0835 -0.5070
   96MOL    C7928769   4.027   2.331   4.724  0.3223 -0.3085 -0.2710
   96MOL    C8028770   3.990   2.530   4.877 -0.5213  0.8730  0.0862
   96MOL    O8128771   3.943   2.650   4.878  0.0607  0.3772 -0.0892
   96MOL    O8228772   3.970   2.436   4.970 -0.1642  0.2517  0.1703
   96MOL    C8328773   3.907   2.470   5.097 -0.2026  0.7274  0.1294
   96MOL    H8428774   4.267   2.417   4.718 -0.0154  1.2867 -0.9373
   96MOL    H8528775   4.255   2.584   4.779 -2.6167  1.0754 -1.2548
   96MOL    H8628776   3.925   2.345   4.688  0.3086  1.6441  0.4591
   96MOL    H8728777   4.071   2.289   4.634  0.2616 -0.0560 -0.4184
   96MOL    H8828778   4.023   2.250   4.797  0.9669  0.2328  0.3672
   96MOL    H8928779   3.897   2.579   5.100 -0.1686  0.7643 -0.8755
   96MOL    H9028780   3.959   2.423   5.181  0.5343 -1.5521 -1.5429
   96MOL    H9128781   3.803   2.441   5.091  0.5623 -2.1662  0.0395
   96MOL    C9228782   4.050   2.563   4.632 -0.2388 -0.4085 -0.4074
   96MOL    C9328783   4.086   2.532   4.483 -0.8313 -0.0662  0.7382
   96MOL    C9428784   4.242   2.501   4.470 -0.5338  0.1225 -0.8073
   96MOL    C9528785   4.008   2.418   4.416  0.9725  0.0901 -0.2011
   96MOL    O9628786   4.059   2.337   4.337 -0.1682 -0.1242  0.2156
   96MOL    O9728787   3.875   2.423   4.451 -0.1789  0.2275  0.2759
   96MOL    C9828788   3.783   2.338   4.387  0.4300  0.2088  0.3214
   96MOL    H9928789   4.095   2.660   4.653 -0.1047 -0.2269 -1.5211
   96MOL   H10028790   3.944   2.588   4.634  0.2278  1.6869 -0.4673
   96MOL   H10128791   4.272   2.404   4.509  2.5718  1.6095  0.6409
   96MOL   H10228792   4.267   2.492   4.364  0.6238  0.9025 -0.6080
   96MOL   H10328793   4.319   2.574   4.494 -1.0851 -0.5305  3.3747
   96MOL   H10428794   3.712   2.287   4.451 -1.6256  0.4511 -1.6869
   96MOL   H10528795   3.839   2.252   4.349  1.2549  0.3734  1.1432
   96MOL   H10628796   3.722   2.394   4.316 -0.9230 -0.6802  0.7741
   96MOL   C10728797   4.070   2.665   4.400 -0.7832  1.1566  0.2734
   96MOL   C10828798   3.946   2.756   4.375  1.2228 -0.0704  0.3755
   96MOL   C10928799   3.832   2.678   4.295 -0.6039 -0.2266  0.4088
   96MOL   C11028800   3.888   2.805   4.509 -0.1195  0.1407  0.3864
   96MOL   O11128801   3.768   2.805   4.537 -0.0534  0.1844 -0.4016
   96MOL   O11228802   3.975   2.862   4.586 -0.1272  0.0032  0.2861
   96MOL   C11328803   3.933   2.934   4.701  1.1617  0.3983  0.4884
   96MOL   H11428804   4.090   2.638   4.296  1.3007  1.4348  0.5698
   96MOL   H11528805   4.158   2.724   4.425  0.7203 -0.5661 -0.8587
   96MOL   H11628806   3.878   2.624   4.212  0.7060  0.6708  0.5380
   96MOL   H11728807   3.767   2.615   4.355 -2.0504  2.3436  1.6120
   96MOL   H11828808   3.763   2.755   4.262 -1.2198 -0.3474  1.3956
   96MOL   H11928809   4.016   2.998   4.731  1.0092  0.3345  1.0633
   96MOL   H12028810   3.923   2.871   4.790 -0.1655  0.7300  0.5991
   96MOL   H12128811   3.839   2.990   4.695  0.9790 -0.1416 -1.9484
   96MOL   C12228812   3.999   2.877   4.287 -0.4564  0.7767  0.2625
   96MOL   C12328813   3.919   3.019   4.279 -0.0891 -0.5012  0.4245
   96MOL   C12428814   3.765   3.007   4.279 -0.3713  0.1581  0.3671
   96MOL   C12528815   3.970   3.107   4.397 -0.1604 -0.0725  0.3501
   96MOL   O12628816   4.088   3.105   4.434  0.2924  0.1770 -0.6336
   96MOL   O12728817   3.875   3.181   4.452  0.3971 -0.4548 -0.0042
   96MOL   C12828818   3.895   3.255   4.571 -0.3364  0.1140  0.4205
   96MOL   H12928819   4.017   2.835   4.188  0.2389 -0.1522  0.7725
   96MOL   H13028820   4.105   2.900   4.302 -0.0969 -0.1363 -0.7590
   96MOL   H13128821   3.722   2.965   4.188  0.7146 -0.2821  0.0502
   96MOL   H13228822   3.723   2.956   4.365 -0.7975  0.0762  0.1092
   96MOL   H13328823   3.714   3.102   4.289  0.1995  0.6609 -1.3578
   96MOL   H13428824   3.989   3.237   4.623  0.3285  1.1947 -0.3810
   96MOL   H13528825   3.814   3.235   4.641 -1.9050  1.4209 -0.9593
   96MOL   H13628826   3.901   3.359   4.538  2.1104 -0.6559 -1.7334
   96MOL   C13728827   3.958   3.081   4.136 -0.5267  0.0152 -0.5717
   96MOL   C13828828   3.969   3.230   4.109 -0.2281 -0.8630 -0.3821
   96MOL   C13928829   3.844   3.304   4.160  0.0059  0.2074 -0.3404
   96MOL   C14028830   4.103   3.283   4.166  0.1980 -0.2447 -0.3948
   96MOL   O14128831   4.098   3.381   4.244  0.2950  0.0304 -0.2431
   96MOL   O14228832   4.212   3.209   4.150  0.3311 -0.0428  0.5024
   96MOL   C14328833   4.336   3.260   4.201  0.5255  0.2088 -0.4123
   96MOL   H14428834   3.892   3.040   4.059  0.6464 -0.1368 -1.5107
   96MOL   H14528835   4.045   3.030   4.097 -1.4188 -0.5520 -1.8693
   96MOL   H14628836   3.834   3.397   4.103 -1.4575  1.4395  1.8599
   96MOL   H14728837   3.753   3.252   4.131 -0.7430  2.2218 -1.7513
   96MOL   H14828838   3.856   3.340   4.262  0.8442  0.3424 -0.4809
   96MOL   H14928839   4.357   3.203   4.292 -2.0732 -1.6997 -0.9461
   96MOL   H15028840   4.345   3.368   4.213  1.5914 -0.0685  1.6227
   96MOL   H15128841   4.411   3.222   4.132  0.7076  1.3661 -0.8618
   96MOL   C15228842   3.966   3.237   3.950 -0.8164 -0.5481  0.6187
   96MOL   C15328843   4.033   3.362   3.863  0.9158 -0.3922  0.2949
   96MOL   C15428844   4.007   3.497   3.939 -0.0610  0.0318  0.4868
   96MOL   C15528845   4.181   3.353   3.850  0.7197  0.6172 -0.3648
   96MOL   O15628846   4.257   3.452   3.860 -0.2559  0.0400  0.1059
   96MOL   O15728847   4.220   3.225   3.823  0.4946 -0.0025  0.0594
   96MOL   C15828848   4.361   3.202   3.828  0.3309  0.3909 -0.3249
   96MOL   H15928849   3.861   3.228   3.921 -0.8556 -2.0902  1.1962
   96MOL   H16028850   4.000   3.141   3.911  0.4698  0.5681 -1.0644
   96MOL   H16128851   4.061   3.579   3.893 -1.3848 -0.0021 -1.1663
   96MOL   H16228852   3.904   3.531   3.931 -0.2738 -0.0401  2.5423
   96MOL   H16328853   4.041   3.513   4.042 -0.1885  0.1702  0.5070
   96MOL   H16428854   4.372   3.098   3.857  0.8427  0.6141  0.2883
   96MOL   H16528855   4.416   3.258   3.904 -0.1362 -2.3785  2.1181
   96MOL   H16628856   4.403   3.214   3.728 -0.6655  0.4592 -0.7383
   96MOL   C16728857   3.972   3.365   3.721  0.4402  0.1686  0.6660
   96MOL   C16828858   3.970   3.469   3.604  0.5134 -0.4504  0.5340
   96MOL   C16928859   3.873   3.410   3.497  0.0691  0.5005 -0.1256
   96MOL   C17028860   3.908   3.607   3.642 -1.0996  0.5870 -0.4799
   96MOL   O17128861   3.788   3.623   3.630  0.1223 -0.7022  0.0597
   96MOL   O17228862   4.000   3.694   3.694  0.5861 -0.0925 -0.3438
   96MOL   C17328863   3.954   3.827   3.720  0.6852  0.1065 -0.0810
   96MOL   H17428864   3.867   3.360   3.750  0.0861 -0.7180 -0.7389
   96MOL   H17528865   3.998   3.277   3.662  4.2192  1.3318  0.4625
   96MOL   H17628866   3.911   3.321   3.447 -1.5626 -0.3254  0.0716
   96MOL   H17728867   3.790   3.360   3.546  2.6096 -2.1061  1.6788
   96MOL   H17828868   3.840   3.476   3.417  1.6391  0.4929 -0.8097
   96MOL   H17928869   3.872   3.828   3.792 -0.9076 -0.6089 -1.8436
   96MOL   H18028870   3.912   3.865   3.626  1.6792  1.1528 -0.1041
   96MOL   H18128871   4.024   3.899   3.761  0.5358 -0.2835  0.8574
   96MOL   C18228872   4.109   3.495   3.539 -0.3392 -0.6695  0.0902
   96MOL   C18328873   4.177   3.407   3.421 -0.5133 -0.1160  0.7072
   96MOL   C18428874   4.170   3.258   3.457  0.0023  0.3506  0.0813
   96MOL   C18528875   4.116   3.424   3.277  0.4822  0.4286  0.0390
   96MOL   O18628876   4.031   3.514   3.259 -0.3377 -0.3246  0.5956
   96MOL   O18728877   4.152   3.336   3.184  0.1855  0.0872 -0.0304
   96MOL   C18828878   4.117   3.349   3.049 -0.2690  0.8840 -0.0488
   96MOL   H18928879   4.178   3.504   3.622  1.6500  3.9161 -1.9019
   96MOL   H19028880   4.099   3.594   3.494 -1.2093 -0.2481  1.2179
   96MOL   H19128881   4.204   3.260   3.561 -1.6173  0.8524  0.6227
   96MOL   H19228882   4.072   3.212   3.473 -0.2938  0.4907 -1.3446
   96MOL   H19328883   4.236   3.194   3.398  0.6228 -0.1938  1.3289
   96MOL   H19428884   4.027   3.409   3.033  0.2720  2.0428  1.1388
   96MOL   H19528885   4.094   3.248   3.016 -1.7090  0.8253  1.0795
   96MOL   H19628886   4.192   3.398   2.987 -0.4560  1.2701  0.0274
   96MOL   C19728887   4.334   3.445   3.420  0.1900  0.1331  0.6590
   96MOL   C19828888   4.398   3.566   3.336 -0.0154  0.1730  0.1111
   96MOL   C19928889   4.539   3.579   3.403  0.4343  0.2267  0.1742
   96MOL   C20028890   4.414   3.508   3.193  0.6147 -0.4920  0.5318
   96MOL   O20128891   4.379   3.574   3.090  0.6466 -0.0636  0.1752
   96MOL   O20228892   4.455   3.380   3.183  0.1204 -1.1030 -0.4784
   96MOL   C20328893   4.491   3.325   3.058  0.0106  0.1249 -0.1143
   96MOL   H20428894   4.397   3.356   3.421 -0.4316 -0.3135  1.0232
   96MOL   H20528895   4.350   3.469   3.525  0.7655 -3.1806  1.4107
   96MOL   H20628896   4.581   3.479   3.414 -0.3500 -0.1201  0.0361
   96MOL   H20728897   4.608   3.638   3.343  0.3312  1.3691  1.1654
   96MOL   H20828898   4.523   3.617   3.504  0.8688  0.7168  0.0562
   96MOL   H20928899   4.525   3.223   3.073 -0.6225 -0.1374 -0.4493
   96MOL   H21028900   4.577   3.388   3.035 -1.2991  1.9587 -0.0544
   96MOL   H21128901   4.423   3.324   2.972  2.3381  0.3816 -2.0226
   96MOL   C21228902   4.313   3.694   3.338  0.0379 -0.6416  0.3878
   96MOL   C21328903   4.364   3.844   3.317  0.3831 -0.1664  0.5830
   96MOL   C21428904   4.442   3.844   3.185  0.2746  0.6974 -0.4194
   96MOL   C21528905   4.250   3.944   3.286  0.1503 -0.5640  0.7546
   96MOL   O21628906   4.266   4.057   3.240  0.1069 -0.5433  0.7711
   96MOL   O21728907   4.131   3.890   3.332  0.5400 -0.3460 -0.3538
   96MOL   C21828908   4.016   3.972   3.326  0.0194 -0.5440 -0.2570
   96MOL   H21928909   4.275   3.695   3.440  1.0378 -0.4049  0.7534
   96MOL   H22028910   4.226   3.676   3.274 -0.2545  2.1221 -0.0204
   96MOL   H22128911   4.377   3.833   3.098 -0.3290 -0.6304  0.1979
   96MOL   H22228912   4.498   3.936   3.164  2.4128 -0.3616  0.4860
   96MOL   H22328913   4.517   3.765   3.183  2.6068  2.8644 -0.8486
   96MOL   H22428914   4.045   4.074   3.352  1.4856 -1.6986  2.8795
   96MOL   H22528915   3.934   3.948   3.392  1.0934 -0.4004  1.1523
   96MOL   H22628916   3.979   3.963   3.224  1.7333  0.6352 -1.0283
   96MOL   C22728917   4.461   3.889   3.424 -0.1700 -0.8505 -0.4180
   96MOL   C22828918   4.423   3.945   3.570  0.5554  0.1681  0.3011
   96MOL   C22928919   4.300   3.865   3.625  0.0298  0.1266  1.0853
   96MOL   C23028920   4.546   3.916   3.657  0.2493  0.1380 -0.0361
   96MOL   O23128921   4.552   3.822   3.735 -0.7210  0.0348 -0.2468
   96MOL   O23228922   4.655   3.995   3.618 -0.3255  0.1845  0.2035
   96MOL   C23328923   4.767   4.002   3.706 -0.8810  0.4145 -0.0045
   96MOL   H23428924   4.512   3.967   3.368  0.4159 -1.1718 -0.3356
   96MOL   H23528925   4.548   3.824   3.427  1.8163  1.6515 -1.7263
   96MOL   H23628926   4.304   3.757   3.638 -0.6883  0.2772  2.7144
   96MOL   H23728927   4.275   3.906   3.723 -0.4116 -0.1197  1.0774
   96MOL   H23828928   4.210   3.886   3.568  0.5612  1.5795  0.7500
   96MOL   H23928929   4.768   4.069   3.792 -1.1420  0.6684 -0.1992
   96MOL   H24028930   4.841   4.044   3.637 -0.7658  0.0705 -0.0903
   96MOL   H24128931   4.807   3.903   3.727 -1.7315 -0.4146 -2.1104
   96MOL   C24228932   4.383   4.098   3.561 -0.2392  0.5714  0.5785
   96MOL   C24328933   4.393   4.208   3.683 -0.3088 -0.1031 -0.3972
   96MOL   C24428934   4.325   4.141   3.800 -0.2391  0.1232  0.2694
   96MOL   C24528935   4.535   4.250   3.720  0.1827 -0.1513 -0.3210
   96MOL   O24628936   4.571   4.251   3.840 -0.2171 -0.3286 -0.4250
   96MOL   O24728937   4.615   4.284   3.618  0.4729 -0.5627 -0.0016
   96MOL   C24828938   4.745   4.325   3.657  0.3946  0.0113  0.7556
   96MOL   H24928939   4.289   4.100   3.507 -0.6648 -2.3210  1.1560
   96MOL   H25028940   4.452   4.136   3.485  1.2186  1.3976  2.2675
   96MOL   H25128941   4.234   4.086   3.774  0.2434  0.4901 -2.2360
   96MOL   H25228942   4.390   4.068   3.847 -0.1042 -0.6165 -1.0524
   96MOL   H25328943   4.290   4.201   3.884 -1.2732 -0.8705  0.5613
   96MOL   H25428944   4.748   4.418   3.713  0.6268  0.4278  0.0643
   96MOL   H25528945   4.809   4.333   3.568  0.4376  1.2717  0.8923
   96MOL   H25628946   4.796   4.255   3.723  0.0634 -1.9927 -1.0418
   96MOL   C25728947   4.301   4.330   3.640  0.3996 -0.9619 -0.4337
   96MOL   C25828948   4.303   4.478   3.714 -0.3964 -0.4583 -0.1570
   96MOL   C25928949   4.305   4.468   3.868  0.7538  0.0914 -0.0990
   96MOL   C26028950   4.434   4.556   3.666 -0.3609 -0.5082 -0.1716
   96MOL   O26128951   4.512   4.607   3.747  0.1196 -0.5163 -0.0787
   96MOL   O26228952   4.455   4.553   3.531  0.3073 -0.3067  0.0960
   96MOL   C26328953   4.568   4.603   3.467 -0.3074  0.1226  0.0272
   96MOL   H26428954   4.198   4.296   3.648 -0.1428  1.3496  3.8831
   96MOL   H26528955   4.318   4.346   3.533  1.5278 -0.9925 -0.2670
   96MOL   H26628956   4.220   4.405   3.895  1.5344 -1.0901 -0.3515
   96MOL   H26728957   4.395   4.417   3.903  0.2611 -0.7192 -0.0219
   96MOL   H26828958   4.285   4.564   3.917 -0.5327 -1.2499  2.0974
   96MOL   H26928959   4.570   4.577   3.362  0.4504  1.2192 -0.2320
   96MOL   H27028960   4.660   4.568   3.514 -0.1728 -1.5180 -1.3956
   96MOL   H27128961   4.581   4.710   3.484 -2.8260  0.7566 -1.8911
   96MOL   C27228962   4.163   4.547   3.660 -0.6149  0.4036 -0.0162
   96MOL   C27328963   4.124   4.702   3.676  0.2080  0.2007 -0.1755
   96MOL   C27428964   4.138   4.741   3.824  0.0381 -0.3246 -0.2256
   96MOL   C27528965   4.209   4.780   3.580 -0.1139 -1.1064 -0.2847
   96MOL   O27628966   4.230   4.739   3.470  0.2820  0.0397  0.2127
   96MOL   O27728967   4.247   4.911   3.626 -0.1470 -0.0943  0.3335
   96MOL   C27828968   4.332   4.985   3.543 -0.0458 -0.2102 -0.3546
   96MOL   H27928969   4.082   4.488   3.703 -1.8093 -0.5465 -3.4286
   96MOL   H28028970   4.153   4.522   3.554 -1.1927 -1.0717  0.3720
   96MOL   H28128971   4.088   4.835   3.852 -1.5499 -1.0171 -0.6931
   96MOL   H28228972   4.091   4.680   3.901 -0.6514  0.9373  0.3751
   96MOL   H28328973   4.246   4.753   3.835 -0.3637  0.9899  3.1395
   96MOL   H28428974   4.386   5.062   3.599  0.5907 -0.5549 -0.4903
   96MOL   H28528975   4.273   5.040   3.470  0.9994  1.4319 -0.0116
   96MOL   H28628976   4.405   4.924   3.490  0.9792  0.6370  0.0578
   96MOL   C28728977   3.978   4.714   3.627 -0.3352  0.8141 -0.3781
   96MOL   C28828978   3.929   4.864   3.626  0.3662 -0.5845  0.2132
   96MOL   C28928979   3.874   4.908   3.486  0.0909 -0.1613 -0.2301
   96MOL   C29028980   3.811   4.889   3.726 -0.3096 -0.2357  0.2193
   96MOL   O29128981   3.739   4.803   3.775  0.5669 -0.2616 -0.0966
   96MOL   O29228982   3.802   5.018   3.746 -0.0090  0.3675 -0.6924
   96MOL   C29328983   3.701   5.070   3.835 -0.7958  0.4340 -0.7163
   96MOL   H29428984   3.910   4.642   3.673 -0.0162  1.1508  0.6485
   96MOL   H29528985   3.980   4.663   3.531 -0.3202 -2.3037  1.1999
   96MOL   H29628986   3.874   5.017   3.481  1.4403 -0.2002 -1.4490
   96MOL   H29728987   3.949   4.876   3.414  0.0424  0.6310 -0.6423
   96MOL   H29828988   3.772   4.879   3.464 -0.3000  1.9478 -1.3375
   96MOL   H29928989   3.705   5.013   3.928  2.8217  0.4487 -0.7930
   96MOL   H30028990   3.607   5.058   3.782 -0.3914 -2.0827 -0.9065
   96MOL   H30128991   3.706   5.178   3.847  0.1840  0.6853 -3.1419
   96MOL   H30228992   4.005   4.932   3.667  0.5307 -0.8488  0.3449
   97MOL     C128993   3.913   1.193   3.960 -0.2606 -0.0441 -0.5188
   97MOL     C228994   3.901   1.180   3.813  0.5978 -0.5653 -0.2189
   97MOL     C328995   3.845   1.045   3.796 -0.0348  0.3597  0.3792
   97MOL     C428996   3.801   1.277   3.746  0.4747  0.6500 -0.8890
   97MOL     O528997   3.810   1.316   3.632 -0.0544  0.2270  0.1954
   97MOL     O628998   3.683   1.294   3.815 -0.1608  0.4211 -0.4324
   97MOL     C728999   3.574   1.367   3.751  0.0203  0.0901  0.1286
   97MOL     H829000   3.971   1.277   3.996 -1.2871  1.0159 -1.2979
   97MOL     H929001   3.815   1.199   4.007 -0.1794 -1.9687 -0.0612
   97MOL    H1029002   3.740   1.034   3.824 -0.5060  2.5157 -0.4570
   97MOL    H1129003   3.841   1.024   3.689 -1.2945 -0.0981  0.5106
   97MOL    H1229004   3.905   0.969   3.846  0.3506  1.5470  1.7269
   97MOL    H1329005   3.495   1.381   3.825 -0.2327 -4.1313  0.7753
   97MOL    H1429006   3.528   1.317   3.666  0.4309  4.0332 -2.5588
   97MOL    H1529007   3.614   1.466   3.729 -0.5859  0.8675  2.3569
   97MOL    H1629008   3.970   1.107   3.995  0.8449  0.8460 -0.1378
   97MOL    C1729009   4.036   1.187   3.734  0.1028 -0.3391 -0.4424
   97MOL    C1829010   4.142   1.295   3.748 -0.1670 -0.0124  0.6926
   97MOL    C1929011   4.084   1.439   3.734 -0.2870 -0.9843  0.5234
   97MOL    C2029012   4.213   1.298   3.883  0.0786 -0.4483  0.1696
   97MOL    O2129013   4.209   1.398   3.953 -0.0501  0.2719 -0.1795
   97MOL    O2229014   4.277   1.187   3.915 -0.1579 -0.3674  0.0928
   97MOL    C2329015   4.346   1.177   4.034 -0.1352  0.2654 -0.5768
   97MOL    H2429016   4.008   1.167   3.630 -2.9971 -0.2535  0.3220
   97MOL    H2529017   4.076   1.092   3.769 -0.3985 -0.5141 -0.3425
   97MOL    H2629018   4.029   1.461   3.825 -0.1182  0.5100  0.2810
   97MOL    H2729019   4.154   1.522   3.718 -1.4474 -0.2042 -0.7074
   97MOL    H2829020   4.015   1.445   3.650  0.1931 -2.6284 -0.0070
   97MOL    H2929021   4.268   1.179   4.110  0.2945 -3.0128  0.0222
   97MOL    H3029022   4.416   1.259   4.053 -0.7527  0.9004 -0.9922
   97MOL    H3129023   4.398   1.083   4.052 -2.7878 -1.5446 -2.1248
   97MOL    C3229024   4.244   1.261   3.628 -0.3347  0.4261  0.4963
   97MOL    C3329025   4.363   1.359   3.587  0.3627  0.6391 -0.0820
   97MOL    C3429026   4.428   1.422   3.714 -1.0960 -0.4110  0.1269
   97MOL    C3529027   4.468   1.265   3.523 -0.1205 -0.2823 -0.5938
   97MOL    O3629028   4.478   1.256   3.400 -0.0254  0.5647  0.1642
   97MOL    O3729029   4.556   1.210   3.616  0.2459  0.4906 -0.7025
   97MOL    C3829030   4.677   1.149   3.567 -0.5811 -0.3537  0.1288
   97MOL    H3929031   4.188   1.249   3.536  1.3696  0.7491 -0.6126
   97MOL    H4029032   4.274   1.165   3.671 -1.8711  0.0320  0.7327
   97MOL    H4129033   4.443   1.346   3.790 -0.9308  0.8885  1.4360
   97MOL    H4229034   4.516   1.479   3.681 -2.2195  1.4589  0.2558
   97MOL    H4329035   4.368   1.503   3.758 -0.4522  0.5254 -0.6893
   97MOL    H4429036   4.748   1.124   3.646 -1.3282  1.5542  1.4564
   97MOL    H4529037   4.729   1.225   3.509  0.9809 -0.3051  1.5486
   97MOL    H4629038   4.673   1.065   3.498  1.9200  0.6109 -1.2559
   97MOL    C4729039   4.315   1.464   3.483 -0.7908 -0.0014 -0.2562
   97MOL    C4829040   4.398   1.591   3.441  0.3633 -0.7416  0.1743
   97MOL    C4929041   4.396   1.689   3.559  0.0581  0.0916  0.8392
   97MOL    C5029042   4.547   1.558   3.404 -0.0616  0.5059  0.5983
   97MOL    O5129043   4.640   1.606   3.472  0.3594  0.2266 -0.8982
   97MOL    O5229044   4.564   1.478   3.296  0.0324 -0.6953 -0.4672
   97MOL    C5329045   4.696   1.448   3.254 -0.4704 -0.2277 -0.1606
   97MOL    H5429046   4.213   1.497   3.504 -1.1556 -0.7885 -0.7726
   97MOL    H5529047   4.300   1.412   3.388  0.5827 -0.7337 -0.0804
   97MOL    H5629048   4.467   1.677   3.641  0.3161  2.6549  1.0435
   97MOL    H5729049   4.423   1.791   3.530  0.6560 -0.2674  0.1245
   97MOL    H5829050   4.304   1.684   3.618  0.4198 -0.6686  1.3509
   97MOL    H5929051   4.766   1.452   3.337  1.1810  0.2579 -1.5405
   97MOL    H6029052   4.735   1.496   3.164 -1.0929  1.8990  0.6759
   97MOL    H6129053   4.703   1.345   3.219  1.7282 -1.4079  3.5149
   97MOL    C6229054   4.344   1.671   3.305 -0.1059 -0.2654 -0.4084
   97MOL    C6329055   4.230   1.779   3.296 -0.3826 -0.0111  0.4085
   97MOL    C6429056   4.110   1.722   3.372  0.6332  0.2832  0.1139
   97MOL    C6529057   4.284   1.915   3.354  0.1890  0.4239 -0.5575
   97MOL    O6629058   4.237   1.972   3.454 -0.4249 -0.0161  0.2035
   97MOL    O6729059   4.393   1.952   3.295  0.0284 -0.0959  0.7178
   97MOL    C6829060   4.456   2.079   3.326  0.3747 -0.1990  0.0276
   97MOL    H6929061   4.308   1.593   3.237 -0.1982 -1.9169  1.4875
   97MOL    H7029062   4.424   1.714   3.244 -0.1317  0.6332  0.1863
   97MOL    H7129063   4.092   1.621   3.336 -0.2680  1.1437 -1.9364
   97MOL    H7229064   4.132   1.697   3.475 -0.6817  0.6536  0.4885
   97MOL    H7329065   4.016   1.777   3.372 -0.0166 -0.8184  0.6850
   97MOL    H7429066   4.429   2.111   3.427 -0.5111  1.3475 -0.6841
   97MOL    H7529067   4.425   2.161   3.261  1.0377 -0.1995 -0.2841
   97MOL    H7629068   4.561   2.054   3.314 -0.0075 -1.6801 -0.4099
   97MOL    C7729069   4.201   1.793   3.139  0.8125  0.0149 -0.1929
   97MOL    C7829070   4.074   1.859   3.081 -0.2325  0.0984  0.1170
   97MOL    C7929071   3.945   1.775   3.100 -0.1667 -0.0400 -0.1459
   97MOL    C8029072   4.058   1.994   3.152  0.6267 -0.1053 -0.3471
   97MOL    O8129073   3.959   2.025   3.225  0.1453 -0.1702  0.7617
   97MOL    O8229074   4.164   2.077   3.130 -0.1627 -0.8135 -0.9541
   97MOL    C8329075   4.158   2.204   3.199 -0.8336 -0.3824 -0.7585
   97MOL    H8429076   4.209   1.696   3.091 -0.4622  1.2570 -3.0022
   97MOL    H8529077   4.284   1.853   3.102 -0.0440 -0.2950 -2.6970
   97MOL    H8629078   3.856   1.830   3.066  2.1324  2.7286 -1.9509
   97MOL    H8729079   3.939   1.677   3.054 -1.0973  0.6095 -1.4688
   97MOL    H8829080   3.916   1.770   3.205 -0.2057 -1.4101 -0.2120
   97MOL    H8929081   4.247   2.263   3.176 -0.2497 -0.7060  0.5864
   97MOL    H9029082   4.157   2.188   3.307 -2.9465 -0.0664 -0.7239
   97MOL    H9129083   4.073   2.267   3.175  0.0959  0.8842 -0.7853
   97MOL    C9229084   4.095   1.883   2.922 -0.7290 -0.1555 -0.4751
   97MOL    C9329085   3.993   1.924   2.815 -0.1723  0.0855 -0.0263
   97MOL    C9429086   3.928   1.798   2.754 -0.6304  0.1644  0.2228
   97MOL    C9529087   3.883   2.012   2.879 -0.0245 -0.1106 -0.4580
   97MOL    O9629088   3.769   1.970   2.895 -0.4219 -0.6996 -0.6348
   97MOL    O9729089   3.921   2.137   2.911  0.0348  0.0183 -0.2653
   97MOL    C9829090   3.837   2.208   3.012  0.8104 -1.2507  0.2789
   97MOL    H9929091   4.132   1.790   2.878  2.7187 -0.8504  3.4804
   97MOL   H10029092   4.181   1.949   2.911  0.7118 -1.6023  1.6361
   97MOL   H10129093   4.006   1.726   2.728  1.6603  1.3085  3.6637
   97MOL   H10229094   3.860   1.749   2.823 -0.2136 -0.1167  0.4357
   97MOL   H10329095   3.861   1.814   2.669 -0.4256 -1.0555 -0.1768
   97MOL   H10429096   3.901   2.281   3.061  0.7023 -0.1429 -1.1826
   97MOL   H10529097   3.798   2.140   3.087 -0.3932 -0.0884  0.7445
   97MOL   H10629098   3.756   2.260   2.960  0.7757 -2.9599 -1.4172
   97MOL   C10729099   4.076   2.010   2.710  0.4117  0.2106 -0.6360
   97MOL   C10829100   4.019   2.038   2.564 -0.7090 -0.2165 -0.1123
   97MOL   C10929101   4.122   2.142   2.499  1.1667 -0.0576 -0.4487
   97MOL   C11029102   4.038   1.910   2.476  0.4083  0.0282  0.3552
   97MOL   O11129103   3.943   1.838   2.454 -0.2158 -0.2194 -0.7788
   97MOL   O11229104   4.166   1.878   2.436 -0.1734  0.0645 -0.2737
   97MOL   C11329105   4.191   1.762   2.359 -0.1255 -0.3941  0.2132
   97MOL   H11429106   4.166   1.953   2.685  1.7598  0.8360  2.4597
   97MOL   H11529107   4.112   2.101   2.758  0.9520 -0.8987  1.1554
   97MOL   H11629108   4.132   2.138   2.391  0.9960  0.6691 -0.4925
   97MOL   H11729109   4.092   2.242   2.529 -0.2459 -0.3892 -0.7653
   97MOL   H11829110   4.223   2.147   2.541  0.7297 -0.8430  0.7437
   97MOL   H11929111   4.212   1.676   2.423  1.3455 -0.3957 -0.2524
   97MOL   H12029112   4.288   1.786   2.315  0.6678 -2.3856  0.8313
   97MOL   H12129113   4.127   1.741   2.274  1.0273 -1.2978 -0.4475
   97MOL   C12229114   3.876   2.091   2.561 -0.2664 -0.4005 -0.1271
   97MOL   C12329115   3.805   2.157   2.440  0.0680 -0.5936 -0.2638
   97MOL   C12429116   3.853   2.306   2.420 -0.4974  0.3337  0.9434
   97MOL   C12529117   3.838   2.084   2.305  0.3547  0.3399 -0.5424
   97MOL   O12629118   3.923   2.128   2.226 -0.2760  0.4541  0.7375
   97MOL   O12729119   3.769   1.974   2.294 -0.5906  0.7171 -0.5141
   97MOL   C12829120   3.785   1.896   2.183 -0.6622 -0.5051 -0.1229
   97MOL   H12929121   3.871   2.158   2.647 -1.6829  2.3249 -2.2639
   97MOL   H13029122   3.808   2.009   2.585  0.3604 -0.7639  0.4400
   97MOL   H13129123   3.786   2.358   2.352  0.0900 -0.9866 -0.6885
   97MOL   H13229124   3.844   2.363   2.512 -1.5428 -0.5830  1.4253
   97MOL   H13329125   3.957   2.323   2.390 -0.5254  0.8835  1.1570
   97MOL   H13429126   3.795   1.954   2.091 -1.4115 -2.6065 -1.5820
   97MOL   H13529127   3.703   1.827   2.166  0.6480 -1.3219 -3.5707
   97MOL   H13629128   3.876   1.835   2.185 -0.2453  0.1359  1.1783
   97MOL   C13729129   3.643   2.165   2.455 -1.1828  0.0581  0.5963
   97MOL   C13829130   3.561   2.226   2.582 -0.2548  0.6552  0.1032
   97MOL   C13929131   3.615   2.160   2.717 -0.0896 -0.1517  0.0177
   97MOL   C14029132   3.568   2.377   2.592  0.4599 -0.0632  0.6865
   97MOL   O14129133   3.597   2.435   2.698  0.7308 -0.2134 -0.1211
   97MOL   O14229134   3.560   2.437   2.470 -0.2782  0.4368 -0.6093
   97MOL   C14329135   3.581   2.575   2.457 -0.1974 -0.2265 -0.1277
   97MOL   H14429136   3.605   2.063   2.462 -1.4034  0.1706  1.1525
   97MOL   H14529137   3.605   2.205   2.361 -0.6915 -2.5006 -0.7342
   97MOL   H14629138   3.558   2.160   2.810  0.5325 -0.2707  0.4002
   97MOL   H14729139   3.636   2.055   2.699 -1.7125 -0.5650  0.5093
   97MOL   H14829140   3.702   2.222   2.741  0.1954 -0.7440  0.5215
   97MOL   H14929141   3.653   2.591   2.376 -0.2123  1.3453  0.1630
   97MOL   H15029142   3.617   2.636   2.540  0.9464  0.6913 -1.2719
   97MOL   H15129143   3.482   2.611   2.429 -1.0203 -1.0557  1.6454
   97MOL   C15229144   3.407   2.182   2.594 -0.5303 -0.2462  1.1720
   97MOL   C15329145   3.300   2.169   2.480 -0.4016 -0.2127 -0.3164
   97MOL   C15429146   3.162   2.163   2.548  0.3143 -0.4466 -0.1802
   97MOL   C15529147   3.296   2.289   2.379  0.2389  0.4239 -0.4859
   97MOL   O15629148   3.237   2.395   2.408  0.2135 -0.0520 -0.3485
   97MOL   O15729149   3.373   2.276   2.277  0.4601 -0.3697 -0.0907
   97MOL   C15829150   3.398   2.393   2.195  0.0726 -0.0036 -0.3895
   97MOL   H15929151   3.368   2.255   2.664 -0.3132 -0.7449  1.8186
   97MOL   H16029152   3.390   2.086   2.642 -2.8905  0.4470  1.7565
   97MOL   H16129153   3.077   2.158   2.480 -0.1130 -0.2145  0.3329
   97MOL   H16229154   3.163   2.079   2.618 -1.1477 -1.0601 -0.8883
   97MOL   H16329155   3.142   2.250   2.612  3.2493 -0.7182  1.1872
   97MOL   H16429156   3.494   2.390   2.144  1.3189 -2.3525  2.0305
   97MOL   H16529157   3.404   2.484   2.254  0.1741 -0.0211 -0.3738
   97MOL   H16629158   3.314   2.397   2.125 -1.1959  1.4214  1.1800
   97MOL   C16729159   3.331   2.033   2.406  0.2676 -0.5109  0.3547
   97MOL   C16829160   3.231   1.935   2.331 -0.5694 -0.6548  0.4519
   97MOL   C16929161   3.124   1.864   2.432 -0.2869 -0.5503  0.0457
   97MOL   C17029162   3.147   2.009   2.228 -0.5644 -0.4056 -0.2120
   97MOL   O17129163   3.028   2.001   2.226  0.1034 -0.1024  0.6322
   97MOL   O17229164   3.227   2.069   2.134  0.2251  0.1645  0.4691
   97MOL   C17329165   3.174   2.154   2.035 -0.2892  0.1645  0.3331
   97MOL   H17429166   3.368   1.966   2.484  1.3574 -0.0220  0.2566
   97MOL   H17529167   3.418   2.047   2.342 -0.4160 -0.5772 -0.6004
   97MOL   H17629168   3.156   1.796   2.512  0.4303 -0.9535 -0.5780
   97MOL   H17729169   3.055   1.931   2.483  1.5034  0.9372  0.5730
   97MOL   H17829170   3.051   1.806   2.376 -1.9320  0.8407  0.7210
   97MOL   H17929171   3.129   2.098   1.953 -1.3032 -0.2897  1.1923
   97MOL   H18029172   3.261   2.216   2.013  0.9822 -1.4007  0.8219
   97MOL   H18129173   3.097   2.224   2.067 -1.4455 -1.7004  1.6952
   97MOL   C18229174   3.325   1.824   2.268 -0.1402 -0.1146 -0.0891
   97MOL   C18329175   3.276   1.679   2.216  0.4976 -0.2192 -0.0287
   97MOL   C18429176   3.240   1.597   2.345  0.3148  0.1004  0.1921
   97MOL   C18529177   3.148   1.691   2.122  0.2951 -0.4207 -0.2189
   97MOL   O18629178   3.048   1.624   2.149 -0.2483 -0.3658  0.4140
   97MOL   O18729179   3.169   1.781   2.021  0.0112  0.1579  0.0211
   97MOL   C18829180   3.059   1.810   1.936  0.3925  0.4455 -0.4753
   97MOL   H18929181   3.407   1.800   2.335 -1.0303  1.0655  1.4519
   97MOL   H19029182   3.369   1.879   2.185  0.0595 -0.9694 -0.5583
   97MOL   H19129183   3.272   1.642   2.439  1.2616  1.4421 -0.7446
   97MOL   H19229184   3.136   1.576   2.370  0.5181 -0.9066  0.1754
   97MOL   H19329185   3.285   1.499   2.356  0.4112  0.1338  0.0922
   97MOL   H19429186   2.968   1.815   1.996  0.1918  2.0561 -0.9130
   97MOL   H19529187   3.053   1.720   1.875  0.4060  0.5744 -0.6663
   97MOL   H19629188   3.084   1.903   1.886  0.6560 -0.1666 -1.4920
   97MOL   C19729189   3.402   1.614   2.140 -0.8419 -0.7326 -0.2188
   97MOL   C19829190   3.393   1.490   2.029  0.0999 -0.5053 -0.0329
   97MOL   C19929191   3.285   1.390   2.090  0.0783 -0.3718 -0.6270
   97MOL   C20029192   3.323   1.538   1.898 -0.6733  0.3710 -0.2136
   97MOL   O20129193   3.222   1.482   1.850  0.2090 -0.7993  0.0096
   97MOL   O20229194   3.387   1.637   1.845 -0.1116  0.5627 -0.3739
   97MOL   C20329195   3.323   1.691   1.728  0.4964 -0.2406  0.2358
   97MOL   H20429196   3.464   1.573   2.219  1.3204 -0.2918 -1.6508
   97MOL   H20529197   3.458   1.698   2.098 -0.5367 -0.4536  0.7521
   97MOL   H20629198   3.182   1.421   2.102  1.1147  2.0177  3.1069
   97MOL   H20729199   3.272   1.306   2.022 -1.0689  0.5565 -1.5670
   97MOL   H20829200   3.311   1.355   2.190  0.2417  0.0635 -0.5121
   97MOL   H20929201   3.403   1.746   1.677  0.9423 -1.3932 -0.3176
   97MOL   H21029202   3.251   1.769   1.751  1.9283  1.9411 -2.3979
   97MOL   H21129203   3.287   1.616   1.658 -0.6875 -0.6003  1.2087
   97MOL   C21229204   3.538   1.441   1.996 -0.0155  0.0053  0.5205
   97MOL   C21329205   3.613   1.316   2.048  0.1535 -0.5155 -0.0200
   97MOL   C21429206   3.593   1.305   2.199 -0.4909 -0.0428  0.6464
   97MOL   C21529207   3.550   1.195   1.980  0.2121  0.1399  0.4934
   97MOL   O21629208   3.466   1.195   1.893 -0.1342 -0.3319  0.4161
   97MOL   O21729209   3.602   1.088   2.034 -0.2369  0.0797  0.1655
   97MOL   C21829210   3.585   0.960   1.965  0.3230 -0.7708 -0.2559
   97MOL   H21929211   3.614   1.517   2.015  0.5220 -0.6346  0.9407
   97MOL   H22029212   3.537   1.426   1.888 -0.0230  0.1174  0.5049
   97MOL   H22129213   3.602   1.400   2.251  1.1111 -0.6156  1.4333
   97MOL   H22229214   3.512   1.238   2.230 -0.0400 -0.2854  1.3015
   97MOL   H22329215   3.683   1.261   2.242 -1.7519 -1.4475  1.9101
   97MOL   H22429216   3.655   0.889   2.009 -0.3449 -0.8449  0.6959
   97MOL   H22529217   3.624   0.967   1.863  0.7545 -3.9724 -0.3805
   97MOL   H22629218   3.485   0.919   1.970  0.2651 -0.7929 -1.3975
   97MOL   C22729219   3.774   1.326   2.026 -1.0958 -0.7999  0.3361
   97MOL   C22829220   3.849   1.340   1.889 -1.3177  0.1114 -0.4166
   97MOL   C22929221   3.996   1.304   1.923  0.5246  0.0686 -0.9700
   97MOL   C23029222   3.812   1.228   1.788  0.6963  0.0757 -0.1327
   97MOL   O23129223   3.877   1.125   1.778 -0.1023  0.2359 -0.0749
   97MOL   O23229224   3.700   1.258   1.725  0.2304 -0.1665  0.1177
   97MOL   C23329225   3.651   1.179   1.620 -0.1023 -0.2920 -0.5037
   97MOL   H23429226   3.814   1.235   2.073 -2.3171 -1.0842  0.8621
   97MOL   H23529227   3.808   1.402   2.096 -0.2190  0.1409 -1.1065
   97MOL   H23629228   3.997   1.208   1.975  0.6536  2.1502  2.9925
   97MOL   H23729229   4.070   1.303   1.842 -1.4224  1.1822 -2.8078
   97MOL   H23829230   4.033   1.378   1.993  1.0153  0.7003 -1.8761
   97MOL   H23929231   3.706   1.187   1.526 -1.4075 -0.2701 -1.2900
   97MOL   H24029232   3.547   1.210   1.612 -0.5533 -1.8099 -0.8277
   97MOL   H24129233   3.642   1.073   1.644  0.9324  0.0076  1.2643
   97MOL   C24229234   3.848   1.479   1.810  0.1082 -0.0979  0.3673
   97MOL   C24329235   3.926   1.609   1.852  0.5661 -0.1095 -0.5094
   97MOL   C24429236   3.911   1.636   2.009 -0.4387  0.2457 -0.0574
   97MOL   C24529237   4.076   1.615   1.816  0.3259 -0.6404 -0.2586
   97MOL   O24629238   4.128   1.531   1.746 -0.3725  0.0005 -0.3182
   97MOL   O24729239   4.139   1.730   1.868  0.3390 -0.1678 -0.3716
   97MOL   C24829240   4.275   1.749   1.834 -0.4254 -0.2057 -0.0619
   97MOL   H24929241   3.743   1.505   1.806 -0.1113 -0.9336  0.5143
   97MOL   H25029242   3.883   1.461   1.709 -1.5344  1.6001 -0.5229
   97MOL   H25129243   3.809   1.642   2.046 -0.6862 -0.5385 -0.5860
   97MOL   H25229244   3.962   1.567   2.076 -0.8607 -0.6192 -0.6176
   97MOL   H25329245   3.964   1.730   2.028 -1.4023  0.6584  0.5921
   97MOL   H25429246   4.300   1.855   1.847 -1.2370 -0.1039  0.6135
   97MOL   H25529247   4.302   1.723   1.731  0.3078  1.1026 -0.2257
   97MOL   H25629248   4.339   1.694   1.903 -0.3624 -2.5551 -1.9265
   97MOL   C25729249   3.853   1.727   1.786  0.3943 -0.0018  1.0883
   97MOL   C25829250   3.835   1.753   1.631  0.0736  1.0225  0.4822
   97MOL   C25929251   3.966   1.714   1.556  0.2024  0.2283 -0.2414
   97MOL   C26029252   3.721   1.678   1.565  0.2543 -0.4810 -0.3510
   97MOL   O26129253   3.629   1.642   1.636 -0.5924 -0.0204  0.1932
   97MOL   O26229254   3.725   1.684   1.426  0.0101  0.6582  0.4897
   97MOL   C26329255   3.624   1.613   1.354 -0.4223 -0.6621  0.3898
   97MOL   H26429256   3.910   1.812   1.824  0.0157  1.4069 -1.3641
   97MOL   H26529257   3.758   1.744   1.835 -1.1020  3.2622 -2.6723
   97MOL   H26629258   4.054   1.752   1.607 -1.4916  0.9032  2.2465
   97MOL   H26729259   3.966   1.606   1.543 -0.3971  0.0562  1.1740
   97MOL   H26829260   3.974   1.748   1.453  0.1262 -2.4441 -1.1689
   97MOL   H26929261   3.630   1.505   1.372 -0.1967 -0.5561  0.9545
   97MOL   H27029262   3.632   1.639   1.248 -0.3653 -0.4199  0.4536
   97MOL   H27129263   3.532   1.656   1.394  1.0795  3.4319 -0.2929
   97MOL   C27229264   3.828   1.912   1.592  0.3867  0.9295 -0.2665
   97MOL   C27329265   3.699   2.004   1.616 -0.2336 -0.2642  0.4138
   97MOL   C27429266   3.735   2.151   1.582  0.2648  0.3204 -0.4883
   97MOL   C27529267   3.594   1.964   1.509 -0.3620  0.3175 -0.4184
   97MOL   O27629268   3.476   1.954   1.540  0.3833  0.0020 -0.4401
   97MOL   O27729269   3.642   1.964   1.387  0.7056 -0.5722  1.3029
   97MOL   C27829270   3.545   1.952   1.282  0.6424 -0.3928 -0.5659
   97MOL   H27929271   3.870   1.926   1.492 -1.1378  0.0787 -1.0536
   97MOL   H28029272   3.907   1.953   1.654 -0.4771  0.6504  1.0294
   97MOL   H28129273   3.653   2.222   1.598  0.4591 -0.2138  3.4275
   97MOL   H28229274   3.824   2.185   1.634  1.2912  1.2972 -2.8068
   97MOL   H28329275   3.763   2.163   1.477 -0.0042  0.8946 -0.4931
   97MOL   H28429276   3.584   1.889   1.203  0.7942 -0.5762 -0.3437
   97MOL   H28529277   3.526   2.054   1.247  2.6966  0.2236  0.0586
   97MOL   H28629278   3.454   1.899   1.311  0.1777  1.6547  1.9577
   97MOL   C28729279   3.655   1.987   1.762  0.4550  0.1431  0.7054
   97MOL   C28829280   3.543   2.072   1.822 -0.6546  0.5118 -0.0031
   97MOL   C28929281   3.490   1.984   1.936 -0.1580 -0.1678  1.1074
   97MOL   C29029282   3.593   2.206   1.884 -0.2915  0.8332  0.2077
   97MOL   O29129283   3.530   2.309   1.846  0.1983 -0.3795 -0.0883
   97MOL   O29229284   3.698   2.198   1.968 -0.4149  0.2087  0.4597
   97MOL   C29329285   3.756   2.316   2.021 -1.2976 -0.2742  0.0205
   97MOL   H29429286   3.741   1.978   1.828  1.7785  0.3334 -0.9599
   97MOL   H29529287   3.610   1.888   1.761 -0.1351  0.3980  1.3653
   97MOL   H29629288   3.553   1.907   1.980 -1.0389 -1.0055  0.9067
   97MOL   H29729289   3.463   2.041   2.025 -2.3511  0.9696 -0.2384
   97MOL   H29829290   3.408   1.922   1.900 -0.1743  0.4167  0.1273
   97MOL   H29929291   3.863   2.305   2.037 -1.3297 -0.7602 -0.0676
   97MOL   H30029292   3.714   2.334   2.119  1.6149  1.5094  1.0001
   97MOL   H30129293   3.740   2.412   1.971  0.4661 -0.3647 -0.7715
   97MOL   H30229294   3.478   2.096   1.739  1.2986  1.4058 -1.3286
   98MOL     C129295   5.714   2.076   2.412 -0.0917 -0.1444 -0.3332
   98MOL     C229296   5.667   1.930   2.393  0.7739 -0.0723  0.8468
   98MOL     C329297   5.759   1.824   2.464  0.0986 -0.1455  0.3538
   98MOL     C429298   5.523   1.916   2.456  0.5156  0.4331  0.8162
   98MOL     O529299   5.478   1.995   2.538  0.0183  0.0006 -0.0887
   98MOL     O629300   5.459   1.801   2.421 -0.4122 -0.8111  0.2933
   98MOL     C729301   5.346   1.759   2.492 -0.5716  0.2468  0.2495
   98MOL     H829302   5.650   2.152   2.368 -1.5354 -0.8090  0.5894
   98MOL     H929303   5.703   2.098   2.519 -0.5989 -2.8475  0.2114
   98MOL    H1029304   5.756   1.844   2.571 -0.9040  0.7823  0.1624
   98MOL    H1129305   5.720   1.723   2.457 -0.3399  0.0085  0.5576
   98MOL    H1229306   5.860   1.834   2.424  0.4344 -0.3362  1.1534
   98MOL    H1329307   5.313   1.663   2.453 -0.7430  0.1765  0.5691
   98MOL    H1429308   5.262   1.824   2.469  0.7262  1.0939 -2.2514
   98MOL    H1529309   5.363   1.746   2.599  1.2162 -0.1616 -0.0596
   98MOL    H1629310   5.822   2.092   2.400  0.6682 -2.2944  2.8266
   98MOL    C1729311   5.686   1.898   2.237  0.4951  0.2753 -0.3213
   98MOL    C1829312   5.603   1.972   2.126 -0.3981  0.1730 -0.1647
   98MOL    C1929313   5.451   1.936   2.135  0.1451 -0.1245  0.5919
   98MOL    C2029314   5.613   2.131   2.114 -0.7874  0.1418 -0.0386
   98MOL    O2129315   5.512   2.201   2.115 -0.3371 -0.2677  0.5290
   98MOL    O2229316   5.746   2.174   2.094  0.5866  0.6484  0.0475
   98MOL    C2329317   5.774   2.309   2.101 -0.1947 -0.4382  0.3397
   98MOL    H2429318   5.674   1.790   2.231 -1.3019  0.3084  1.9263
   98MOL    H2529319   5.789   1.923   2.213  0.2621  1.5813 -0.0304
   98MOL    H2629320   5.404   1.953   2.038  0.7279  0.4254  0.4033
   98MOL    H2729321   5.425   1.833   2.163  1.9127 -0.8848 -0.4836
   98MOL    H2829322   5.409   1.995   2.216 -1.9632 -1.3880  0.4741
   98MOL    H2929323   5.685   2.370   2.083 -1.0936 -1.1895  2.0788
   98MOL    H3029324   5.853   2.341   2.034  0.3210  1.4373  1.7783
   98MOL    H3129325   5.805   2.334   2.203 -0.0349 -0.8955  0.4052
   98MOL    C3229326   5.649   1.927   1.986  0.9727 -0.4158 -0.0256
   98MOL    C3329327   5.687   1.776   1.942  0.2841  0.1628  0.0920
   98MOL    C3429328   5.829   1.744   2.003 -0.8197 -0.4299 -0.1083
   98MOL    C3529329   5.584   1.671   1.994 -0.8971 -0.6986 -0.5034
   98MOL    O3629330   5.626   1.579   2.061  0.4018 -0.1113 -0.4093
   98MOL    O3729331   5.463   1.692   1.948  0.3064 -0.5780  0.1138
   98MOL    C3829332   5.355   1.617   1.996 -0.0640 -0.3915  0.3615
   98MOL    H3929333   5.736   1.984   1.952  1.6880 -2.7618 -2.2245
   98MOL    H4029334   5.574   1.967   1.917 -0.3538 -0.9812  1.0885
   98MOL    H4129335   5.832   1.720   2.109  0.3031  1.4480  0.2937
   98MOL    H4229336   5.873   1.652   1.966  0.4706 -0.3615  1.2192
   98MOL    H4329337   5.898   1.828   1.997  1.6935 -1.9878  4.4802
   98MOL    H4429338   5.254   1.635   1.960  0.9959  1.6681 -1.7172
   98MOL    H4529339   5.355   1.636   2.103  1.9522 -0.4759  0.4017
   98MOL    H4629340   5.378   1.511   1.988  3.1506  0.3464 -0.7286
   98MOL    C4729341   5.681   1.778   1.783  0.3443 -0.4346  0.2791
   98MOL    C4829342   5.754   1.673   1.689 -0.3097  0.2021 -0.0313
   98MOL    C4929343   5.908   1.703   1.671 -0.1665 -0.2610  0.3530
   98MOL    C5029344   5.730   1.535   1.747  0.1596 -0.0805  0.1061
   98MOL    O5129345   5.819   1.460   1.772 -0.1830  0.2468 -0.0256
   98MOL    O5229346   5.603   1.496   1.758 -0.0980 -0.5898 -0.0952
   98MOL    C5329347   5.561   1.368   1.805  0.1869 -0.0024  0.8704
   98MOL    H5429348   5.735   1.871   1.765 -0.8925  0.3057  0.3682
   98MOL    H5529349   5.575   1.781   1.762  0.2280  2.8317  1.0484
   98MOL    H5629350   5.953   1.623   1.611 -0.8681  0.2735 -0.9039
   98MOL    H5729351   5.929   1.799   1.625 -2.5772  0.8865  1.5236
   98MOL    H5829352   5.965   1.714   1.763 -1.2222 -0.8067  1.0900
   98MOL    H5929353   5.452   1.371   1.812  0.2931  1.8004  2.0369
   98MOL    H6029354   5.602   1.354   1.905  1.0997  1.6732  0.7522
   98MOL    H6129355   5.596   1.290   1.737 -0.2885  0.4485  0.0947
   98MOL    C6229356   5.669   1.694   1.553 -0.2112  0.1326 -0.2697
   98MOL    C6329357   5.710   1.648   1.408  0.5015 -0.6853 -0.3000
   98MOL    C6429358   5.832   1.738   1.354  0.7823 -1.0127  0.1544
   98MOL    C6529359   5.743   1.497   1.419 -0.6839 -0.2048  0.2695
   98MOL    O6629360   5.651   1.412   1.424  0.1600  0.2377  0.2089
   98MOL    O6729361   5.884   1.469   1.437 -0.7490  0.3553 -0.0116
   98MOL    C6829362   5.930   1.337   1.459  0.1194 -0.4763 -0.3379
   98MOL    H6929363   5.636   1.797   1.539 -1.9705 -0.5336 -1.2679
   98MOL    H7029364   5.573   1.643   1.567 -0.6088  0.5892 -1.2985
   98MOL    H7129365   5.926   1.736   1.410  1.3318 -1.0603 -0.7564
   98MOL    H7229366   5.865   1.703   1.257  0.9761 -1.3117  0.3274
   98MOL    H7329367   5.813   1.845   1.345 -1.3201 -1.5841 -2.6342
   98MOL    H7429368   6.034   1.343   1.491 -0.0794  0.7003  0.1046
   98MOL    H7529369   5.914   1.275   1.371  1.2417 -0.8604 -0.2866
   98MOL    H7629370   5.873   1.300   1.545  0.1707 -2.2811 -1.0512
   98MOL    C7729371   5.590   1.676   1.312  0.0351 -0.0623  0.8595
   98MOL    C7829372   5.570   1.633   1.153 -0.4035 -0.5362 -0.6505
   98MOL    C7929373   5.705   1.652   1.079  0.5847 -0.1060  0.1486
   98MOL    C8029374   5.532   1.489   1.156 -0.0546  0.2152 -0.5352
   98MOL    O8129375   5.607   1.403   1.114  0.3008 -0.3492  0.0080
   98MOL    O8229376   5.402   1.472   1.196  0.1265  0.0713  0.2716
   98MOL    C8329377   5.344   1.342   1.192 -0.2871 -0.0097  0.3896
   98MOL    H8429378   5.568   1.782   1.322  1.1510 -0.0263  3.0422
   98MOL    H8529379   5.502   1.631   1.359  1.4083 -2.3521  1.3247
   98MOL    H8629380   5.775   1.580   1.120 -0.8441 -1.2689  0.5909
   98MOL    H8729381   5.697   1.634   0.972  1.0914  0.4282  0.0129
   98MOL    H8829382   5.747   1.752   1.094  0.0412  0.0684  0.5629
   98MOL    H8929383   5.290   1.332   1.098 -0.7032 -1.0414  0.7296
   98MOL    H9029384   5.268   1.320   1.267 -0.0324 -2.3111  0.0107
   98MOL    H9129385   5.420   1.265   1.202 -0.5447 -0.4593 -0.9950
   98MOL    C9229386   5.467   1.727   1.076 -0.3939 -0.3021 -0.2757
   98MOL    C9329387   5.431   1.714   0.923  0.4964 -0.0923 -0.1681
   98MOL    C9429388   5.452   1.580   0.852  0.2675 -0.2297  0.4881
   98MOL    C9529389   5.273   1.738   0.916 -0.3882 -0.6535  0.2463
   98MOL    O9629390   5.197   1.658   0.869  0.0116  0.3662 -0.3649
   98MOL    O9729391   5.232   1.860   0.960  0.1235  0.1953  0.0923
   98MOL    C9829392   5.102   1.910   0.928 -0.5242 -0.0469 -0.2382
   98MOL    H9929393   5.473   1.834   1.094 -1.4557 -0.3767  0.6637
   98MOL   H10029394   5.372   1.710   1.129 -0.8103  0.7048 -0.6891
   98MOL   H10129395   5.556   1.547   0.845  0.6791  0.5705  2.6594
   98MOL   H10229396   5.404   1.500   0.908 -0.1934  1.5113  2.6257
   98MOL   H10329397   5.430   1.579   0.745 -0.2135 -0.4295  0.5916
   98MOL   H10429398   5.087   1.932   0.822  1.2709 -0.7779 -0.6600
   98MOL   H10529399   5.068   1.989   0.994 -2.4488 -0.9057 -0.1615
   98MOL   H10629400   5.023   1.839   0.953  0.7713 -1.0520  1.0724
   98MOL   C10729401   5.528   1.813   0.835 -0.1844 -0.5683 -0.4205
   98MOL   C10829402   5.485   1.951   0.769 -0.0363 -0.1695 -0.1208
   98MOL   C10929403   5.382   1.918   0.661 -0.0443  0.3225 -0.1497
   98MOL   C11029404   5.428   2.059   0.869 -0.4864  0.0001  0.2807
   98MOL   O11129405   5.436   2.040   0.987  0.3051 -0.8553  0.8123
   98MOL   O11229406   5.392   2.170   0.811  0.5677  0.5175  0.0990
   98MOL   C11329407   5.372   2.284   0.889 -0.3857  0.5808 -0.6788
   98MOL   H11429408   5.586   1.756   0.764  1.8441 -0.6940  1.2893
   98MOL   H11529409   5.613   1.837   0.899  1.1264  0.0012 -2.3397
   98MOL   H11629410   5.374   2.004   0.594 -0.5076  1.4561  1.3411
   98MOL   H11729411   5.420   1.840   0.595 -1.1103 -0.4769  0.1822
   98MOL   H11829412   5.280   1.905   0.697  0.2882  2.4715  1.6335
   98MOL   H11929413   5.323   2.362   0.832 -0.7096  0.5130 -0.4964
   98MOL   H12029414   5.459   2.331   0.936  0.1622 -1.2585  0.2191
   98MOL   H12129415   5.297   2.258   0.964  0.5655  2.1792  0.8736
   98MOL   C12229416   5.607   2.016   0.686 -0.0151 -0.7273  0.5645
   98MOL   C12329417   5.752   2.054   0.746 -0.6244  0.0103 -0.6252
   98MOL   C12429418   5.742   2.149   0.867 -0.5868  0.8155  0.2222
   98MOL   C12529419   5.823   1.924   0.789  0.4137  0.4166 -0.3067
   98MOL   O12629420   5.889   1.912   0.891  0.4403  0.4834 -0.2788
   98MOL   O12729421   5.830   1.832   0.685 -0.6552 -0.4856  0.7715
   98MOL   C12829422   5.894   1.708   0.706 -0.1310 -0.4149  0.1973
   98MOL   H12929423   5.569   2.105   0.637  0.7188  0.0602  1.3917
   98MOL   H13029424   5.617   1.945   0.604  0.8669 -0.8165  0.7440
   98MOL   H13129425   5.836   2.181   0.912  1.3736 -2.4824 -1.3243
   98MOL   H13229426   5.690   2.238   0.833 -1.0583  0.4898  0.0806
   98MOL   H13329427   5.692   2.090   0.945 -0.3192  0.5733  0.2127
   98MOL   H13429428   5.872   1.660   0.802  0.2413 -0.1739  0.4040
   98MOL   H13529429   5.999   1.705   0.675 -0.3730 -0.0424 -0.6682
   98MOL   H13629430   5.848   1.646   0.630  0.7214  0.0249 -0.6780
   98MOL   C13729431   5.844   2.115   0.633  0.1759  0.2243  0.2988
   98MOL   C13829432   5.840   2.265   0.584  0.2751  0.0661  0.2425
   98MOL   C13929433   5.702   2.311   0.540 -0.5973 -0.1292  0.5123
   98MOL   C14029434   5.887   2.356   0.700 -0.1634 -0.4378 -0.2966
   98MOL   O14129435   5.827   2.459   0.739 -0.3310  0.6908 -0.8335
   98MOL   O14229436   6.012   2.326   0.740 -0.0465  0.3625 -0.4578
   98MOL   C14329437   6.069   2.398   0.848 -0.5341  0.4727  0.1976
   98MOL   H14429438   5.824   2.049   0.548 -2.8548  0.2462  0.9638
   98MOL   H14529439   5.947   2.089   0.658 -0.3937 -0.2144  2.2781
   98MOL   H14629440   5.701   2.407   0.489 -2.1731 -1.2197 -1.5949
   98MOL   H14729441   5.665   2.233   0.473  1.5947 -0.9596  0.2222
   98MOL   H14829442   5.639   2.312   0.629  1.0423 -3.3798  1.8275
   98MOL   H14929443   6.157   2.457   0.821  0.1116 -0.1490  0.8992
   98MOL   H15029444   6.102   2.327   0.924 -1.6192 -0.8794 -0.5713
   98MOL   H15129445   5.996   2.452   0.908 -1.7764 -1.7550  0.7231
   98MOL   C15229446   5.947   2.292   0.472 -0.3167  0.2215 -0.4777
   98MOL   C15329447   5.932   2.269   0.317 -0.0148  0.1398 -0.6490
   98MOL   C15429448   5.873   2.132   0.305 -0.0669 -0.5898  0.6831
   98MOL   C15529449   5.834   2.368   0.249 -0.0108 -0.0995  0.0502
   98MOL   O15629450   5.742   2.332   0.176 -0.5527 -0.5565 -0.3012
   98MOL   O15729451   5.847   2.493   0.306  0.5195  0.2052  0.6857
   98MOL   C15829452   5.778   2.606   0.252  1.4220  0.4973  0.5520
   98MOL   H15929453   6.043   2.247   0.497  0.8679  1.5270 -2.4963
   98MOL   H16029454   5.974   2.397   0.485  1.8454 -0.4859  0.9964
   98MOL   H16129455   5.926   2.053   0.357 -1.4204 -1.2013  1.1647
   98MOL   H16229456   5.768   2.129   0.333 -1.0920  0.3326 -2.7453
   98MOL   H16329457   5.869   2.100   0.201  0.6788 -1.4183  0.9016
   98MOL   H16429458   5.680   2.578   0.212  3.1532 -5.6039  0.0097
   98MOL   H16529459   5.836   2.649   0.170  0.9664 -0.0565 -0.0764
   98MOL   H16629460   5.753   2.681   0.326 -0.8684  1.4317 -1.0998
   98MOL   C16729461   6.070   2.263   0.238 -0.3886 -0.9168 -0.2351
   98MOL   C16829462   6.160   2.390   0.187 -0.9078  0.7474  0.1243
   98MOL   C16929463   6.103   2.453   0.057  0.2324 -0.4218  0.8650
   98MOL   C17029464   6.180   2.496   0.293  0.0927 -0.6378  0.1778
   98MOL   O17129465   6.140   2.618   0.281 -0.3488  0.6671  0.4932
   98MOL   O17229466   6.228   2.447   0.413 -0.0999 -0.0300  0.0868
   98MOL   C17329467   6.216   2.523   0.523 -0.6710  0.2411 -0.8128
   98MOL   H17429468   6.048   2.206   0.147 -1.2440 -0.5254 -0.2822
   98MOL   H17529469   6.135   2.205   0.304  0.1515  2.1053  1.9757
   98MOL   H17629470   6.116   2.375   7.859 -0.2377 -0.7040  1.0751
   98MOL   H17729471   5.994   2.456   0.059  0.1653 -0.8602 -0.7611
   98MOL   H17829472   6.151   2.546   0.025  1.3900 -1.9127 -1.8907
   98MOL   H17929473   6.314   2.560   0.551  0.8125 -3.1720 -1.2257
   98MOL   H18029474   6.187   2.457   0.605 -1.3498  0.4705 -0.8630
   98MOL   H18129475   6.142   2.601   0.505 -0.8736  0.0234 -0.9322
   98MOL   C18229476   6.296   2.315   0.151  0.7859 -0.4726  0.6311
   98MOL   C18329477   6.422   2.394   0.088  0.2404  0.6916  0.1165
   98MOL   C18429478   6.431   2.544   0.131  0.1160 -0.0520  0.6301
   98MOL   C18529479   6.552   2.336   0.145 -0.2015  0.0658 -0.3623
   98MOL   O18629480   6.632   2.387   0.227  0.1957  0.3021 -0.0431
   98MOL   O18729481   6.566   2.209   0.115  0.7945  0.1200  0.7001
   98MOL   C18829482   6.682   2.134   0.158 -0.0428 -0.4527  0.6727
   98MOL   H18929483   6.270   2.221   0.102 -0.5361  1.3074 -2.1680
   98MOL   H19029484   6.332   2.275   0.246 -1.2038  0.6704  1.8918
   98MOL   H19129485   6.357   2.616   0.098 -0.4607 -0.0379  1.9248
   98MOL   H19229486   6.443   2.564   0.237 -1.8185  0.7389  0.7248
   98MOL   H19329487   6.526   2.585   0.098 -1.0306  0.3518 -2.3785
   98MOL   H19429488   6.780   2.178   0.138  0.4964 -0.1895  3.6712
   98MOL   H19529489   6.684   2.034   0.116  2.6910 -0.5718  1.0231
   98MOL   H19629490   6.672   2.133   0.267  0.0821 -2.2766  0.6820
   98MOL   C19729491   6.415   2.375   7.808 -0.2675 -0.2218  0.3400
   98MOL   C19829492   6.527   2.422   7.710  0.1401 -0.5014  0.3346
   98MOL   C19929493   6.662   2.353   7.729  0.5087 -0.2325  0.1307
   98MOL   C20029494   6.474   2.391   7.563 -0.1918  1.1202 -0.3211
   98MOL   O20129495   6.356   2.405   7.539  0.4398  0.2338 -0.0088
   98MOL   O20229496   6.565   2.363   7.473  0.1021  0.2539 -0.1710
   98MOL   C20329497   6.532   2.324   7.344  0.2362 -0.8611 -0.0343
   98MOL   H20429498   6.325   2.429   7.777  0.1282  0.4705  0.3872
   98MOL   H20529499   6.397   2.269   7.792  0.1187  0.1420 -2.9657
   98MOL   H20629500   6.731   2.370   7.646 -1.7938 -0.2079 -1.8592
   98MOL   H20729501   6.705   2.403   7.816 -0.3972  0.2022  0.3376
   98MOL   H20829502   6.656   2.245   7.737 -1.1507 -0.1561  0.1364
   98MOL   H20929503   6.579   2.228   7.324  0.3268 -0.9451  0.5626
   98MOL   H21029504   6.581   2.396   7.278  1.1513 -0.5164  1.0018
   98MOL   H21129505   6.428   2.329   7.312  0.7250  1.1310 -1.4268
   98MOL   C21229506   6.544   2.585   7.706  0.1287 -0.0756  0.7175
   98MOL   C21329507   6.596   2.683   7.582  0.0680  0.2765 -0.5783
   98MOL   C21429508   6.738   2.625   7.531  0.4615  0.1414 -0.0786
   98MOL   C21529509   6.481   2.693   7.471 -0.0159  0.2747 -0.1892
   98MOL   O21629510   6.505   2.682   7.351  0.1690 -0.0503 -0.0374
   98MOL   O21729511   6.364   2.710   7.521  0.0612 -0.2993 -0.2872
   98MOL   C21829512   6.254   2.746   7.436  0.0907 -0.5877 -0.3017
   98MOL   H21929513   6.619   2.598   7.784  0.2463 -0.9268  0.7610
   98MOL   H22029514   6.448   2.619   7.743 -0.9472 -2.0308 -0.1707
   98MOL   H22129515   6.727   2.538   7.466  0.3712 -0.2957  0.5182
   98MOL   H22229516   6.798   2.698   7.477  2.1649 -1.9205 -1.0464
   98MOL   H22329517   6.800   2.599   7.616 -0.7080  0.7561  0.9805
   98MOL   H22429518   6.162   2.781   7.483 -0.2355  0.8842 -1.9794
   98MOL   H22529519   6.235   2.652   7.383  1.6525 -0.5850 -0.8904
   98MOL   H22629520   6.290   2.823   7.367  1.4517 -0.7031  0.2581
   98MOL   C22729521   6.622   2.819   7.646  0.5512  0.2644 -0.3069
   98MOL   C22829522   6.635   2.955   7.564 -0.1163 -0.5409 -0.5191
   98MOL   C22929523   6.715   2.952   7.434 -0.1055  0.0347 -0.6262
   98MOL   C23029524   6.494   3.007   7.525  0.3172 -0.4659  0.0042
   98MOL   O23129525   6.455   3.012   7.411  0.0637 -0.7457 -0.0141
   98MOL   O23229526   6.426   3.044   7.625 -0.2048 -0.7228  0.1498
   98MOL   C23329527   6.303   3.114   7.602 -0.0560  0.1939 -0.2587
   98MOL   H23429528   6.716   2.807   7.701 -0.8519 -0.2479  2.0539
   98MOL   H23529529   6.543   2.836   7.719  1.1660 -0.1184  0.4608
   98MOL   H23629530   6.819   2.929   7.455  0.0111  0.4913 -0.7053
   98MOL   H23729531   6.678   2.873   7.369  0.5008 -0.5501 -0.2631
   98MOL   H23829532   6.709   3.046   7.379  1.3282  0.5584  0.1101
   98MOL   H23929533   6.305   3.190   7.524 -3.8372  0.5310 -0.1075
   98MOL   H24029534   6.273   3.169   7.691  1.8496 -0.6362  0.9503
   98MOL   H24129535   6.225   3.042   7.577 -0.3656 -0.2884  1.9272
   98MOL   C24229536   6.700   3.064   7.656 -0.1563  0.0654  0.4056
   98MOL   C24329537   6.851   3.083   7.691 -0.3012 -0.0461 -0.8640
   98MOL   C24429538   6.914   2.948   7.732  0.1511 -0.9023  0.2900
   98MOL   C24529539   6.938   3.138   7.573 -0.4346  0.0033 -0.0336
   98MOL   O24629540   6.886   3.183   7.472 -0.1477  0.0007  0.8092
   98MOL   O24729541   7.065   3.144   7.604  0.1227  0.1853  0.6302
   98MOL   C24829542   7.157   3.221   7.529  0.3319 -0.3002 -0.3503
   98MOL   H24929543   6.648   3.050   7.750 -2.2560  1.0571 -0.5935
   98MOL   H25029544   6.675   3.161   7.614  0.1979  0.0131  0.0696
   98MOL   H25129545   7.015   2.956   7.774 -1.0588  1.9130  2.8225
   98MOL   H25229546   6.852   2.911   7.813 -0.4647  0.6096  0.5161
   98MOL   H25329547   6.909   2.867   7.659 -2.9142 -0.9842  0.5548
   98MOL   H25429548   7.256   3.193   7.565  0.1999  1.0211  1.0937
   98MOL   H25529549   7.148   3.330   7.534 -0.2380 -0.2207 -2.6127
   98MOL   H25629550   7.147   3.199   7.423  0.3328 -1.4660 -0.1096
   98MOL   C25729551   6.859   3.176   7.815 -0.5122 -0.2104  0.9030
   98MOL   C25829552   6.814   3.326   7.823  0.3766 -1.3864  0.3369
   98MOL   C25929553   6.845   3.413   7.698 -0.3064  0.2753 -0.0855
   98MOL   C26029554   6.662   3.322   7.837  0.4109 -1.0520  0.1462
   98MOL   O26129555   6.591   3.380   7.750 -0.0803 -0.0808 -0.0308
   98MOL   O26229556   6.614   3.254   0.064 -0.3540 -0.1056  0.9020
   98MOL   C26329557   6.473   3.230   0.077  0.7305 -0.3839  0.4992
   98MOL   H26429558   6.966   3.168   7.835 -0.5705 -2.0883  0.5372
   98MOL   H26529559   6.805   3.123   0.016  0.0257 -0.5260  1.0596
   98MOL   H26629560   6.799   3.386   7.603 -1.2654  0.1623  0.3991
   98MOL   H26729561   6.816   3.518   7.694  1.7696  0.8199 -2.5632
   98MOL   H26829562   6.953   3.421   7.683 -0.2177 -0.2333  0.2687
   98MOL   H26929563   6.419   3.321   0.050  2.0371  0.6428  1.2477
   98MOL   H27029564   6.448   3.193   0.176  3.1323  1.9368  2.0441
   98MOL   H27129565   6.433   3.167   7.875 -0.9748  0.9429  0.2680
   98MOL   C27229566   6.864   3.408   0.069  0.2061  0.0506 -0.0443
   98MOL   C27329567   7.013   3.447   0.104 -0.0526  0.1808  0.1438
   98MOL   C27429568   7.103   3.322   0.092  0.1460 -0.2762  0.0241
   98MOL   C27529569   7.079   3.551   0.013  0.3040 -1.0029  0.1601
   98MOL   O27629570   7.183   3.529   7.830  0.5330 -0.2157  0.5861
   98MOL   O27729571   7.018   3.670   0.015  0.1814  0.1381  0.6547
   98MOL   C27829572   7.062   3.773   7.805  0.2384 -0.3161 -0.1544
   98MOL   H27929573   6.841   3.345   0.156  1.0392 -0.5347 -0.2502
   98MOL   H28029574   6.802   3.495   0.091  0.3856  0.3675 -0.8184
   98MOL   H28129575   7.043   3.239   0.131  0.3058  0.4193  1.7458
   98MOL   H28229576   7.117   3.288   7.867 -0.5201 -0.2623 -0.0734
   98MOL   H28329577   7.197   3.338   0.143  0.0800 -1.2630  0.4697
   98MOL   H28429578   7.016   3.872   7.813  0.2758 -0.0913 -2.5306
   98MOL   H28529579   7.037   3.743   7.704  1.4480 -0.2730 -0.4739
   98MOL   H28629580   7.170   3.786   7.815  0.1649 -0.1335  0.4415
   98MOL   C28729581   7.004   3.501   0.251 -0.4478  0.0552  0.0797
   98MOL   C28829582   7.106   3.594   0.322 -0.8453  0.3192  0.2697
   98MOL   C28929583   7.057   3.647   0.458  0.6949  0.5566  0.4651
   98MOL   C29029584   7.240   3.519   0.360 -0.3337  0.8122  0.2913
   98MOL   O29129585   7.240   3.415   0.423 -0.4671  1.0376 -0.6862
   98MOL   O29229586   7.343   3.572   0.290  0.1562  0.2519  0.1964
   98MOL   C29329587   7.475   3.541   0.300 -0.6691 -0.3499 -0.3560
   98MOL   H29429588   6.985   3.412   0.311  1.0346 -1.4962 -1.6844
   98MOL   H29529589   6.914   3.563   0.252  0.1098  0.8754  0.1656
   98MOL   H29629590   7.015   3.564   0.514  0.9283 -0.5159 -0.9115
   98MOL   H29729591   7.130   3.697   0.522  1.9502 -1.1605  0.4263
   98MOL   H29829592   6.975   3.714   0.433 -0.6281 -0.0402  3.0521
   98MOL   H29929593   7.521   3.577   0.392 -0.2786  0.4624 -0.8614
   98MOL   H30029594   7.550   3.577   0.230  0.7270 -1.7029  0.4103
   98MOL   H30129595   7.481   3.433   0.306  0.6960 -0.3319 -1.1631
   98MOL   H30229596   7.130   3.681   0.260 -1.2287 -0.2308 -0.6651
   99MOL     C129597   3.257   0.749   7.210 -0.6280 -0.0059  0.2933
   99MOL     C229598   3.152   0.696   7.313  0.3482  0.2803 -0.0240
   99MOL     C329599   3.134   0.543   7.291 -0.0703  0.1317 -0.4719
   99MOL     C429600   3.212   0.710   7.454  0.4614  0.4806 -0.1940
   99MOL     O529601   3.319   0.760   7.478 -0.8330 -0.2646  0.4948
   99MOL     O629602   3.137   0.647   7.550 -0.8549  0.4459 -0.1525
   99MOL     C729603   3.197   0.628   7.683  0.1428 -0.3786  0.1105
   99MOL     H829604   3.334   0.676   7.184 -0.6309  0.4468 -1.0453
   99MOL     H929605   3.194   0.750   7.120  0.2849 -0.7325 -0.3648
   99MOL    H1029606   3.110   0.514   7.188  0.4243  0.4775 -0.6881
   99MOL    H1129607   3.234   0.500   7.294 -1.3231 -2.7804  1.6760
   99MOL    H1229608   3.072   0.490   7.363  1.5705 -0.3784  0.5749
   99MOL    H1329609   3.299   0.668   7.690 -0.1416  0.4732 -0.5261
   99MOL    H1429610   3.200   0.523   7.713 -0.6586 -0.1578  1.0082
   99MOL    H1529611   3.128   0.669   7.757  0.8107  0.3310  0.3568
   99MOL    H1629612   3.301   0.844   7.238  1.1728 -0.0069 -2.2903
   99MOL    C1729613   3.010   0.754   7.306  0.3750  0.7369 -0.2835
   99MOL    C1829614   2.981   0.903   7.313 -0.4797 -0.4155 -0.4482
   99MOL    C1929615   3.018   0.957   7.453 -0.4547  0.7445  0.3715
   99MOL    C2029616   3.061   0.986   7.199 -0.5795  0.0411  0.5492
   99MOL    O2129617   3.130   1.082   7.227  0.1122 -0.3181 -0.5995
   99MOL    O2229618   3.044   0.933   7.079  0.5723 -0.0555 -0.2884
   99MOL    C2329619   3.122   0.975   6.968  0.0178  0.6853 -0.2365
   99MOL    H2429620   2.960   0.705   7.390 -0.4395 -1.2289 -1.8876
   99MOL    H2529621   2.964   0.713   7.216  0.4735  0.6480 -0.2926
   99MOL    H2629622   3.124   0.979   7.455 -0.1594 -0.6199  0.4458
   99MOL    H2729623   2.970   1.051   7.480  0.1670  1.2818 -0.4154
   99MOL    H2829624   3.003   0.884   7.533 -2.9191 -0.5499 -1.2076
   99MOL    H2929625   3.224   1.002   6.994  0.5729 -1.3956 -0.1990
   99MOL    H3029626   3.080   1.050   6.901 -0.0916  0.6911 -0.1615
   99MOL    H3129627   3.145   0.888   6.907 -1.3639  2.4177 -3.3107
   99MOL    C3229628   2.824   0.930   7.299  0.0717  0.0982  0.3976
   99MOL    C3329629   2.748   1.067   7.266  0.2917  0.4761 -0.2229
   99MOL    C3429630   2.805   1.187   7.347  0.2978 -0.2814  0.0616
   99MOL    C3529631   2.766   1.110   7.117  0.2547  0.2283 -0.0759
   99MOL    O3629632   2.766   1.232   7.091  0.7801  1.0370 -0.6086
   99MOL    O3729633   2.751   1.014   7.026 -0.1046 -0.0058 -0.8015
   99MOL    C3829634   2.765   1.047   6.894  0.0881  0.0037 -0.2123
   99MOL    H3929635   2.782   0.902   7.396  1.9364  1.6188  1.6692
   99MOL    H4029636   2.788   0.855   7.228  1.1305 -0.1420  0.0998
   99MOL    H4129637   2.793   1.165   7.454  0.0687  2.9975  0.7714
   99MOL    H4229638   2.908   1.216   7.327  0.4602  0.9749  2.4679
   99MOL    H4329639   2.744   1.276   7.338  1.1677  0.4038  0.8503
   99MOL    H4429640   2.742   0.956   6.838  2.1783  0.6228 -2.1554
   99MOL    H4529641   2.870   1.066   6.872  0.0042 -0.1139 -0.7144
   99MOL    H4629642   2.703   1.132   6.864 -0.8875 -1.4071 -2.3913
   99MOL    C4729643   2.601   1.069   7.307 -0.7378 -0.1215 -0.1861
   99MOL    C4829644   2.480   0.995   7.237  0.3171 -0.2219  0.1785
   99MOL    C4929645   2.458   1.046   7.086  0.5171  0.3924 -0.6031
   99MOL    C5029646   2.515   0.845   7.240 -0.1291 -0.0630 -0.1452
   99MOL    O5129647   2.554   0.777   7.144  0.1350 -0.1278 -0.0841
   99MOL    O5229648   2.519   0.801   7.364 -0.7264 -0.6304  0.3039
   99MOL    C5329649   2.540   0.665   7.387  0.5415 -0.6441 -0.0432
   99MOL    H5429650   2.556   1.168   7.316 -0.7077 -0.1854  0.7689
   99MOL    H5529651   2.609   1.045   7.413 -0.7827  0.0303 -0.1478
   99MOL    H5629652   2.494   1.149   7.086 -1.9478  1.2867 -0.5908
   99MOL    H5729653   2.510   0.995   7.005  2.7005 -0.9628  1.6084
   99MOL    H5829654   2.354   1.036   7.054  0.8975  1.0540 -2.1031
   99MOL    H5929655   2.533   0.648   7.495  0.3486 -0.3036 -0.0012
   99MOL    H6029656   2.640   0.635   7.356  0.3030 -1.0477 -0.4322
   99MOL    H6129657   2.463   0.598   7.348  0.6498 -0.3664 -0.7224
   99MOL    C6229658   2.351   1.033   7.328  0.5734 -0.4392 -0.5388
   99MOL    C6329659   2.219   0.944   7.334 -0.8734  0.5293 -0.0127
   99MOL    C6429660   2.172   0.920   7.190  0.7108 -0.4600  0.3781
   99MOL    C6529661   2.232   0.810   7.411 -0.1781  0.2154 -0.6220
   99MOL    O6629662   2.207   0.698   7.361 -0.6097  0.2160  0.7303
   99MOL    O6729663   2.286   0.815   7.539 -0.1808  0.1391  0.1523
   99MOL    C6829664   2.301   0.697   7.619 -0.3471  0.1442  0.3686
   99MOL    H6929665   2.320   1.132   7.295  0.8894 -0.3929 -0.6916
   99MOL    H7029666   2.382   1.039   7.433 -2.7876 -0.9882  0.5496
   99MOL    H7129667   2.074   0.872   7.186 -0.2292  1.5620 -2.8838
   99MOL    H7229668   2.153   1.008   7.128 -2.7483 -0.3173  1.5235
   99MOL    H7329669   2.246   0.861   7.136  1.3169 -2.5450  3.3896
   99MOL    H7429670   2.396   0.711   7.671 -1.0818  1.3676  1.4242
   99MOL    H7529671   2.306   0.603   7.565  2.8362  1.6193 -2.0912
   99MOL    H7629672   2.216   0.681   7.686 -1.0021 -1.8776 -0.9081
   99MOL    C7729673   2.122   1.045   7.417 -0.3569  0.0650 -0.1477
   99MOL    C7829674   1.978   1.012   7.472 -0.5053  0.2487 -0.8909
   99MOL    C7929675   1.885   0.936   7.368  0.4336  0.8184 -0.2263
   99MOL    C8029676   1.987   0.920   7.598  0.3334  0.0512 -0.0198
   99MOL    O8129677   1.927   0.812   7.596 -0.4094 -0.4118  0.3946
   99MOL    O8229678   2.056   0.974   7.701 -0.0960 -0.6704  0.2281
   99MOL    C8329679   2.061   0.912   7.825  0.4159  0.4260 -0.1683
   99MOL    H8429680   2.121   1.148   7.380  0.6546 -0.6235 -2.1749
   99MOL    H8529681   2.173   1.063   7.512 -0.8142 -0.5713  0.2196
   99MOL    H8629682   1.777   0.941   7.385  1.0103  3.0189  3.4414
   99MOL    H8729683   1.910   0.969   7.267  2.7480 -0.8743 -0.2479
   99MOL    H8829684   1.910   0.830   7.359 -0.6523  0.6572 -1.4854
   99MOL    H8929685   2.149   0.849   7.841  0.1082 -0.2378 -1.0532
   99MOL    H9029686   1.974   0.853   7.850 -0.4009  2.4222  1.8740
   99MOL    H9129687   2.078   0.979   0.032  0.6046 -1.7877  1.5832
   99MOL    C9229688   1.919   1.160   7.500  0.0257  0.2143 -0.1680
   99MOL    C9329689   1.792   1.203   7.590 -0.4627  0.4746 -0.8658
   99MOL    C9429690   1.669   1.109   7.560 -0.3606 -0.2294 -0.0559
   99MOL    C9529691   1.833   1.191   7.742  0.7485 -0.4927  0.3785
   99MOL    O9629692   1.782   1.102   7.814 -0.0046 -1.1706 -0.2909
   99MOL    O9729693   1.907   1.293   7.782  0.1992 -0.0752  0.0767
   99MOL    C9829694   1.964   1.303   0.035  0.6816 -0.9416 -0.0843
   99MOL    H9929695   1.892   1.194   7.400  0.2304  0.5784 -0.1014
   99MOL   H10029696   1.996   1.227   7.540 -0.7241  1.3046 -0.5350
   99MOL   H10129697   1.584   1.157   7.608  1.4599  2.4567  0.6382
   99MOL   H10229698   1.654   1.097   7.453 -1.7323 -1.0233  0.2205
   99MOL   H10329699   1.676   1.007   7.599  0.0482 -0.5271 -0.8896
   99MOL   H10429700   2.010   1.209   0.066 -0.6483 -1.4280  0.4510
   99MOL   H10529701   1.874   1.324   0.094  1.8160 -0.5290  1.5188
   99MOL   H10629702   2.033   1.381   0.066  1.1516 -1.3252 -0.1665
   99MOL   C10729703   1.771   1.351   7.549 -0.1287 -0.7650 -0.2846
   99MOL   C10829704   1.661   1.452   7.598  0.1151 -0.1318  0.3129
   99MOL   C10929705   1.711   1.593   7.556 -0.3982 -0.5080 -0.4708
   99MOL   C11029706   1.539   1.409   7.507 -0.3099 -0.1044 -0.1762
   99MOL   O11129707   1.446   1.354   7.554  0.4687 -0.0729  0.4926
   99MOL   O11229708   1.551   1.443   7.378 -0.5672 -0.1823 -0.1703
   99MOL   C11329709   1.456   1.389   7.285  0.1621 -0.3503 -0.9827
   99MOL   H11429710   1.763   1.351   7.440 -1.5078 -0.1186 -0.1927
   99MOL   H11529711   1.867   1.402   7.560 -0.1873 -0.8014  0.3950
   99MOL   H11629712   1.758   1.602   7.458 -1.0830 -2.3447 -0.9936
   99MOL   H11729713   1.628   1.663   7.546  1.1804  1.3194 -1.0857
   99MOL   H11829714   1.788   1.634   7.621 -1.4261  0.3045  0.2466
   99MOL   H11929715   1.379   1.462   7.260 -0.4352 -0.6601 -0.0784
   99MOL   H12029716   1.413   1.292   7.311 -0.8765 -0.1596 -2.0004
   99MOL   H12129717   1.514   1.374   7.194  1.0328 -1.2756 -0.2876
   99MOL   C12229718   1.636   1.438   7.754 -0.1165  0.0156 -0.1828
   99MOL   C12329719   1.536   1.526   7.837  0.3964  0.4027  0.3602
   99MOL   C12429720   1.543   1.460   0.099 -0.0094 -0.3093 -0.0486
   99MOL   C12529721   1.594   1.673   7.854 -0.1743  0.3256  0.6696
   99MOL   O12629722   1.654   1.705   0.081  0.1150  0.1642  0.4742
   99MOL   O12729723   1.575   1.747   7.746 -0.5088 -0.2471 -0.6295
   99MOL   C12829724   1.595   1.883   7.734 -0.5715 -0.3162 -0.4390
   99MOL   H12929725   1.732   1.462   7.799 -0.3774  2.2621 -0.7673
   99MOL   H13029726   1.609   1.334   7.773  0.0663  0.1532  0.8117
   99MOL   H13129727   1.495   1.519   0.177  0.3162  1.1706 -0.9387
   99MOL   H13229728   1.508   1.357   0.096 -3.4994  0.7829  0.4400
   99MOL   H13329729   1.645   1.445   0.133  0.5795  0.0131 -1.6158
   99MOL   H13429730   1.661   1.930   7.808 -0.8051  1.7621 -1.5124
   99MOL   H13529731   1.502   1.936   7.751 -0.6192 -0.7660  0.8114
   99MOL   H13629732   1.630   1.908   7.634  1.5244  1.4791  0.6976
   99MOL   C13729733   1.387   1.534   7.791 -0.5628 -0.6025  0.1193
   99MOL   C13829734   1.261   1.580   7.871  0.1050 -0.4367  0.4305
   99MOL   C13929735   1.218   1.470   0.087 -0.0365 -0.2468  0.8164
   99MOL   C14029736   1.300   1.708   0.073  0.1090 -0.0031  0.2004
   99MOL   O14129737   1.312   1.824   0.029  0.5202  0.0987 -0.1590
   99MOL   O14229738   1.294   1.691   0.207 -0.3707  0.1973 -0.3636
   99MOL   C14329739   1.303   1.813   0.291 -0.4562  0.2688  0.1368
   99MOL   H14429740   1.365   1.430   7.769  0.0562 -0.7547  0.2327
   99MOL   H14529741   1.392   1.583   7.693  2.9510  0.3812  0.7486
   99MOL   H14629742   1.304   1.443   0.148 -0.0325 -0.6405  0.6377
   99MOL   H14729743   1.131   1.491   0.148 -0.2816 -1.4051  0.8815
   99MOL   H14829744   1.194   1.381   0.028 -0.7814  0.4048  0.1230
   99MOL   H14929745   1.304   1.797   0.399 -2.1533 -0.6222  0.0354
   99MOL   H15029746   1.229   1.891   0.280  0.7313  1.3536 -0.2919
   99MOL   H15129747   1.405   1.847   0.274 -0.4432  0.4236  0.5289
   99MOL   C15229748   1.153   1.607   7.766  0.0383  0.6676 -0.9178
   99MOL   C15329749   1.001   1.655   7.774 -0.9934 -0.0004  0.0416
   99MOL   C15429750   0.980   1.733   7.637 -0.5287  0.1094 -0.0960
   99MOL   C15529751   0.905   1.533   7.781  0.0165 -0.1637  0.6390
   99MOL   O15629752   0.938   1.441   7.854  0.1269  0.1225  0.1843
   99MOL   O15729753   0.788   1.553   7.713 -0.0241 -0.0059 -0.1479
   99MOL   C15829754   0.696   1.442   7.706  0.3322 -0.8565  0.1385
   99MOL   H15929755   1.141   1.520   7.701  0.5707 -1.9013  2.2863
   99MOL   H16029756   1.194   1.689   7.706 -0.5593  1.1166 -0.7163
   99MOL   H16129757   0.991   1.665   7.553 -1.6751 -1.8017  1.2683
   99MOL   H16229758   0.883   1.782   7.631 -0.7884 -0.4570 -0.5456
   99MOL   H16329759   1.047   1.819   7.637 -2.2986  1.5363  1.4254
   99MOL   H16429760   0.722   1.365   7.634 -0.5200  0.5230 -1.6890
   99MOL   H16529761   0.595   1.481   7.688  0.4071 -1.0519 -0.7425
   99MOL   H16629762   0.680   1.389   7.800  1.3696 -1.2057  0.1234
   99MOL   C16729763   0.985   1.758   0.014  0.7287  0.1227 -0.5040
   99MOL   C16829764   0.852   1.806   0.077  0.2070  0.5474  0.3692
   99MOL   C16929765   0.815   1.695   0.176 -0.8414  0.0582 -0.4621
   99MOL   C17029766   0.907   1.930   0.164  0.1069 -0.2115  0.8099
   99MOL   O17129767   0.906   1.926   0.286 -0.6203 -0.1555 -0.1628
   99MOL   O17229768   0.967   2.032   0.096  0.1685  0.2746 -0.3449
   99MOL   C17329769   1.045   2.135   0.164 -0.5736 -0.9085  0.3422
   99MOL   H17429770   1.030   1.850   7.855  0.1276  0.9863  0.8846
   99MOL   H17529771   1.045   1.725   0.098 -0.0264  0.5445  0.2078
   99MOL   H17629772   0.784   1.607   0.120  1.1378 -1.6807  1.0920
   99MOL   H17729773   0.902   1.665   0.235 -0.6506  1.4453 -0.0195
   99MOL   H17829774   0.747   1.715   0.259  3.1022 -0.2287  2.9891
   99MOL   H17929775   0.980   2.193   0.229 -0.6827  0.1587 -0.7033
   99MOL   H18029776   1.097   2.199   0.093 -0.9631  1.2964  2.0158
   99MOL   H18129777   1.116   2.094   0.236 -1.3921 -0.0226  1.6777
   99MOL   C18229778   0.736   1.849   7.857 -0.7144  0.3749 -0.1101
   99MOL   C18329779   0.586   1.875   0.030 -0.7555 -0.4785  0.0590
   99MOL   C18429780   0.514   1.740   0.062  0.1677 -0.8034 -0.5850
   99MOL   C18529781   0.579   1.958   0.160  0.4992  0.7743 -0.3868
   99MOL   O18629782   0.506   1.932   0.258  0.0386  0.1894 -0.9466
   99MOL   O18729783   0.653   2.063   0.161  0.3131  0.1853  0.2087
   99MOL   C18829784   0.655   2.151   0.270  0.0198  0.2440  0.0448
   99MOL   H18929785   0.731   1.780   7.773 -1.6135  0.8444 -0.4534
   99MOL   H19029786   0.771   1.940   7.808  0.0175 -0.5752 -1.3685
   99MOL   H19129787   0.512   1.671   7.856 -0.2901 -1.9299  0.3426
   99MOL   H19229788   0.558   1.677   0.139  0.3810 -0.3306 -0.3122
   99MOL   H19329789   0.412   1.751   0.098 -0.2246 -2.2511 -1.2192
   99MOL   H19429790   0.705   2.112   0.358 -2.2013  0.3742  1.4129
   99MOL   H19529791   0.552   2.172   0.300 -0.4725 -0.8222 -0.8535
   99MOL   H19629792   0.715   2.239   0.249 -1.0703  0.7363 -1.1446
   99MOL   C19729793   0.512   1.935   7.778 -0.1700 -0.0054 -0.3904
   99MOL   C19829794   0.431   2.070   7.772  0.1021 -0.3815 -0.5465
   99MOL   C19929795   0.317   2.068   0.003 -0.0893 -0.3321  0.4341
   99MOL   C20029796   0.518   2.193   7.793 -0.4651 -0.0456 -0.5838
   99MOL   O20129797   0.467   2.299   7.837 -0.3941  0.5720 -0.4586
   99MOL   O20229798   0.646   2.177   7.755 -0.0071  0.3563  0.9010
   99MOL   C20329799   0.747   2.281   7.778  0.0611  0.1065  0.0362
   99MOL   H20429800   0.458   1.856   7.728 -1.4788  0.4687  0.2614
   99MOL   H20529801   0.593   1.952   7.708 -0.1147  5.2819  0.7028
   99MOL   H20629802   0.284   1.966   0.018  1.3101 -0.5075  2.5148
   99MOL   H20729803   0.360   2.098   0.098  0.2427  0.0251  0.1742
   99MOL   H20829804   0.228   2.131   7.873 -0.8172 -1.5705 -1.5513
   99MOL   H20929805   0.700   2.378   7.764  0.9904  0.2412 -2.3858
   99MOL   H21029806   0.821   2.280   7.697  0.0781 -1.3418  0.0478
   99MOL   H21129807   0.785   2.264   0.001 -1.3834  2.6290  1.0559
   99MOL   C21229808   0.352   2.061   7.638 -0.3202 -0.2472 -0.3847
   99MOL   C21329809   0.404   2.078   7.490  0.3639  0.1818  0.2503
   99MOL   C21429810   0.511   2.184   7.476 -1.2093  0.4746  0.4183
   99MOL   C21529811   0.460   1.933   7.448 -0.2665  0.2431 -0.2208
   99MOL   O21629812   0.421   1.827   7.495 -1.0211 -0.0372  0.3820
   99MOL   O21729813   0.555   1.950   7.341 -0.3435  0.3926  0.4478
   99MOL   C21829814   0.596   1.834   7.275 -0.2913  0.1960  0.8553
   99MOL   H21929815   0.287   2.149   7.644 -1.0642 -0.7800 -0.6579
   99MOL   H22029816   0.284   1.978   7.652  2.5093 -2.3155  1.9626
   99MOL   H22129817   0.486   2.278   7.523  2.2787  0.5378  2.2960
   99MOL   H22229818   0.604   2.143   7.516 -2.4019 -3.9554 -1.0628
   99MOL   H22329819   0.542   2.203   7.373 -0.3006 -0.0875  0.5781
   99MOL   H22429820   0.609   1.875   7.175 -0.6545  0.4872  0.9282
   99MOL   H22529821   0.517   1.759   7.284 -1.5610  1.6772  2.2472
   99MOL   H22629822   0.696   1.810   7.315 -0.2918  1.3557  1.5666
   99MOL   C22729823   0.294   2.125   7.387  0.0260  0.2751 -0.4189
   99MOL   C22829824   0.165   2.054   7.346  0.6620  0.1997 -0.3178
   99MOL   C22929825   0.200   1.936   7.243  0.3464  0.0046  0.1895
   99MOL   C23029826   0.093   1.996   7.474 -0.1108  0.5086 -0.0129
   99MOL   O23129827   0.079   1.880   7.486 -0.5809  0.5878  0.1673
   99MOL   O23229828   0.048   2.089   7.565 -0.2907  0.6076 -0.0469
   99MOL   C23329829   7.855   2.037   7.675 -0.9997  0.2843 -0.0173
   99MOL   H23429830   0.345   2.130   7.291  0.6665  1.6357 -0.0140
   99MOL   H23529831   0.276   2.231   7.402 -1.0041  0.0674 -0.1453
   99MOL   H23629832   0.242   1.971   7.149 -1.7848  2.0835 -0.0172
   99MOL   H23729833   0.270   1.861   7.280 -1.0386 -1.4347 -0.0505
   99MOL   H23829834   0.108   1.883   7.222 -0.1550  0.6734  0.6736
   99MOL   H23929835   7.764   2.097   7.678 -1.4007 -0.3598  0.8693
   99MOL   H24029836   0.033   2.051   7.767 -4.1834 -0.7301  2.1359
   99MOL   H24129837   7.815   1.935   7.666 -0.7995 -0.0730  2.7727
   99MOL   C24229838   0.069   2.167   7.282 -0.2843 -0.0096 -0.4965
   99MOL   C24329839   7.809   2.148   7.213  0.5570  0.7841  0.1265
   99MOL   C24429840   7.828   2.154   7.063  0.0451  0.2596  0.4864
   99MOL   C24529841   7.742   2.012   7.244  0.1794 -0.6651 -0.3337
   99MOL   O24629842   7.757   1.910   7.177 -0.4063 -0.0537 -0.3128
   99MOL   O24729843   7.675   2.009   7.355 -0.1657  0.0517  0.2991
   99MOL   C24829844   7.621   1.887   7.406 -0.1001 -0.4220  0.0332
   99MOL   H24929845   0.133   2.195   7.199  0.8973 -0.3731  0.2777
   99MOL   H25029846   0.058   2.251   7.350 -0.0432 -1.1568  0.9971
   99MOL   H25129847   7.733   2.142   7.010 -0.1461 -0.6072  1.0270
   99MOL   H25229848   7.874   2.250   7.038 -3.5016  1.2077 -2.9067
   99MOL   H25329849   0.009   2.081   7.008 -0.8723  0.2964 -0.5540
   99MOL   H25429850   7.706   1.823   7.426 -0.4381 -0.8760  0.0138
   99MOL   H25529851   7.548   1.839   7.340 -2.0634 -0.1324  1.9223
   99MOL   H25629852   7.566   1.918   7.495 -1.6143 -1.7460 -0.4096
   99MOL   C25729853   7.710   2.268   7.270 -0.1146  0.4415  0.5937
   99MOL   C25829854   7.700   2.409   7.199  0.6513 -0.5881 -0.9417
   99MOL   C25929855   7.845   2.464   7.194 -0.1660 -0.3438 -0.3846
   99MOL   C26029856   7.639   2.403   7.057 -0.0357 -0.3707 -0.0060
   99MOL   O26129857   7.681   2.471   6.963 -0.0003 -0.1564 -0.1232
   99MOL   O26229858   7.537   2.315   7.050  0.1306  0.3903  0.7494
   99MOL   C26329859   7.457   2.324   6.931 -0.6370 -0.3325 -1.1424
   99MOL   H26429860   7.716   2.271   7.379 -0.2519  2.3154  0.5602
   99MOL   H26529861   7.607   2.232   7.268  0.1331 -0.1663 -2.5095
   99MOL   H26629862   0.047   2.393   7.173  0.4736  0.0090  0.8248
   99MOL   H26729863   7.861   2.547   7.124 -0.7124  1.1004  1.1625
   99MOL   H26829864   7.868   2.506   7.292 -0.1369  0.7259 -0.8450
   99MOL   H26929865   7.517   2.311   6.841  0.1488  1.8849 -0.9749
   99MOL   H27029866   7.406   2.421   6.927  1.2445  0.6230 -2.9684
   99MOL   H27129867   7.383   2.244   6.932 -1.5490  0.5033  0.2388
   99MOL   C27229868   7.609   2.497   7.299 -1.2303  0.0335 -0.3151
   99MOL   C27329869   7.548   2.639   7.279  0.0722 -0.4591 -0.1552
   99MOL   C27429870   7.663   2.728   7.239 -0.1612  0.1000  0.0857
   99MOL   C27529871   7.450   2.637   7.160  0.0236  0.3040 -0.6475
   99MOL   O27629872   7.471   2.686   7.055 -0.3287 -0.4230 -0.1365
   99MOL   O27729873   7.337   2.566   7.183 -0.4679  0.2661 -0.5359
   99MOL   C27829874   7.226   2.560   7.094 -0.2378 -0.0912  0.0074
   99MOL   H27929875   7.665   2.517   7.391 -1.8204 -1.0269  0.2741
   99MOL   H28029876   7.522   2.438   7.327 -0.0296 -1.1496  1.0032
   99MOL   H28129877   7.715   2.685   7.153 -2.6060 -1.8673 -0.4543
   99MOL   H28229878   7.638   2.830   7.212 -1.2353  0.2656  1.6394
   99MOL   H28329879   7.735   2.753   7.318  0.8452 -2.0323 -0.1145
   99MOL   H28429880   7.165   2.471   7.115  1.1189 -0.7174  1.3890
   99MOL   H28529881   7.272   2.539   6.997 -2.3588 -0.1041 -1.0186
   99MOL   H28629882   7.159   2.646   7.089 -0.7052 -0.2557  2.9461
   99MOL   C28729883   7.479   2.685   7.420  0.5012  0.2929  0.9125
   99MOL   C28829884   7.388   2.807   7.421 -0.0392  0.5570  0.3422
   99MOL   C28929885   7.313   2.828   7.560  0.1092  0.1263  0.2500
   99MOL   C29029886   7.458   2.938   7.384 -0.8417  0.2118 -0.2791
   99MOL   O29129887   7.560   2.976   7.448 -0.3515  0.0142 -0.2342
   99MOL   O29229888   7.399   3.003   7.286  0.5388 -0.1375 -0.1321
   99MOL   C29329889   7.460   3.123   7.232  0.0561 -0.0346  0.0392
   99MOL   H29429890   7.557   2.688   7.497 -0.6266  0.2888  2.0784
   99MOL   H29529891   7.414   2.610   7.465  0.6685  0.4438  1.4132
   99MOL   H29629892   7.379   2.877   7.632  1.0498 -2.6093  1.3312
   99MOL   H29729893   7.225   2.889   7.544  0.0101 -0.1895 -0.4464
   99MOL   H29829894   7.265   2.736   7.596 -2.2664  1.2507  0.0203
   99MOL   H29929895   7.401   3.156   7.147 -0.7143 -3.9567 -1.0409
   99MOL   H30029896   7.567   3.122   7.214  0.0294 -0.0310 -0.1232
   99MOL   H30129897   7.446   3.207   7.300 -0.1697  0.8786 -1.1288
   99MOL   H30229898   7.305   2.797   7.352  1.0115  0.4983 -0.9175
  100MOL     C129899   4.152   6.175   4.496 -0.1564  0.5188  0.2115
  100MOL     C229900   4.052   6.105   4.398  0.0678 -0.0202 -0.0212
  100MOL     C329901   4.114   6.100   4.257  0.5929  0.1660  0.0735
  100MOL     C429902   4.045   5.950   4.440  0.5754 -0.4401 -0.6634
  100MOL     O529903   3.942   5.884   4.425  0.0522  0.0230 -0.2247
  100MOL     O629904   4.164   5.906   4.467 -0.3998 -0.0881  0.2253
  100MOL     C729905   4.177   5.771   4.502 -0.3310 -0.0969 -0.6071
  100MOL     H829906   4.143   6.280   4.468  0.6082  0.7213  0.6997
  100MOL     H929907   4.120   6.159   4.599 -1.5004  0.6657 -0.1683
  100MOL    H1029908   4.215   6.059   4.246  0.2617 -0.4681 -0.6532
  100MOL    H1129909   4.051   6.040   4.192 -1.9714  1.1075  1.6239
  100MOL    H1229910   4.106   6.195   4.206  0.8331  1.6411  2.6831
  100MOL    H1329911   4.164   5.718   4.407 -1.3652 -1.2342  0.1536
  100MOL    H1429912   4.107   5.743   4.580 -0.1094 -1.1605 -0.7818
  100MOL    H1529913   4.280   5.751   4.531 -0.7368 -0.7958  0.3851
  100MOL    H1629914   4.258   6.149   4.493  0.2515  2.2956 -2.8920
  100MOL    C1729915   3.908   6.175   4.396 -0.3949  0.4434 -0.3654
  100MOL    C1829916   3.828   6.219   4.515  0.2362  0.6133  1.1065
  100MOL    C1929917   3.896   6.346   4.581  0.0939  0.1578  0.0877
  100MOL    C2029918   3.693   6.264   4.455 -0.6659  0.0448  0.3512
  100MOL    O2129919   3.658   6.382   4.462 -0.0389 -0.4112  0.2355
  100MOL    O2229920   3.620   6.164   4.389  0.0288 -0.1352  0.0058
  100MOL    C2329921   3.483   6.182   4.344  0.3442 -0.1857  0.1342
  100MOL    H2429922   3.852   6.115   4.324 -0.6926 -0.3972  0.5522
  100MOL    H2529923   3.932   6.260   4.332 -1.4992 -0.3686 -1.8910
  100MOL    H2629924   3.829   6.410   4.639 -1.1681  0.1808 -1.3912
  100MOL    H2729925   3.978   6.311   4.644  0.2187  1.4581  0.6712
  100MOL    H2829926   3.944   6.409   4.506  0.3538  0.0085  0.1255
  100MOL    H2929927   3.507   6.243   4.258 -0.6581 -0.8663 -0.6466
  100MOL    H3029928   3.426   6.240   4.416  2.0835 -0.0069  1.4182
  100MOL    H3129929   3.427   6.091   4.323  0.2874 -0.0694 -0.2186
  100MOL    C3229930   3.820   6.107   4.628 -0.1734 -0.2766  0.1659
  100MOL    C3329931   3.726   6.096   4.755 -0.0321 -0.7336 -0.7961
  100MOL    C3429932   3.683   5.945   4.758  0.2421  0.6635  0.1308
  100MOL    C3529933   3.815   6.126   4.875  0.1140  0.7099  0.2660
  100MOL    O3629934   3.869   6.032   4.936  0.1983 -0.0640 -0.0532
  100MOL    O3729935   3.830   6.254   4.898  0.0950  0.2813  0.3346
  100MOL    C3829936   3.926   6.304   4.992  0.3227  0.7552  0.6813
  100MOL    H3929937   3.922   6.085   4.661 -0.9529 -4.2410  0.2131
  100MOL    H4029938   3.791   6.026   4.561  0.8350 -0.2362 -0.3245
  100MOL    H4129939   3.637   5.911   4.665  1.7931 -0.2446 -0.3212
  100MOL    H4229940   3.765   5.877   4.779  1.0462  2.0875  1.6734
  100MOL    H4329941   3.620   5.921   4.844 -0.8268  2.1247 -0.2287
  100MOL    H4429942   4.029   6.297   4.957  0.3005 -2.6445  1.1319
  100MOL    H4529943   3.934   6.251   5.088 -0.4306  0.2820  0.4818
  100MOL    H4629944   3.893   6.406   5.009 -0.3742  0.5689  0.4668
  100MOL    C4729945   3.600   6.186   4.748 -0.3790 -0.4271 -0.5695
  100MOL    C4829946   3.479   6.177   4.844 -0.5431  0.4523  0.1987
  100MOL    C4929947   3.531   6.173   4.992 -0.0405 -0.1327  0.7273
  100MOL    C5029948   3.396   6.307   4.819 -0.5694  0.9884  0.0060
  100MOL    O5129949   3.350   6.383   4.905  0.9187 -0.0405 -0.1574
  100MOL    O5229950   3.382   6.324   4.687 -0.4321 -0.4960  0.3541
  100MOL    C5329951   3.283   6.418   4.643 -0.4758  0.2369  0.1529
  100MOL    H5429952   3.561   6.177   4.646 -1.3675  1.9002 -0.4091
  100MOL    H5529953   3.629   6.290   4.758 -0.1672 -0.4457 -0.9547
  100MOL    H5629954   3.452   6.201   5.061 -0.4349  0.1301  0.1738
  100MOL    H5729955   3.572   6.078   5.028 -1.9081 -1.4613 -0.5648
  100MOL    H5829956   3.604   6.252   5.004 -1.1949  0.9729  0.5352
  100MOL    H5929957   3.286   6.514   4.694 -1.0300  0.6660 -0.5964
  100MOL    H6029958   3.182   6.375   4.642 -1.1740  1.7364  2.9823
  100MOL    H6129959   3.295   6.446   4.538 -0.1865  0.6766  0.3057
  100MOL    C6229960   3.383   6.065   4.791  0.0892 -0.7664  0.3999
  100MOL    C6329961   3.286   5.984   4.887  0.4743 -0.1207 -0.4010
  100MOL    C6429962   3.370   5.866   4.953 -0.0931  0.1401  0.2799
  100MOL    C6529963   3.221   6.068   5.004  0.4553 -0.3061  0.0916
  100MOL    O6629964   3.245   6.048   5.122  0.6259 -0.9893 -0.5262
  100MOL    O6729965   3.153   6.169   4.950  0.1819  0.0550  0.2510
  100MOL    C6829966   3.072   6.247   5.041 -0.6186  0.7614 -0.0849
  100MOL    H6929967   3.440   5.991   4.735 -0.1604  0.5474 -1.6237
  100MOL    H7029968   3.315   6.110   4.719  0.9463  1.5590  1.0110
  100MOL    H7129969   3.418   5.906   5.042  1.7547 -0.9481 -0.1885
  100MOL    H7229970   3.304   5.781   4.968 -0.0409  0.4333  2.2294
  100MOL    H7329971   3.453   5.834   4.890 -0.2681 -1.2522  0.7537
  100MOL    H7429972   3.006   6.189   5.106  3.1618 -1.7599  1.6945
  100MOL    H7529973   3.002   6.308   4.984 -1.8359 -0.8983 -0.4334
  100MOL    H7629974   3.130   6.310   5.108  0.0666 -2.1728  2.2160
  100MOL    C7729975   3.169   5.926   4.798 -0.4135 -0.3476 -0.1033
  100MOL    C7829976   3.185   5.847   4.659  0.0161  0.2791 -0.5409
  100MOL    C7929977   3.238   5.940   4.544  0.1853  0.3343  0.4833
  100MOL    C8029978   3.290   5.733   4.668  0.3123 -0.0757 -0.2080
  100MOL    O8129979   3.410   5.746   4.636 -0.3386  0.5250 -0.2872
  100MOL    O8229980   3.251   5.620   4.730 -0.1156 -0.4226  0.0609
  100MOL    C8329981   3.342   5.517   4.772  0.0857 -0.2021 -0.3549
  100MOL    H8429982   3.107   6.012   4.773  0.7728  0.2895 -0.9291
  100MOL    H8529983   3.103   5.867   4.862  1.8725 -2.5731  0.3079
  100MOL    H8629984   3.184   6.033   4.525 -0.5368 -0.3616 -1.0512
  100MOL    H8729985   3.341   5.969   4.562  0.6514 -2.1813  2.1129
  100MOL    H8829986   3.243   5.883   4.451 -1.5924 -0.2480  0.7239
  100MOL    H8929987   3.445   5.551   4.781 -0.3374  0.5885  2.0542
  100MOL    H9029988   3.326   5.430   4.709  0.6118  1.1004 -2.3590
  100MOL    H9129989   3.312   5.490   4.873  0.8562  0.2669  0.0020
  100MOL    C9229990   3.050   5.777   4.621 -0.4278 -0.0277  0.2403
  100MOL    C9329991   2.916   5.842   4.573 -0.3288 -0.1957 -0.0368
  100MOL    C9429992   2.895   5.985   4.642  0.5156  0.6560  0.7668
  100MOL    C9529993   2.908   5.860   4.419  1.0302 -0.8402  0.2452
  100MOL    O9629994   2.985   5.809   4.339 -0.4329  0.1785 -0.2173
  100MOL    O9729995   2.788   5.919   4.371  0.0424  0.5962 -0.9901
  100MOL    C9829996   2.768   5.937   4.230 -0.1521 -0.4732  0.4799
  100MOL    H9929997   3.026   5.716   4.709 -1.8015  1.3330  0.8267
  100MOL   H10029998   3.073   5.706   4.542  2.0041  2.2085 -1.1175
  100MOL   H10129999   2.886   5.972   4.749  1.0115  0.0389  0.7373
  100MOL   H10230000   2.972   6.054   4.604  0.0866  0.7808  0.1045
  100MOL   H10330001   2.798   6.031   4.621 -0.6966 -1.5105  1.4738
  100MOL   H10430002   2.668   5.973   4.208 -0.6181 -1.4088  1.0557
  100MOL   H10530003   2.784   5.845   4.173  0.4596  0.3117 -0.6577
  100MOL   H10630004   2.837   6.015   4.195  1.2192 -2.2303 -0.8325
  100MOL   C10730005   2.790   5.765   4.626 -0.2756  0.0535  0.5045
  100MOL   C10830006   2.740   5.623   4.579 -1.0092  0.2057  0.0528
  100MOL   C10930007   2.712   5.610   4.422  0.2147  0.1246 -0.5897
  100MOL   C11030008   2.847   5.515   4.616 -0.4632  0.5956  0.3704
  100MOL   O11130009   2.826   5.423   4.696 -0.7843 -0.3225  0.2237
  100MOL   O11230010   2.948   5.508   4.536 -0.4142 -0.9517 -0.1101
  100MOL   C11330011   3.037   5.392   4.543  0.9277 -0.0101  0.2993
  100MOL   H11430012   2.703   5.825   4.600 -0.4398  0.4452  1.9579
  100MOL   H11530013   2.795   5.773   4.734  2.1052 -0.4539  0.4631
  100MOL   H11630014   2.807   5.625   4.370  0.7024  0.0205  0.2497
  100MOL   H11730015   2.682   5.512   4.384 -3.1866  0.5510  0.8564
  100MOL   H11830016   2.636   5.681   4.390  0.7809 -0.0805 -2.4443
  100MOL   H11930017   2.988   5.306   4.495  0.0332 -0.8770  2.6865
  100MOL   H12030018   3.070   5.365   4.643  0.2427  1.6141  0.9869
  100MOL   H12130019   3.125   5.399   4.480  1.8672 -1.2807  1.4400
  100MOL   C12230020   2.600   5.590   4.637  0.1678  0.0012 -0.1790
  100MOL   C12330021   2.548   5.627   4.782  0.4389  0.3588  0.0599
  100MOL   C12430022   2.643   5.578   4.882 -0.1966  0.5193 -0.4041
  100MOL   C12530023   2.524   5.781   4.805  0.2573 -0.6361 -0.2371
  100MOL   O12630024   2.564   5.837   4.913  0.1158  0.0503  0.1857
  100MOL   O12730025   2.456   5.836   4.703 -0.2049 -0.2276  0.0546
  100MOL   C12830026   2.406   5.966   4.713  0.2539 -0.0125  0.0492
  100MOL   H12930027   2.592   5.482   4.627 -1.5661  0.0223  0.7750
  100MOL   H13030028   2.532   5.636   4.566 -1.8905  0.6611  2.1471
  100MOL   H13130029   2.632   5.469   4.879 -1.1014  0.6052 -0.1439
  100MOL   H13230030   2.750   5.598   4.871  0.5218 -3.3750 -1.3875
  100MOL   H13330031   2.617   5.617   4.981  0.2389 -2.0286  0.7663
  100MOL   H13430032   2.470   6.046   4.676  1.1323 -1.2519 -1.1360
  100MOL   H13530033   2.390   5.987   4.819  0.2851 -0.9968  0.2505
  100MOL   H13630034   2.308   5.978   4.666  0.1119 -1.9527 -0.1742
  100MOL   C13730035   2.409   5.564   4.805  0.2728 -0.5244  0.1550
  100MOL   C13830036   2.311   5.576   4.928 -0.0044 -0.4503 -0.4418
  100MOL   C13930037   2.387   5.545   5.060 -0.2619  0.3857 -0.8816
  100MOL   C14030038   2.236   5.713   4.944  0.5253 -0.5593  0.2664
  100MOL   O14130039   2.228   5.780   5.051 -0.2124  0.3444  0.0376
  100MOL   O14230040   2.186   5.755   4.826 -0.1878 -0.5838 -0.8438
  100MOL   C14330041   2.114   5.882   4.836  0.0276 -0.5692  0.8833
  100MOL   H14430042   2.429   5.457   4.796 -0.6419 -0.7594  0.7476
  100MOL   H14530043   2.347   5.589   4.719  0.5957 -1.0137 -0.2214
  100MOL   H14630044   2.451   5.458   5.047  1.2882  1.9805 -4.7412
  100MOL   H14730045   2.432   5.634   5.103 -1.0821 -0.3059  1.4551
  100MOL   H14830046   2.317   5.509   5.136  0.9193 -1.9647 -0.8696
  100MOL   H14930047   2.032   5.868   4.907 -0.3617  1.8413  0.9322
  100MOL   H15030048   2.071   5.888   4.736 -1.0200 -0.9708  1.2958
  100MOL   H15130049   2.175   5.971   4.848  1.3564 -1.4444  0.6635
  100MOL   C15230050   2.218   5.457   4.907 -0.3027  0.4312  0.3352
  100MOL   C15330051   2.083   5.434   4.983 -0.3244 -0.1558 -0.3219
  100MOL   C15430052   2.083   5.445   5.132 -0.0306  0.1201 -0.3080
  100MOL   C15530053   1.979   5.532   4.924 -0.2227 -0.1101 -0.6633
  100MOL   O15630054   1.930   5.621   4.989 -0.3063 -0.0379 -0.5883
  100MOL   O15730055   1.956   5.511   4.789  0.5080  0.2757  0.0239
  100MOL   C15830056   1.845   5.564   4.717 -0.1600 -0.2520 -0.1651
  100MOL   H15930057   2.274   5.363   4.906 -0.3922  0.3615  1.6811
  100MOL   H16030058   2.186   5.450   4.803  1.4475 -2.0857 -0.0828
  100MOL   H16130059   2.145   5.375   5.189 -0.3894 -0.2206 -0.3330
  100MOL   H16230060   2.123   5.543   5.158  1.0500  0.1707 -2.1494
  100MOL   H16330061   1.982   5.440   5.173  0.2722 -2.9040  0.1479
  100MOL   H16430062   1.814   5.509   4.628 -2.1179 -0.5170  0.6516
  100MOL   H16530063   1.868   5.667   4.688  0.2237 -0.1481  0.4924
  100MOL   H16630064   1.753   5.561   4.775 -0.1470 -0.3525 -0.1500
  100MOL   C16730065   2.040   5.287   4.955  0.0603 -0.6094 -0.7016
  100MOL   C16830066   1.910   5.208   5.006  0.3524 -0.2021 -0.2685
  100MOL   C16930067   1.945   5.063   4.954  0.0885  0.0214  0.1040
  100MOL   C17030068   1.906   5.193   5.163 -0.1487 -0.0264 -0.5820
  100MOL   O17130069   1.817   5.250   5.224 -0.1910 -0.5609  0.0253
  100MOL   O17230070   2.010   5.132   5.225  0.2515 -0.2430  0.1412
  100MOL   C17330071   2.034   5.144   5.367 -0.4859 -0.1930  0.6006
  100MOL   H17430072   2.125   5.227   4.985 -1.5769 -2.5859  0.1214
  100MOL   H17530073   2.037   5.277   4.846  3.9187 -0.2460 -0.9160
  100MOL   H17630074   1.905   4.973   5.002 -0.3629  0.7691  1.1677
  100MOL   H17730075   1.905   5.048   4.854  1.1249 -0.7392 -0.1960
  100MOL   H17830076   2.051   5.041   4.945 -0.1273 -0.9959  0.0163
  100MOL   H17930077   2.092   5.067   5.417 -0.8068 -0.3504  0.7293
  100MOL   H18030078   1.943   5.138   5.425 -0.0805 -3.1335  0.9818
  100MOL   H18130079   2.087   5.236   5.392 -0.8082 -0.5297  2.5619
  100MOL   C18230080   1.787   5.272   4.924 -0.4268  0.9606 -0.2170
  100MOL   C18330081   1.638   5.219   4.937 -0.0375 -1.0371 -0.2957
  100MOL   C18430082   1.640   5.062   4.950  0.7781 -0.4817 -0.7340
  100MOL   C18530083   1.564   5.263   5.062  0.2314  0.0410 -0.1399
  100MOL   O18630084   1.519   5.187   5.150  0.8473 -0.3321  0.2876
  100MOL   O18730085   1.558   5.401   5.060 -0.2016  0.4098  0.3292
  100MOL   C18830086   1.523   5.474   5.179 -0.2567 -0.4058  0.2100
  100MOL   H18930087   1.807   5.273   4.817 -1.5985  1.9429 -0.4367
  100MOL   H19030088   1.783   5.377   4.951 -2.3603  1.3914 -2.0854
  100MOL   H19130089   1.691   5.018   4.864  0.1804 -0.7289 -0.9678
  100MOL   H19230090   1.702   5.036   5.036  0.0710 -0.1322 -0.1150
  100MOL   H19330091   1.545   5.011   4.965  0.9282 -0.4282  0.4565
  100MOL   H19430092   1.424   5.514   5.160  0.3106  0.1353 -1.6976
  100MOL   H19530093   1.571   5.569   5.204 -0.6553  0.6083 -2.7727
  100MOL   H19630094   1.539   5.403   5.260 -0.3037  0.2160  0.7658
  100MOL   C19730095   1.567   5.273   4.799  0.3569 -0.2095 -0.6579
  100MOL   C19830096   1.413   5.274   4.775 -0.2255 -0.6414  0.8767
  100MOL   C19930097   1.349   5.139   4.828 -0.5026  0.3587 -0.5191
  100MOL   C20030098   1.347   5.396   4.850 -0.8499  0.3174 -0.1962
  100MOL   O20130099   1.269   5.378   4.937  0.3348  0.2369 -0.5161
  100MOL   O20230100   1.394   5.512   4.812 -0.3105 -0.4218 -0.5347
  100MOL   C20330101   1.328   5.627   4.861 -0.2764  0.1906 -0.1229
  100MOL   H20430102   1.623   5.215   4.726  0.3184 -3.3906  1.6989
  100MOL   H20530103   1.601   5.375   4.783  0.1674 -0.2925 -1.6039
  100MOL   H20630104   1.409   5.057   4.787 -0.0105  0.1601  0.5869
  100MOL   H20730105   1.358   5.126   4.935  2.8857  1.4107 -0.6085
  100MOL   H20830106   1.243   5.137   4.805 -0.2558  2.1830 -1.9165
  100MOL   H20930107   1.358   5.718   4.810 -0.0432  1.4584  2.2191
  100MOL   H21030108   1.348   5.641   4.967  3.9119 -0.1030 -0.8198
  100MOL   H21130109   1.220   5.629   4.841 -0.3049 -0.7657 -0.0988
  100MOL   C21230110   1.392   5.284   4.618 -0.0310  0.0557  0.2718
  100MOL   C21330111   1.266   5.353   4.540 -0.2525 -0.0886  0.2349
  100MOL   C21430112   1.128   5.328   4.617  0.2715 -0.0989  0.1717
  100MOL   C21530113   1.278   5.504   4.519 -0.1561  0.6109 -0.5364
  100MOL   O21630114   1.389   5.560   4.532 -0.0719 -0.1849 -0.2691
  100MOL   O21730115   1.165   5.566   4.478 -0.1023 -0.0567 -0.2023
  100MOL   C21830116   1.155   5.706   4.465  0.5827 -0.3910  0.3137
  100MOL   H21930117   1.409   5.186   4.574  0.1458  0.2901 -0.1865
  100MOL   H22030118   1.479   5.343   4.588 -0.2690  2.0333  3.2729
  100MOL   H22130119   1.131   5.376   4.715  1.0447 -0.6222  0.4024
  100MOL   H22230120   1.038   5.366   4.568 -0.8097 -1.1809  1.2750
  100MOL   H22330121   1.114   5.223   4.639 -0.9349  0.1617  0.7130
  100MOL   H22430122   1.069   5.739   4.524  1.0136  1.2617  0.0446
  100MOL   H22530123   1.143   5.717   4.357 -1.0361 -0.7441  0.4397
  100MOL   H22630124   1.242   5.762   4.499  0.2555  0.0641  0.3987
  100MOL   C22730125   1.244   5.274   4.402 -0.1136 -0.1635 -0.8474
  100MOL   C22830126   1.336   5.293   4.277  0.0518  0.3336  0.5273
  100MOL   C22930127   1.483   5.337   4.314 -0.2522  0.2365 -0.0566
  100MOL   C23030128   1.347   5.154   4.205 -0.7385  0.1139 -0.5667
  100MOL   O23130129   1.453   5.095   4.185  0.1824  0.4594  0.1705
  100MOL   O23230130   1.225   5.100   4.175 -0.1245 -0.2202 -0.5917
  100MOL   C23330131   1.222   4.972   4.123  0.4031  0.3791 -0.0247
  100MOL   H23430132   1.141   5.267   4.367 -0.0249 -0.2778 -1.0875
  100MOL   H23530133   1.260   5.171   4.434 -0.8971  0.1818  0.7298
  100MOL   H23630134   1.547   5.358   4.228 -0.7556 -0.7572 -0.6952
  100MOL   H23730135   1.486   5.426   4.377  0.7215  0.0854  0.1121
  100MOL   H23830136   1.540   5.257   4.361 -2.1571 -0.2027  1.5694
  100MOL   H23930137   1.289   4.961   4.037  1.1927  2.5111  0.3060
  100MOL   H24030138   1.118   4.956   4.094 -0.3663  2.3959  1.5068
  100MOL   H24130139   1.258   4.898   4.195  2.9083  0.4141 -1.1709
  100MOL   C24230140   1.261   5.392   4.181 -0.4000  0.2513  0.1532
  100MOL   C24330141   1.330   5.479   4.067  0.3886 -0.4269 -0.2383
  100MOL   C24430142   1.417   5.382   3.977 -0.1871  0.7612 -0.0595
  100MOL   C24530143   1.220   5.540   3.979  0.2981 -0.3470 -0.0964
  100MOL   O24630144   1.144   5.626   4.024  0.5479  0.3510 -0.4965
  100MOL   O24730145   1.208   5.481   3.853  0.0585 -0.5974  0.5357
  100MOL   C24830146   1.095   5.519   3.783 -0.0384  0.0650  0.3413
  100MOL   H24930147   1.223   5.475   4.241  0.2445  2.0125 -1.7914
  100MOL   H25030148   1.174   5.345   4.136  1.5467 -1.6196 -1.7522
  100MOL   H25130149   1.371   5.294   3.933  1.8587 -0.3214 -0.0852
  100MOL   H25230150   1.468   5.447   3.905 -0.0871 -1.4671 -2.0745
  100MOL   H25330151   1.496   5.326   4.027 -1.0513  0.2885  0.7873
  100MOL   H25430152   1.094   5.626   3.763 -1.1428  0.3826  1.9405
  100MOL   H25530153   1.009   5.495   3.845 -1.9954 -1.2422 -2.7777
  100MOL   H25630154   1.092   5.462   3.691  2.0189  0.9212 -0.2847
  100MOL   C25730155   1.405   5.603   4.126  0.1400 -0.1892  0.8380
  100MOL   C25830156   1.507   5.701   4.058 -0.1496 -0.3539  0.3379
  100MOL   C25930157   1.539   5.789   4.176  0.7188 -1.1399 -0.5372
  100MOL   C26030158   1.638   5.618   4.033  0.2352  0.2635  0.3863
  100MOL   O26130159   1.658   5.502   4.080  0.6228  0.2935  0.0958
  100MOL   O26230160   1.738   5.683   3.973 -0.0087 -0.3388 -0.0295
  100MOL   C26330161   1.864   5.633   3.939 -0.1140  0.6030 -0.6302
  100MOL   H26430162   1.457   5.562   4.213  1.5736  1.2765  0.6966
  100MOL   H26530163   1.328   5.666   4.169  0.8859  0.4706  1.2284
  100MOL   H26630164   1.459   5.859   4.202 -1.5684 -1.8024 -5.0742
  100MOL   H26730165   1.565   5.734   4.266  0.8390  0.7229  0.5755
  100MOL   H26830166   1.630   5.848   4.168 -0.2159  0.5901  1.2545
  100MOL   H26930167   1.849   5.530   3.907  1.1171  0.1784  0.1223
  100MOL   H27030168   1.931   5.641   4.025 -0.6075 -0.3098 -0.1568
  100MOL   H27130169   1.905   5.698   3.862 -1.5871  1.8196 -0.4161
  100MOL   C27230170   1.454   5.764   3.923  0.1847 -0.3401 -0.0017
  100MOL   C27330171   1.450   5.915   3.892 -0.3815 -0.2032  0.4178
  100MOL   C27430172   1.359   6.000   3.980 -0.3431  0.2004  0.2515
  100MOL   C27530173   1.595   5.973   3.904  0.4888 -0.0348  0.5332
  100MOL   O27630174   1.623   6.065   3.989  0.4542  0.0692  0.3347
  100MOL   O27730175   1.670   5.926   3.806 -0.1254 -0.1682  0.2017
  100MOL   C27830176   1.803   5.975   3.791  0.0912  0.3517  0.1409
  100MOL   H27930177   1.351   5.733   3.906 -0.7386  3.1871 -1.3267
  100MOL   H28030178   1.514   5.723   3.841 -0.1550  1.1834 -1.0302
  100MOL   H28130179   1.324   6.097   3.944  1.5040  0.7350 -0.1646
  100MOL   H28230180   1.270   5.945   4.012 -0.2200 -0.8780 -1.2219
  100MOL   H28330181   1.418   6.021   4.069  0.5840 -0.7190 -0.1355
  100MOL   H28430182   1.868   5.916   3.855 -1.5808  0.4493  1.9678
  100MOL   H28530183   1.805   6.081   3.815 -4.2043  0.1707  1.7693
  100MOL   H28630184   1.828   5.969   3.685 -0.1004  1.0762  0.0512
  100MOL   C28730185   1.399   5.922   3.744 -0.5240  0.5237  0.1498
  100MOL   C28830186   1.399   6.064   3.685  0.6852 -0.3139 -0.1906
  100MOL   C28930187   1.486   6.078   3.561 -0.1700 -0.0030  0.2556
  100MOL   C29030188   1.259   6.119   3.663  0.2612 -0.3662 -0.4250
  100MOL   O29130189   1.226   6.217   3.716 -0.7061 -0.3006 -0.3307
  100MOL   O29230190   1.184   6.048   3.579 -0.4926 -0.1781 -0.1005
  100MOL   C29330191   1.052   6.089   3.545  0.0440  0.4189 -0.2213
  100MOL   H29430192   1.298   5.881   3.741 -1.0499  1.6387  1.9161
  100MOL   H29530193   1.461   5.859   3.680 -1.0367 -0.1805  0.3342
  100MOL   H29630194   1.594   6.075   3.580 -0.4092 -0.8875  1.5677
  100MOL   H29730195   1.451   6.006   3.488 -0.8611 -0.1332  0.7151
  100MOL   H29830196   1.478   6.175   3.512 -1.8879 -0.6452 -0.7753
  100MOL   H29930197   0.983   6.038   3.613  0.2827 -0.9833 -1.0025
  100MOL   H30030198   1.030   6.061   3.442 -1.7047  0.8886  0.0039
  100MOL   H30130199   1.043   6.198   3.541  1.0528  0.5446  0.5723
  100MOL   H30230200   1.449   6.124   3.760  0.4593 -0.2799 -0.0650
  101MOL     C130201   5.590   6.166   4.285 -0.2132  0.4856  0.1394
  101MOL     C230202   5.506   6.210   4.169  0.0842  0.2699 -0.4165
  101MOL     C330203   5.575   6.345   4.119 -0.0581  0.2412  0.0233
  101MOL     C430204   5.510   6.111   4.051 -0.2212 -0.1098  0.3088
  101MOL     O530205   5.568   6.002   4.054 -0.6034  0.4292  0.4842
  101MOL     O630206   5.443   6.160   3.944  0.8023  0.3760 -0.4521
  101MOL     C730207   5.442   6.089   3.818 -0.7827 -0.9473 -0.7154
  101MOL     H830208   5.605   6.240   4.364  0.3030 -0.0836  0.5820
  101MOL     H930209   5.569   6.073   4.338 -2.5076  1.7647  1.5429
  101MOL    H1030210   5.567   6.417   4.200  0.0223  0.4163 -0.1230
  101MOL    H1130211   5.680   6.325   4.098  0.1799  1.3527  0.1204
  101MOL    H1230212   5.535   6.379   4.024 -0.9594 -1.6043 -0.2980
  101MOL    H1330213   5.539   6.041   3.802  1.5169  3.5899 -1.1173
  101MOL    H1430214   5.432   6.150   3.728  0.3603  1.5093  0.7787
  101MOL    H1530215   5.375   6.003   3.809 -2.0906  0.0434 -0.5740
  101MOL    H1630216   5.690   6.158   4.241 -0.1344 -0.9654  0.5579
  101MOL    C1730217   5.361   6.229   4.210 -0.4066  0.4855 -0.1386
  101MOL    C1830218   5.277   6.131   4.302  0.1545  0.5284 -0.0769
  101MOL    C1930219   5.305   5.982   4.250  0.4939 -0.0991 -0.1750
  101MOL    C2030220   5.321   6.150   4.454 -0.3734 -0.4681 -0.5439
  101MOL    O2130221   5.358   6.264   4.488 -0.3289 -0.0082  0.0183
  101MOL    O2230222   5.305   6.047   4.529 -0.1050 -0.7468  0.0603
  101MOL    C2330223   5.331   6.053   4.667  0.3239  0.2404  0.2471
  101MOL    H2430224   5.308   6.241   4.116 -1.1739 -0.7543  0.1197
  101MOL    H2530225   5.347   6.328   4.255 -3.4839 -0.4186  1.0607
  101MOL    H2630226   5.405   5.944   4.271  0.7601  1.9785  2.6856
  101MOL    H2730227   5.239   5.910   4.298  1.6865 -1.0457  0.0723
  101MOL    H2830228   5.298   5.966   4.143  1.8083  2.2736 -0.6599
  101MOL    H2930229   5.288   5.965   4.716 -1.0863  0.1826 -1.0452
  101MOL    H3030230   5.319   6.153   4.708 -0.2195 -0.0483  0.8084
  101MOL    H3130231   5.438   6.031   4.665  0.2568 -0.0962  0.3798
  101MOL    C3230232   5.127   6.170   4.302  0.4839 -0.6395 -0.4721
  101MOL    C3330233   5.022   6.106   4.199  0.0488  0.1472 -0.7095
  101MOL    C3430234   5.009   5.946   4.216  0.4515 -0.1673 -0.9907
  101MOL    C3530235   4.890   6.168   4.242  0.3591 -0.2213 -0.0863
  101MOL    O3630236   4.793   6.093   4.261  0.6580  0.1110 -0.3422
  101MOL    O3730237   4.886   6.302   4.235  0.4816 -0.5638  0.5638
  101MOL    C3830238   4.764   6.376   4.247 -0.2078 -0.5531  0.1349
  101MOL    H3930239   5.122   6.279   4.300 -0.0965 -0.5789  2.1041
  101MOL    H4030240   5.082   6.132   4.394 -1.8737  0.3311 -1.1764
  101MOL    H4130241   5.018   5.916   4.321 -0.7360  0.2544 -0.7530
  101MOL    H4230242   4.910   5.910   4.186 -0.2363  2.2791 -1.7219
  101MOL    H4330243   5.081   5.890   4.157  0.2233 -0.1974 -1.2379
  101MOL    H4430244   4.724   6.384   4.348 -0.6630 -0.2448 -0.0679
  101MOL    H4530245   4.683   6.345   4.182  0.9184 -3.5573  0.0631
  101MOL    H4630246   4.794   6.480   4.229  1.4801 -1.0908 -0.2861
  101MOL    C4730247   5.064   6.158   4.057 -0.3652 -0.3834 -0.7017
  101MOL    C4830248   4.978   6.129   3.924 -0.0795  0.3637  0.0637
  101MOL    C4930249   4.830   6.132   3.959  0.1267  0.3396 -0.7684
  101MOL    C5030250   5.014   6.240   3.825 -0.1264 -0.6078 -0.0602
  101MOL    O5130251   4.927   6.303   3.764  0.1337  0.2136  0.0236
  101MOL    O5230252   5.152   6.270   3.826  0.3560  0.3604 -0.0011
  101MOL    C5330253   5.200   6.372   3.742  0.5462  0.9256 -0.8325
  101MOL    H5430254   5.158   6.109   4.031  0.4499  1.1942 -0.7898
  101MOL    H5530255   5.089   6.262   4.075 -0.6812 -0.8167  2.5988
  101MOL    H5630256   4.798   6.222   4.011 -0.9931 -0.4202 -0.1004
  101MOL    H5730257   4.766   6.122   3.872  0.2197 -1.7032 -0.6299
  101MOL    H5830258   4.801   6.040   4.011  1.9532 -0.0673 -0.4607
  101MOL    H5930259   5.157   6.465   3.777  0.8650  0.3610  1.1089
  101MOL    H6030260   5.178   6.349   3.637 -2.7221 -0.0671  0.0098
  101MOL    H6130261   5.308   6.368   3.759  0.4684  1.2252 -0.2666
  101MOL    C6230262   5.024   5.991   3.862 -0.4438 -0.3260 -0.2118
  101MOL    C6330263   4.944   5.901   3.751 -0.0635  0.2383  0.8354
  101MOL    C6430264   5.035   5.769   3.733  0.1275  0.8761  1.0204
  101MOL    C6530265   4.810   5.851   3.808  0.1205 -0.9404  0.2527
  101MOL    O6630266   4.700   5.880   3.770 -0.0414 -0.3397  0.0416
  101MOL    O6730267   4.829   5.772   3.925 -0.5490  0.4766  0.1302
  101MOL    C6830268   4.725   5.742   4.010 -0.4628 -0.1661  0.2515
  101MOL    H6930269   5.042   5.923   3.946 -1.1253 -1.0425 -0.6379
  101MOL    H7030270   5.127   5.996   3.829  0.3636 -2.2616  1.8978
  101MOL    H7130271   5.119   5.796   3.668  0.3970  1.4710  1.6146
  101MOL    H7230272   5.062   5.736   3.833 -2.4731 -0.0888  1.4453
  101MOL    H7330273   4.987   5.679   3.693  0.5968  0.0887  2.2056
  101MOL    H7430274   4.682   5.816   4.077  0.9314  0.0459  0.9369
  101MOL    H7530275   4.763   5.659   4.070 -1.8125 -0.0206  1.3317
  101MOL    H7630276   4.650   5.698   3.945  0.6073  0.2135 -1.2698
  101MOL    C7730277   4.930   5.987   3.624 -0.0885  0.6045  0.0156
  101MOL    C7830278   4.898   5.929   3.481  0.4470  0.5207  0.1910
  101MOL    C7930279   4.999   5.816   3.443  0.6770  0.2141 -0.0437
  101MOL    C8030280   4.751   5.876   3.475 -0.1452 -0.8092  0.1455
  101MOL    O8130281   4.720   5.759   3.451 -0.1969  0.0997  0.0007
  101MOL    O8230282   4.652   5.971   3.483  0.1946 -0.2834  0.5066
  101MOL    C8330283   4.521   5.932   3.504  0.5898  0.3512 -0.1064
  101MOL    H8430284   5.021   6.047   3.616  0.0687  0.4419  0.5608
  101MOL    H8530285   4.864   6.072   3.639 -1.4996 -0.8612  2.5535
  101MOL    H8630286   4.969   5.723   3.491 -1.1978  1.1866  0.7440
  101MOL    H8730287   4.990   5.795   3.337 -1.7715  1.1993 -0.0576
  101MOL    H8830288   5.105   5.834   3.461  0.5567  1.8315 -0.8880
  101MOL    H8930289   4.509   5.889   3.603 -1.2849  1.6729  0.2606
  101MOL    H9030290   4.493   5.848   3.440 -0.7818 -0.0195  0.9555
  101MOL    H9130291   4.453   6.017   3.493 -0.9827 -0.3681  3.4664
  101MOL    C9230292   4.902   6.051   3.381 -0.2462 -0.0541  1.1790
  101MOL    C9330293   5.028   6.126   3.316  0.8168 -0.2213 -0.0309
  101MOL    C9430294   5.145   6.156   3.416  0.2162  0.3912  0.1295
  101MOL    C9530295   5.097   6.027   3.212  0.1713  0.1551  0.2046
  101MOL    O9630296   5.220   6.014   3.199  0.2472 -0.3854 -0.1703
  101MOL    O9730297   5.003   5.954   3.145 -0.1427  0.1739  0.4426
  101MOL    C9830298   5.048   5.853   3.051 -0.1888  0.1129 -0.1189
  101MOL    H9930299   4.841   6.121   3.439  1.0741  0.8172  1.5331
  101MOL   H10030300   4.837   6.022   3.299  1.2665  0.6256 -0.2915
  101MOL   H10130301   5.111   6.201   3.509  0.6552  2.6803 -0.7841
  101MOL   H10230302   5.184   6.064   3.461  0.2822  0.5461  0.3870
  101MOL   H10330303   5.235   6.210   3.388  0.4758  1.1791  2.3451
  101MOL   H10430304   5.139   5.796   3.071  1.1382  0.8895 -3.5031
  101MOL   H10530305   5.062   5.897   2.952  0.4228  0.8420  0.2858
  101MOL   H10630306   4.965   5.784   3.039 -0.2016  0.3543 -1.4879
  101MOL   C10730307   4.983   6.253   3.241  0.0575  0.3968 -0.7162
  101MOL   C10830308   4.963   6.398   3.305 -0.3939 -0.1337  0.2405
  101MOL   C10930309   4.905   6.391   3.441  0.4307 -0.0240 -0.3436
  101MOL   C11030310   5.099   6.475   3.302  0.5632 -0.1511 -0.4869
  101MOL   O11130311   5.161   6.492   3.405 -0.2378  0.2227  0.0055
  101MOL   O11230312   5.150   6.495   3.181  0.3709 -0.8453 -0.3826
  101MOL   C11330313   5.273   6.570   3.174  0.7153 -0.7532  1.2066
  101MOL   H11430314   4.892   6.218   3.193  0.1165 -4.0924  2.2514
  101MOL   H11530315   5.053   6.268   3.159 -0.3928 -1.6597 -1.5093
  101MOL   H11630316   4.804   6.351   3.444 -0.1036  1.0942 -2.3327
  101MOL   H11730317   4.953   6.329   3.516 -1.0007 -0.2958  0.3617
  101MOL   H11830318   4.909   6.493   3.479 -0.2250 -0.1979  0.2054
  101MOL   H11930319   5.307   6.578   3.071 -0.8522 -1.5648  0.6138
  101MOL   H12030320   5.348   6.523   3.238  1.3087 -0.8002  0.4869
  101MOL   H12130321   5.265   6.674   3.207  0.1551 -0.1675 -0.7114
  101MOL   C12230322   4.864   6.495   3.224 -0.1627  0.1961 -0.2946
  101MOL   C12330323   4.707   6.480   3.213 -0.2365  0.0335  0.4001
  101MOL   C12430324   4.655   6.334   3.206  0.0966 -0.4120 -0.4188
  101MOL   C12530325   4.634   6.551   3.332  0.1809  0.0725  0.1769
  101MOL   O12630326   4.683   6.608   3.427  0.0805 -0.1842 -0.4377
  101MOL   O12730327   4.495   6.550   3.311  0.9571 -0.0328 -0.0482
  101MOL   C12830328   4.418   6.603   3.418 -0.0763  0.7419  0.3681
  101MOL   H12930329   4.910   6.484   3.126  0.1380 -2.1405  0.0772
  101MOL   H13030330   4.885   6.595   3.261  3.6892 -0.3645 -0.7745
  101MOL   H13130331   4.694   6.278   3.121  1.3685 -0.5204  0.2169
  101MOL   H13230332   4.677   6.266   3.288 -0.8460  0.4583  0.5747
  101MOL   H13330333   4.547   6.330   3.201 -0.0681 -0.3925  2.3501
  101MOL   H13430334   4.334   6.654   3.373 -0.6711  0.9279  1.6739
  101MOL   H13530335   4.472   6.680   3.473  2.0205  0.8230 -1.7179
  101MOL   H13630336   4.371   6.522   3.475  1.6112 -0.5778 -0.0583
  101MOL   C13730337   4.664   6.544   3.076 -0.5259 -0.1052  0.2247
  101MOL   C13830338   4.675   6.700   3.029 -0.7011  0.3970  0.2034
  101MOL   C13930339   4.596   6.793   3.120  0.4496 -0.0658 -0.0850
  101MOL   C14030340   4.819   6.732   3.033 -0.3894 -0.7592 -0.8202
  101MOL   O14130341   4.862   6.794   3.133  0.1100  0.2962 -0.0391
  101MOL   O14230342   4.892   6.675   2.933 -0.4751 -0.4361 -0.0129
  101MOL   C14330343   5.025   6.702   2.926 -0.8645 -0.0852 -0.0109
  101MOL   H14430344   4.562   6.515   3.052 -0.4363  0.3230 -0.7238
  101MOL   H14530345   4.720   6.476   3.012 -0.1125  0.0919  0.3722
  101MOL   H14630346   4.613   6.775   3.226  1.1626  0.5407 -0.0915
  101MOL   H14730347   4.627   6.897   3.108  1.4127 -0.2665  0.5795
  101MOL   H14830348   4.488   6.782   3.110  0.3517  0.2017  0.5988
  101MOL   H14930349   5.033   6.806   2.895 -0.6109 -0.1802 -0.2746
  101MOL   H15030350   5.085   6.657   2.847 -1.4682 -0.1072 -0.4597
  101MOL   H15130351   5.076   6.682   3.021 -0.2246 -1.6819 -0.6755
  101MOL   C15230352   4.618   6.721   2.879 -0.1880  0.6420  0.4353
  101MOL   C15330353   4.582   6.855   2.804 -0.2365  0.1854  0.3706
  101MOL   C15430354   4.446   6.899   2.855 -0.1889 -0.0983 -0.1755
  101MOL   C15530355   4.693   6.960   2.823  0.3108  0.3453 -0.3016
  101MOL   O15630356   4.815   6.932   2.804  0.0168 -0.0512  0.0453
  101MOL   O15730357   4.647   7.084   2.839 -0.1608 -0.2258  0.4359
  101MOL   C15830358   4.733   7.193   2.817 -0.7130 -0.2587  0.3360
  101MOL   H15930359   4.531   6.656   2.876 -1.2309  2.0263 -0.4678
  101MOL   H16030360   4.679   6.659   2.813 -4.0103 -1.0174 -1.6819
  101MOL   H16130361   4.391   6.971   2.795 -0.7412  0.5756  1.1023
  101MOL   H16230362   4.373   6.819   2.862  0.4882 -0.8360 -1.3812
  101MOL   H16330363   4.449   6.953   2.950  2.7199 -1.2389  0.4405
  101MOL   H16430364   4.797   7.168   2.732  1.0972  0.0104  1.5826
  101MOL   H16530365   4.792   7.212   2.907 -1.5735 -0.9370  1.0587
  101MOL   H16630366   4.677   7.278   2.779  1.2758 -0.0602 -2.2889
  101MOL   C16730367   4.575   6.840   2.643  0.0575 -0.1915  0.6524
  101MOL   C16830368   4.477   6.744   2.562 -0.5505  0.2651 -0.3227
  101MOL   C16930369   4.489   6.596   2.612 -0.5596 -0.4202  0.3843
  101MOL   C17030370   4.329   6.797   2.571  0.9891 -0.0538 -0.1452
  101MOL   O17130371   4.229   6.725   2.591  0.0979 -0.3374  0.4087
  101MOL   O17230372   4.325   6.933   2.559  0.3144  0.7710  0.0225
  101MOL   C17330373   4.211   7.012   2.570 -0.3573  0.4698  0.6524
  101MOL   H17430374   4.677   6.819   2.611 -0.1234  0.0396 -0.0745
  101MOL   H17530375   4.549   6.937   2.600  1.1789 -0.5152 -0.7771
  101MOL   H17630376   4.591   6.581   2.646 -0.1476  0.4204 -0.4305
  101MOL   H17730377   4.427   6.577   2.699 -1.7878  0.1830 -0.3461
  101MOL   H17830378   4.467   6.513   2.546  0.7452  0.1497 -0.7905
  101MOL   H17930379   4.138   6.992   2.491  0.6668  1.4509 -0.5619
  101MOL   H18030380   4.229   7.119   2.571  2.9806 -0.0324 -0.4247
  101MOL   H18130381   4.161   6.978   2.661 -1.1581 -2.8615 -0.9415
  101MOL   C18230382   4.530   6.740   2.407 -0.1938 -0.3775  0.1923
  101MOL   C18330383   4.445   6.702   2.277 -0.1268 -0.0258 -0.0820
  101MOL   C18430384   4.376   6.569   2.314  0.1760 -0.0054  0.6002
  101MOL   C18530385   4.345   6.808   2.233 -0.0484 -0.1683 -0.2797
  101MOL   O18630386   4.239   6.779   2.184 -0.5410  0.1821  0.5693
  101MOL   O18730387   4.386   6.936   2.259  0.3812 -0.2701 -0.0848
  101MOL   C18830388   4.319   7.046   2.200  0.2300 -0.0062  0.0009
  101MOL   H18930389   4.614   6.672   2.410  1.2606  1.3252 -1.0740
  101MOL   H19030390   4.577   6.837   2.396  1.6810 -0.9776  2.4710
  101MOL   H19130391   4.337   6.536   2.217  2.7056  0.3541 -0.5815
  101MOL   H19230392   4.446   6.490   2.344  2.0697  1.8468  1.1887
  101MOL   H19330393   4.295   6.569   2.387  1.4599  3.2448  2.1305
  101MOL   H19430394   4.358   7.140   2.237 -0.3129  0.1203  0.2536
  101MOL   H19530395   4.211   7.033   2.206  0.1336  0.2476 -1.1021
  101MOL   H19630396   4.336   7.044   2.092  0.4351  1.7626 -0.0125
  101MOL   C19730397   4.551   6.666   2.171 -0.6836  0.0378  0.1960
  101MOL   C19830398   4.527   6.671   2.011  0.2522 -0.1335 -0.3324
  101MOL   C19930399   4.409   6.574   1.969  0.0783 -0.8751 -0.0690
  101MOL   C20030400   4.507   6.813   1.956  0.3644  0.8457  0.3529
  101MOL   O20130401   4.537   6.920   2.020 -0.0775 -0.0855 -0.0698
  101MOL   O20230402   4.461   6.813   1.828 -0.2025  0.0829  0.1689
  101MOL   C20330403   4.494   6.915   1.735  0.0756 -0.0508  0.3171
  101MOL   H20430404   4.586   6.569   2.206 -1.8406 -0.4280  0.1082
  101MOL   H20530405   4.638   6.730   2.187 -0.8264  0.1557  0.5138
  101MOL   H20630406   4.417   6.472   2.006 -1.9939 -0.3038  2.0540
  101MOL   H20730407   4.311   6.617   1.989 -0.4127 -1.7147 -0.6440
  101MOL   H20830408   4.420   6.565   1.861  1.6647  1.2198 -0.1184
  101MOL   H20930409   4.449   6.908   1.636  0.4796  1.6868 -0.0165
  101MOL   H21030410   4.599   6.933   1.715  0.3786 -0.5545  1.4387
  101MOL   H21130411   4.449   7.009   1.769  0.8137  0.0875  0.9119
  101MOL   C21230412   4.654   6.611   1.937 -0.4793 -0.1724 -0.3206
  101MOL   C21330413   4.806   6.655   1.945  0.1823 -0.5571  0.3685
  101MOL   C21430414   4.817   6.811   1.935 -0.1689 -0.5668  0.9095
  101MOL   C21530415   4.864   6.604   2.081  0.0832  0.5941 -0.3345
  101MOL   O21630416   4.898   6.679   2.175 -0.8764  0.4135  0.2551
  101MOL   O21730417   4.867   6.464   2.096 -0.8670  0.1185  0.0132
  101MOL   C21830418   4.880   6.419   2.224  0.0731  0.3773  0.0808
  101MOL   H21930419   4.628   6.605   1.832 -0.5829  1.9529 -0.4330
  101MOL   H22030420   4.651   6.505   1.963 -0.0378 -0.0155  0.3844
  101MOL   H22130421   4.768   6.859   2.020  1.5808  1.4359  0.8313
  101MOL   H22230422   4.915   6.857   1.947 -1.0555  1.6886 -0.1986
  101MOL   H22330423   4.775   6.845   1.840 -0.6497 -1.8226  0.6642
  101MOL   H22430424   4.797   6.472   2.271 -0.8460 -1.2865  0.3674
  101MOL   H22530425   4.984   6.427   2.255  0.5182  1.1456 -1.5303
  101MOL   H22630426   4.851   6.314   2.221 -0.8044  0.5959  1.0425
  101MOL   C22730427   4.881   6.582   1.829  0.0424  0.1578 -0.0665
  101MOL   C22830428   5.027   6.625   1.783  0.4802  0.2349  0.4511
  101MOL   C22930429   5.130   6.654   1.898  0.3359 -0.1442  0.1673
  101MOL   C23030430   5.083   6.502   1.702 -0.2266 -0.3572  0.2965
  101MOL   O23130431   5.177   6.431   1.736  0.1080  0.1315  0.3613
  101MOL   O23230432   5.007   6.465   1.595 -0.0134  0.1540 -0.8959
  101MOL   C23330433   5.040   6.341   1.527 -0.1620  0.4892 -0.2409
  101MOL   H23430434   4.815   6.602   1.745  1.7730  1.3169 -1.1869
  101MOL   H23530435   4.887   6.473   1.836  0.7629  0.2762  1.3125
  101MOL   H23630436   5.149   6.572   1.967  1.6669 -0.8853 -1.0523
  101MOL   H23730437   5.228   6.680   1.859 -0.0767  0.5355 -0.4466
  101MOL   H23830438   5.102   6.743   1.955 -2.6514  0.0254 -1.4702
  101MOL   H23930439   5.011   6.267   1.601 -1.9557  2.9201  1.5703
  101MOL   H24030440   5.143   6.324   1.498 -0.7957  1.3238 -3.1908
  101MOL   H24130441   4.971   6.331   1.443 -0.9136  0.1659  0.4080
  101MOL   C24230442   5.019   6.741   1.676 -0.7456 -0.3788  0.1833
  101MOL   C24330443   5.140   6.836   1.637  0.6413 -0.3262  0.2031
  101MOL   C24430444   5.164   6.939   1.756  0.0105  0.2760 -0.6121
  101MOL   C24530445   5.264   6.758   1.597  0.2360  0.0474  0.1446
  101MOL   O24630446   5.371   6.805   1.635  0.0329  0.3865  0.4766
  101MOL   O24730447   5.257   6.667   1.501  0.2503  0.0853  0.3750
  101MOL   C24830448   5.369   6.605   1.437 -0.0603  0.2032  0.1990
  101MOL   H24930449   4.943   6.812   1.707  0.8875  1.2384  0.5430
  101MOL   H25030450   4.966   6.701   1.589 -1.8556  3.6607 -1.1305
  101MOL   H25130451   5.217   7.028   1.722  2.4004 -0.6405  0.6102
  101MOL   H25230452   5.071   6.951   1.812 -1.5998 -2.9154 -2.4382
  101MOL   H25330453   5.235   6.896   1.827 -1.5151 -0.1621  0.6568
  101MOL   H25430454   5.348   6.581   1.332  0.5394  0.1085  0.0946
  101MOL   H25530455   5.383   6.507   1.483 -3.2894 -1.4291 -2.0956
  101MOL   H25630456   5.467   6.650   1.456  0.6828 -1.4253  0.3159
  101MOL   C25730457   5.101   6.918   1.506 -0.0410 -0.3588  0.2806
  101MOL   C25830458   4.964   6.995   1.476 -0.3508  0.1565  0.2949
  101MOL   C25930459   4.855   6.897   1.441 -0.2237 -0.1358  0.1633
  101MOL   C26030460   4.920   7.072   1.597  0.8159  0.1637 -0.0500
  101MOL   O26130461   4.810   7.057   1.650 -0.0359 -0.3526 -0.0862
  101MOL   O26230462   5.017   7.154   1.643  0.6075  0.0914  0.5308
  101MOL   C26330463   4.990   7.245   1.745 -0.0744  0.2380 -0.0291
  101MOL   H26430464   5.125   6.856   1.419  0.9773 -0.2887  0.5023
  101MOL   H26530465   5.178   6.996   1.499 -2.2308  1.7863 -0.5570
  101MOL   H26630466   4.887   6.814   1.377 -1.1796 -1.8547  1.8571
  101MOL   H26730467   4.815   6.838   1.523  0.3799 -0.2517  0.3820
  101MOL   H26830468   4.765   6.950   1.412 -0.3032  0.3303  1.2173
  101MOL   H26930469   4.978   7.192   1.840 -1.1448  1.7199  0.6782
  101MOL   H27030470   4.901   7.303   1.719 -0.2121 -0.2632 -0.6984
  101MOL   H27130471   5.073   7.315   1.752  0.3301 -0.1430 -0.9821
  101MOL   C27230472   4.977   7.101   1.356  0.2930  0.0993  0.4390
  101MOL   C27330473   5.028   7.066   1.208 -0.0872 -0.2219  0.0746
  101MOL   C27430474   5.062   7.202   1.137  0.3968  0.2370  0.6240
  101MOL   C27530475   5.169   6.993   1.217 -0.3734  0.0446 -0.2697
  101MOL   O27630476   5.176   6.877   1.174 -0.0939 -0.2541  0.5434
  101MOL   O27730477   5.271   7.063   1.274  0.0908  0.1193 -0.3349
  101MOL   C27830478   5.394   6.994   1.307  0.0544  0.3124 -0.3628
  101MOL   H27930479   5.033   7.184   1.397  1.6816 -0.4463 -0.3043
  101MOL   H28030480   4.877   7.143   1.343  0.2118 -0.1791  0.1246
  101MOL   H28130481   5.135   7.258   1.196  0.2986  0.2318  0.7489
  101MOL   H28230482   5.114   7.189   1.042 -2.0271 -1.1916 -0.5367
  101MOL   H28330483   4.974   7.263   1.116 -0.6147 -1.7821 -1.1140
  101MOL   H28430484   5.375   6.916   1.380  0.6734  0.4223 -0.0776
  101MOL   H28530485   5.463   7.065   1.354 -1.2533  2.0244 -0.9848
  101MOL   H28630486   5.447   6.947   1.224  0.3423 -1.8300  1.0257
  101MOL   C28730487   4.923   6.989   1.123  0.1782 -0.1698 -0.4235
  101MOL   C28830488   4.943   6.957   0.971 -0.0131 -0.1177  0.2369
  101MOL   C28930489   4.906   6.815   0.939 -0.8430 -0.0661 -0.0946
  101MOL   C29030490   4.878   7.063   0.876  0.2787 -0.0521  0.2328
  101MOL   O29130491   4.939   7.154   0.828  0.1590  0.3683 -0.2983
  101MOL   O29230492   4.742   7.040   0.866  0.2082 -0.6327  0.3795
  101MOL   C29330493   4.660   7.113   0.774  0.1195 -0.5044 -0.0599
  101MOL   H29430494   4.825   7.032   1.145  0.4061 -0.3484  0.9749
  101MOL   H29530495   4.911   6.896   1.178  0.9002 -0.1775 -0.2815
  101MOL   H29630496   4.947   6.775   0.846 -0.4302  2.3924 -0.9982
  101MOL   H29730497   4.941   6.748   1.018  1.2618  1.9578  0.7661
  101MOL   H29830498   4.798   6.807   0.930 -1.0202  1.8939  0.1115
  101MOL   H29930499   4.663   7.078   0.671 -1.4519 -1.0517  0.0598
  101MOL   H30030500   4.693   7.217   0.781 -0.8909 -0.2669  1.4658
  101MOL   H30130501   4.557   7.103   0.809 -0.0798  1.5687  0.0322
  101MOL   H30230502   5.050   6.969   0.956  0.4695  0.0097  3.3857
  102MOL     C130503   0.837   6.872   1.522 -0.4919  0.4831  0.3269
  102MOL     C230504   0.808   6.774   1.641 -0.4319 -0.9697 -0.7606
  102MOL     C330505   0.682   6.693   1.613  0.1950  0.1773 -0.0407
  102MOL     C430506   0.931   6.677   1.642 -0.8421 -0.5971  0.9536
  102MOL     O530507   1.000   6.659   1.540 -0.1455  0.4847 -0.5795
  102MOL     O630508   0.948   6.593   1.755  0.6877  0.0710  0.4289
  102MOL     C730509   1.069   6.526   1.772 -0.0113  0.2211 -0.7009
  102MOL     H830510   0.927   6.934   1.527 -0.4506  0.2626  3.2389
  102MOL     H930511   0.857   6.812   1.433 -0.1458  1.0320  0.0292
  102MOL    H1030512   0.712   6.614   1.545 -0.9623 -1.6880  1.5859
  102MOL    H1130513   0.655   6.641   1.704  1.1093  0.4561  0.3902
  102MOL    H1230514   0.600   6.740   1.558  0.1627 -0.1998 -0.3161
  102MOL    H1330515   1.134   6.581   1.840  0.0764 -2.1157  1.1597
  102MOL    H1430516   1.128   6.519   1.681  0.4187 -1.9702 -0.2648
  102MOL    H1530517   1.058   6.426   1.815 -1.8346  0.7869  0.2051
  102MOL    H1630518   0.760   6.944   1.495  0.7770  1.8653  0.3283
  102MOL    C1730519   0.804   6.844   1.778  0.5243 -0.0901 -0.0017
  102MOL    C1830520   0.897   6.954   1.827  0.0360  0.1684 -0.1601
  102MOL    C1930521   1.044   6.917   1.794  0.6702 -0.2911  0.3031
  102MOL    C2030522   0.868   7.095   1.766 -0.2069  0.3686 -0.7311
  102MOL    O2130523   0.766   7.120   1.698  0.1381  0.6447 -0.3015
  102MOL    O2230524   0.964   7.186   1.801 -0.0234 -0.2940  0.3291
  102MOL    C2330525   0.944   7.319   1.750  0.0384  0.2125  0.1470
  102MOL    H2430526   0.798   6.759   1.846  1.8115 -1.0361 -1.0556
  102MOL    H2530527   0.701   6.881   1.772  0.0102 -1.5849 -0.7325
  102MOL    H2630528   1.070   6.921   1.688 -0.3357  0.0182  0.0643
  102MOL    H2730529   1.115   6.981   1.846 -0.0308 -0.0873  1.0167
  102MOL    H2830530   1.071   6.813   1.814  1.0203 -1.1218 -3.9021
  102MOL    H2930531   0.959   7.318   1.642 -1.7556 -0.8290 -0.1135
  102MOL    H3030532   1.018   7.380   1.802  0.5635 -0.6280  0.4056
  102MOL    H3130533   0.844   7.352   1.774 -0.0145 -0.1086  0.3651
  102MOL    C3230534   0.902   6.966   1.986 -0.0106 -0.0406  0.8267
  102MOL    C3330535   0.779   6.999   2.083  0.7300 -0.2038 -0.1532
  102MOL    C3430536   0.718   7.133   2.042  0.1429 -0.1344 -0.3011
  102MOL    C3530537   0.669   6.901   2.060 -0.0286  0.8932 -0.0420
  102MOL    O3630538   0.555   6.932   2.026  0.4642  0.2121 -0.1513
  102MOL    O3730539   0.711   6.776   2.094  0.0985  0.0816  0.8897
  102MOL    C3830540   0.616   6.679   2.114  0.0006  0.4240  0.2775
  102MOL    H3930541   0.976   7.042   2.009  0.5102 -0.8009  1.7068
  102MOL    H4030542   0.946   6.874   2.024 -0.7345 -0.9598 -0.5039
  102MOL    H4130543   0.796   7.207   2.054 -1.2275  2.4384 -5.6578
  102MOL    H4230544   0.679   7.140   1.940 -2.2317  0.6159  0.6280
  102MOL    H4330545   0.638   7.170   2.106  1.1039 -0.3006  1.0063
  102MOL    H4430546   0.655   6.578   2.131 -0.8731  0.0332 -0.0322
  102MOL    H4530547   0.552   6.668   2.027  1.3057 -1.6393 -0.4713
  102MOL    H4630548   0.548   6.697   2.197 -0.2196  2.4853 -0.3226
  102MOL    C4730549   0.831   6.996   2.232 -0.9369  0.7431 -0.7312
  102MOL    C4830550   0.753   7.026   2.369 -0.2076  0.7912  0.0693
  102MOL    C4930551   0.859   6.994   2.481  0.4827  0.3190 -0.4033
  102MOL    C5030552   0.728   7.183   2.376  0.1911  0.3735 -0.1682
  102MOL    O5130553   0.614   7.231   2.373  0.1546 -0.0573 -0.1850
  102MOL    O5230554   0.837   7.249   2.373 -0.5014 -0.9482 -0.0707
  102MOL    C5330555   0.829   7.394   2.370  0.2461 -0.5371  0.1854
  102MOL    H5430556   0.924   7.052   2.233 -0.4824 -0.0001 -0.2968
  102MOL    H5530557   0.857   6.892   2.252 -1.5018  0.5717 -0.8621
  102MOL    H5630558   0.837   6.891   2.508 -1.2044  0.5661 -0.7582
  102MOL    H5730559   0.959   6.989   2.438  0.6459  0.1301 -0.0070
  102MOL    H5830560   0.854   7.067   2.563  0.9182  0.7042 -0.7160
  102MOL    H5930561   0.781   7.433   2.281 -0.2669  1.3138  1.2601
  102MOL    H6030562   0.930   7.436   2.374 -0.0162  0.0147  1.0401
  102MOL    H6130563   0.774   7.446   2.449  2.4509  0.1013  1.3579
  102MOL    C6230564   0.626   6.937   2.389  0.0078 -0.0648  0.3037
  102MOL    C6330565   0.539   6.929   2.526 -0.0411  0.0389  0.1640
  102MOL    C6430566   0.619   6.915   2.654  0.7288  0.0667 -0.4956
  102MOL    C6530567   0.444   7.054   2.545  0.8341  0.2334 -0.0454
  102MOL    O6630568   0.426   7.118   2.647 -0.3046  0.1907  0.2278
  102MOL    O6730569   0.362   7.081   2.433  0.1496  0.2435  0.0463
  102MOL    C6830570   0.279   7.195   2.435  0.6267  0.5757 -0.6698
  102MOL    H6930571   0.661   6.838   2.359 -2.6453 -0.7724 -0.6579
  102MOL    H7030572   0.557   6.975   2.313  0.8749  1.4933  0.2657
  102MOL    H7130573   0.671   7.008   2.677 -0.8403  0.3555  2.0937
  102MOL    H7230574   0.563   6.902   2.746  1.1298  1.7881 -0.0006
  102MOL    H7330575   0.692   6.834   2.644  1.1164  0.3009  0.3879
  102MOL    H7430576   0.185   7.201   2.381 -1.3960 -1.2883  2.4280
  102MOL    H7530577   0.342   7.274   2.394  1.4191  0.2474 -0.1047
  102MOL    H7630578   0.245   7.228   2.533  3.1022  1.2556 -0.0054
  102MOL    C7730579   0.452   6.799   2.498  0.3719 -0.3677 -0.0085
  102MOL    C7830580   0.350   6.728   2.585  0.4197 -0.1918  0.4970
  102MOL    C7930581   0.433   6.644   2.685  0.4765  0.3587 -0.2613
  102MOL    C8030582   0.247   6.824   2.649  1.4862  1.0931  0.4823
  102MOL    O8130583   0.185   6.908   2.580  0.2223  0.4000  0.4551
  102MOL    O8230584   0.215   6.799   2.778 -0.2701 -0.8040 -0.2664
  102MOL    C8330585   0.139   6.892   2.847  0.1095 -0.3689 -0.1808
  102MOL    H8430586   0.524   6.719   2.475  0.0769 -0.5084 -0.4581
  102MOL    H8530587   0.403   6.831   2.406  2.2294 -0.1109 -0.9363
  102MOL    H8630588   0.366   6.594   2.756  0.2145  0.6477 -0.3044
  102MOL    H8730589   0.487   6.566   2.631 -0.7517  0.0738 -1.1037
  102MOL    H8830590   0.499   6.705   2.747  1.4035 -0.7100 -0.1793
  102MOL    H8930591   0.129   6.855   2.949 -0.5319  2.6293  0.9131
  102MOL    H9030592   0.048   6.918   2.793 -0.0955 -0.5808  0.0636
  102MOL    H9130593   0.198   6.984   2.860  1.3655 -1.4802  2.3852
  102MOL    C9230594   0.275   6.621   2.486  0.2782  0.2283  0.2532
  102MOL    C9330595   0.170   6.512   2.533  0.1112  0.2842 -0.2664
  102MOL    C9430596   0.235   6.405   2.620 -0.0456  0.2715  0.3318
  102MOL    C9530597   0.055   6.587   2.607  0.0428  0.4213  0.9117
  102MOL    O9630598   0.023   6.557   2.721 -0.5982  0.5028 -0.1727
  102MOL    O9730599   7.861   6.666   2.520  0.1419  0.2556  0.8254
  102MOL    C9830600   7.746   6.740   2.566  0.1293 -0.0881  0.0740
  102MOL    H9930601   0.352   6.562   2.437 -0.0199 -0.0009  0.0617
  102MOL   H10030602   0.223   6.682   2.412 -2.0891  0.0397  1.7180
  102MOL   H10130603   0.233   6.433   2.725  1.1999 -0.9787  0.7158
  102MOL   H10230604   0.175   6.314   2.620 -1.7094  1.3660  0.2869
  102MOL   H10330605   0.330   6.371   2.578  0.5247  2.9250 -0.6587
  102MOL   H10430606   7.692   6.801   2.493 -1.1800 -0.1698  0.9679
  102MOL   H10530607   7.773   6.811   2.644  1.3249 -0.7038  0.2328
  102MOL   H10630608   7.684   6.677   2.629 -0.1355  0.4451  0.3549
  102MOL   C10730609   0.101   6.440   2.403 -0.1302 -0.1220 -0.4739
  102MOL   C10830610   0.166   6.379   2.276  0.3474  0.1198 -0.4112
  102MOL   C10930611   0.045   6.344   2.188 -0.8721 -0.0971  0.2106
  102MOL   C11030612   0.244   6.486   2.195  0.0046 -0.5249 -0.5312
  102MOL   O11130613   0.363   6.501   2.195 -0.3085  0.9518 -0.1324
  102MOL   O11230614   0.165   6.579   2.140 -0.1585  0.7501  0.7757
  102MOL   C11330615   0.215   6.695   2.070  0.1434  1.1343  0.0676
  102MOL   H11430616   0.032   6.514   2.364  0.1098  0.2315 -0.2285
  102MOL   H11530617   0.037   6.364   2.449  0.8697  0.0820  1.3157
  102MOL   H11630618   7.853   6.423   2.163  1.8820  2.3140 -0.1860
  102MOL   H11730619   0.083   6.316   2.089  1.9690 -0.7389  1.4209
  102MOL   H11830620   0.001   6.253   2.230 -1.1052  0.5306  1.3203
  102MOL   H11930621   0.295   6.674   1.998  1.0795  1.2180  1.0618
  102MOL   H12030622   0.257   6.766   2.141 -0.3780 -0.5030  2.0474
  102MOL   H12130623   0.130   6.741   2.020  0.7260  1.5309 -0.5673
  102MOL   C12230624   0.244   6.246   2.317 -0.5299  0.4934  0.2150
  102MOL   C12330625   0.354   6.167   2.227  0.1715 -0.3587  0.0584
  102MOL   C12430626   0.307   6.158   2.081  0.5306 -0.1080 -0.3136
  102MOL   C12530627   0.495   6.231   2.219 -0.0441 -0.0622  0.3845
  102MOL   O12630628   0.557   6.244   2.114 -0.4646 -0.1477 -0.6810
  102MOL   O12730629   0.530   6.276   2.344 -0.9220  0.4195 -0.6759
  102MOL   C12830630   0.633   6.380   2.345 -0.7643  0.1465  0.5432
  102MOL   H12930631   0.171   6.171   2.346 -0.6067 -0.0100 -1.2743
  102MOL   H13030632   0.298   6.270   2.409 -0.2526 -0.0420  0.1933
  102MOL   H13130633   0.305   6.259   2.038  0.4768  0.5880  1.3156
  102MOL   H13230634   0.376   6.105   2.016  0.4984  1.2952 -1.5410
  102MOL   H13330635   0.209   6.111   2.074  0.6357 -0.3833  0.0811
  102MOL   H13430636   0.673   6.380   2.446  1.9340  0.8801 -0.4793
  102MOL   H13530637   0.590   6.477   2.318  1.3115  1.2875  1.2225
  102MOL   H13630638   0.709   6.363   2.269 -0.5711 -0.1874  0.8116
  102MOL   C13730639   0.363   6.020   2.297 -0.3669  0.5140 -1.0904
  102MOL   C13830640   0.440   5.893   2.250  0.0375 -0.1690  0.7863
  102MOL   C13930641   0.408   5.861   2.101 -1.0332  0.2411  0.2186
  102MOL   C14030642   0.599   5.914   2.273 -0.7188  0.0334  0.4068
  102MOL   O14130643   0.685   5.836   2.222 -0.0565 -0.1793 -0.1382
  102MOL   O14230644   0.632   6.009   2.354  0.0273  0.0934 -0.1645
  102MOL   C14330645   0.761   6.017   2.402  0.2041  0.3564  0.0283
  102MOL   H14430646   0.262   5.983   2.310  0.7636 -2.8095 -1.2976
  102MOL   H14530647   0.390   6.045   2.400  1.2794 -0.6036 -1.2275
  102MOL   H14630648   0.437   5.760   2.074 -0.2995 -0.1268  2.2882
  102MOL   H14730649   0.305   5.887   2.077 -0.9485 -1.1757 -1.7617
  102MOL   H14830650   0.476   5.919   2.037  0.0518 -1.1977  0.0317
  102MOL   H14930651   0.823   6.075   2.334  0.3269 -1.7575 -1.7390
  102MOL   H15030652   0.817   5.923   2.399 -0.8011 -0.2451 -0.3434
  102MOL   H15130653   0.756   6.057   2.503  0.7041 -0.6253  0.4462
  102MOL   C15230654   0.391   5.757   2.326  0.1526  0.0871 -0.5185
  102MOL   C15330655   0.394   5.727   2.475  0.1290  0.3955  0.9080
  102MOL   C15430656   0.546   5.717   2.517  0.1176  0.0878  0.2879
  102MOL   C15530657   0.335   5.841   2.563 -0.4014 -0.1039  0.2111
  102MOL   O15630658   0.405   5.907   2.646  0.3681  0.5344 -0.2073
  102MOL   O15730659   0.210   5.868   2.527  0.2355 -0.5257  0.2747
  102MOL   C15830660   0.135   5.956   2.607 -0.4688  0.0825 -0.1910
  102MOL   H15930661   0.446   5.678   2.275  0.2053  0.9702 -1.8530
  102MOL   H16030662   0.283   5.751   2.310 -0.0003  0.7491  0.2421
  102MOL   H16130663   0.604   5.646   2.459 -0.2968  1.4915 -1.8977
  102MOL   H16230664   0.600   5.811   2.531 -0.7378  0.5851  0.2436
  102MOL   H16330665   0.558   5.680   2.619  1.3248  0.6132  0.3444
  102MOL   H16430666   0.044   5.990   2.559 -0.0220  0.3448 -0.8581
  102MOL   H16530667   0.180   6.055   2.617 -2.8018  1.1643 -0.0829
  102MOL   H16630668   0.108   5.910   2.702  0.6462  1.7441  0.9504
  102MOL   C16730669   0.311   5.597   2.511  0.3831  0.1178 -0.0687
  102MOL   C16830670   0.327   5.447   2.452  0.1740 -0.1161 -0.4417
  102MOL   C16930671   0.318   5.446   2.294  0.4931 -0.3769  0.3535
  102MOL   C17030672   0.461   5.392   2.497 -0.8516 -0.5926  0.8790
  102MOL   O17130673   0.534   5.335   2.420 -0.1952 -0.3233  0.3809
  102MOL   O17230674   0.498   5.421   2.615 -0.0537 -0.0276 -0.3085
  102MOL   C17330675   0.622   5.364   2.669  0.3666  0.0059  0.1281
  102MOL   H17430676   0.206   5.610   2.486 -0.5152 -2.2547  2.2301
  102MOL   H17530677   0.308   5.592   2.620 -0.5114  0.0941 -0.0953
  102MOL   H17630678   0.275   5.355   2.251  0.8183 -1.7302  2.7434
  102MOL   H17730679   0.253   5.530   2.269  1.4723  0.1181 -0.5428
  102MOL   H17830680   0.419   5.447   2.255  0.1261 -0.7144 -0.6270
  102MOL   H17930681   0.623   5.378   2.777 -2.5312  1.9374 -0.0474
  102MOL   H18030682   0.711   5.416   2.634 -0.8220  2.7395  1.1022
  102MOL   H18130683   0.631   5.256   2.656 -5.0436 -0.6616  0.8941
  102MOL   C18230684   0.201   5.372   2.525 -0.1823 -0.5077 -0.2348
  102MOL   C18330685   0.177   5.209   2.541  0.3854 -0.3467 -0.0246
  102MOL   C18430686   0.231   5.127   2.420 -0.1648  0.2409  0.1637
  102MOL   C18530687   0.266   5.151   2.659 -0.0027  0.0800  0.0412
  102MOL   O18630688   0.338   5.222   2.732 -0.5085 -0.4345  0.1442
  102MOL   O18730689   0.255   5.012   2.658  0.1493 -0.0137  0.1681
  102MOL   C18830690   0.332   4.945   2.756  0.4891  0.3660 -0.2235
  102MOL   H18930691   0.113   5.404   2.469 -2.2206 -1.9377  2.0370
  102MOL   H19030692   0.187   5.416   2.624  2.6338 -0.0772  0.0027
  102MOL   H19130693   0.340   5.122   2.415 -0.2332 -0.8130 -0.2059
  102MOL   H19230694   0.184   5.029   2.420 -1.0413  0.6540  0.8815
  102MOL   H19330695   0.204   5.177   2.327  0.0030  0.3378  0.1666
  102MOL   H19430696   0.309   4.841   2.780  2.0105  0.1018  0.1533
  102MOL   H19530697   0.319   4.990   2.855 -1.9025 -0.5529 -0.0862
  102MOL   H19630698   0.440   4.955   2.742  0.1974  1.0293 -2.1974
  102MOL   C19730699   0.022   5.167   2.571  0.0198 -0.3082  0.2223
  102MOL   C19830700   7.825   5.207   2.706  0.0635  0.2135  0.5271
  102MOL   C19930701   0.015   5.137   2.827 -0.6261 -0.0249 -0.5135
  102MOL   C20030702   7.828   5.358   2.727  0.0929  0.2289 -0.0751
  102MOL   O20130703   7.857   5.406   2.839  0.2405  0.3420  0.2034
  102MOL   O20230704   7.793   5.431   2.622  0.3931 -0.0365 -0.0322
  102MOL   C20330705   7.788   5.570   2.625  0.0445 -0.2985  0.3676
  102MOL   H20430706   0.006   5.062   2.551  0.6658 -0.4929  0.6790
  102MOL   H20530707   7.852   5.217   2.487  0.7971 -1.9335 -1.2065
  102MOL   H20630708   0.098   5.196   2.866 -1.7585  1.8682 -0.8706
  102MOL   H20730709   7.834   5.125   2.919  2.3016  1.0935  1.5668
  102MOL   H20830710   0.056   5.041   2.799  1.2938  0.9171 -0.9813
  102MOL   H20930711   7.703   5.602   2.685  1.7461  2.5931  1.3287
  102MOL   H21030712   7.767   5.608   2.525  1.7376  0.0448  0.1256
  102MOL   H21130713   0.002   5.621   2.656  0.2572  0.4097 -1.4123
  102MOL   C21230714   7.675   5.152   2.712 -0.2371  0.4508  0.0101
  102MOL   C21330715   7.573   5.147   2.590  0.3566 -0.7324  0.1949
  102MOL   C21430716   7.538   5.290   2.539 -0.3171  0.2118  0.0582
  102MOL   C21530717   7.616   5.060   2.468 -0.9048  0.3221 -0.1733
  102MOL   O21630718   7.601   5.094   2.354  0.2461 -0.2535  0.6109
  102MOL   O21730719   7.659   4.934   2.508 -0.0871  0.0696 -0.1684
  102MOL   C21830720   7.704   4.839   2.418 -0.2306 -0.1318  0.6061
  102MOL   H21930721   7.624   5.192   2.800 -0.9665  1.3201 -0.8004
  102MOL   H22030722   7.689   5.048   2.743 -0.1146  0.7741  1.0520
  102MOL   H22130723   7.458   5.288   2.465  2.5124  0.1312 -3.0995
  102MOL   H22230724   7.496   5.346   2.623  0.4167  0.4757  0.2593
  102MOL   H22330725   7.627   5.342   2.502  0.7016  0.9662  3.4318
  102MOL   H22430726   7.736   4.755   2.480  0.7642 -1.0593 -1.1218
  102MOL   H22530727   7.788   4.876   2.359 -0.1785 -0.2152  0.6260
  102MOL   H22630728   7.621   4.810   2.354 -1.0772 -1.2084  2.1619
  102MOL   C22730729   7.438   5.081   2.646 -0.5184  0.7295  0.1785
  102MOL   C22830730   7.316   5.138   2.723  0.9340 -0.2152  0.0482
  102MOL   C22930731   7.356   5.213   2.854 -0.2655  0.4063 -0.1161
  102MOL   C23030732   7.240   5.243   2.645  0.3441  0.5739  0.6170
  102MOL   O23130733   7.204   5.352   2.689 -0.0712  0.2274 -0.2316
  102MOL   O23230734   7.227   5.216   2.511 -0.2355 -0.6034  0.2731
  102MOL   C23330735   7.138   5.292   2.426  0.1312  0.1017  0.2647
  102MOL   H23430736   7.465   4.997   2.710 -1.2830  0.6211  0.3643
  102MOL   H23530737   7.391   5.033   2.560  1.5634 -1.5709  0.2833
  102MOL   H23630738   7.267   5.235   2.913  0.3034 -0.3013  1.0185
  102MOL   H23730739   7.416   5.159   2.927  2.1430  2.6126 -0.3971
  102MOL   H23830740   7.409   5.307   2.843  0.1864  0.0381 -1.1089
  102MOL   H23930741   7.175   5.394   2.421  1.2344 -0.1794  2.2873
  102MOL   H24030742   7.032   5.293   2.454  0.0097  3.0827 -0.1393
  102MOL   H24130743   7.145   5.247   2.326 -0.2395  1.3493 -0.3340
  102MOL   C24230744   7.222   5.018   2.764 -0.6456  0.2863  0.2913
  102MOL   C24330745   7.132   4.919   2.675 -0.2186  1.2009  0.3592
  102MOL   C24430746   7.029   5.014   2.605 -0.3259  0.8886 -0.0030
  102MOL   C24530747   7.207   4.842   2.565  0.3059  0.2773 -0.4302
  102MOL   O24630748   7.150   4.800   2.464  0.8716  0.3359  0.3205
  102MOL   O24730749   7.327   4.802   2.593 -0.4220  0.0791 -0.4360
  102MOL   C24830750   7.391   4.702   2.525  0.2957  0.1356  0.1482
  102MOL   H24930751   7.162   5.063   2.843 -1.3790  1.0136 -0.6709
  102MOL   H25030752   7.280   4.949   2.826  1.6867  1.6343 -0.3266
  102MOL   H25130753   6.999   5.098   2.666 -0.2232  0.4648  0.6310
  102MOL   H25230754   7.059   5.042   2.504  0.6999 -2.5116 -0.7253
  102MOL   H25330755   6.935   4.961   2.587  0.7311 -1.1727  0.4356
  102MOL   H25430756   7.486   4.677   2.573  1.8852 -2.0463 -3.8029
  102MOL   H25530757   7.400   4.724   2.418 -1.1695  1.7350  0.3418
  102MOL   H25630758   7.332   4.610   2.532  1.1591 -0.4476 -0.0493
  102MOL   C25730759   7.046   4.807   2.757  0.2959 -0.0232 -0.4459
  102MOL   C25830760   7.086   4.717   2.881  0.0105  0.7620 -0.2431
  102MOL   C25930761   7.232   4.662   2.872 -0.3143  0.3655  0.3227
  102MOL   C26030762   7.070   4.795   3.016  0.0718  0.0398  0.3830
  102MOL   O26130763   7.166   4.842   3.073 -0.0764 -0.0476  0.7305
  102MOL   O26230764   6.939   4.802   3.050 -0.6070  0.3911  0.0728
  102MOL   C26330765   6.905   4.874   3.165 -0.1863 -0.1789  0.4617
  102MOL   H26430766   7.005   4.735   2.685  0.3977 -1.5712  0.9963
  102MOL   H26530767   6.952   4.854   2.784  0.1748  0.0128 -0.9161
  102MOL   H26630768   7.263   4.608   2.961 -2.0764 -1.4339 -0.1016
  102MOL   H26730769   7.259   4.593   2.792 -0.2036 -0.3125  0.9457
  102MOL   H26830770   7.302   4.744   2.856 -1.3857  1.7605  2.6045
  102MOL   H26930771   6.952   4.827   3.251  1.1134  1.3385  0.6223
  102MOL   H27030772   6.796   4.879   3.164 -0.1667  1.0180 -3.2841
  102MOL   H27130773   6.954   4.969   3.143  1.1020 -1.7067 -3.6963
  102MOL   C27230774   6.994   4.585   2.885  0.6491 -0.3236 -0.1337
  102MOL   C27330775   7.029   4.447   2.825 -0.3118 -0.7433  0.3543
  102MOL   C27430776   7.138   4.374   2.908 -0.1706  0.0206 -0.2018
  102MOL   C27530777   6.901   4.354   2.830  0.1046  0.5035 -0.2314
  102MOL   O27630778   6.822   4.342   2.734  0.0987  0.0517  0.2509
  102MOL   O27730779   6.883   4.287   2.942  0.4676  0.3998  0.0564
  102MOL   C27830780   6.796   4.182   2.932  0.3050 -0.6405 -0.5401
  102MOL   H27930781   6.896   4.614   2.846  0.4356  1.4838  1.6220
  102MOL   H28030782   6.967   4.557   2.988  1.4586 -1.8318 -0.3245
  102MOL   H28130783   7.243   4.401   2.896  0.1227  0.0579  2.1232
  102MOL   H28230784   7.117   4.369   3.015 -0.3627  0.0319 -0.2396
  102MOL   H28330785   7.136   4.276   2.859  0.0284 -0.1284  0.0866
  102MOL   H28430786   6.801   4.132   3.029 -1.8299 -0.8620 -0.4977
  102MOL   H28530787   6.826   4.103   2.862  0.4405 -1.2272  0.1780
  102MOL   H28630788   6.690   4.210   2.927  0.7408  1.4300  1.1889
  102MOL   C28730789   7.062   4.458   2.670  0.2931 -0.6243  0.0379
  102MOL   C28830790   7.093   4.335   2.589  0.1825 -0.1504 -0.1764
  102MOL   C28930791   7.022   4.322   2.455  0.7721  0.6879  0.1908
  102MOL   C29030792   7.249   4.316   2.570 -1.1406 -0.0434  0.3292
  102MOL   O29130793   7.301   4.366   2.467 -0.1155  0.5831  0.0335
  102MOL   O29230794   7.301   4.233   2.659  0.4694  0.1876 -0.6009
  102MOL   C29330795   7.438   4.204   2.631  0.2305  0.2006  0.0490
  102MOL   H29430796   7.143   4.528   2.649 -0.1368 -0.2380 -0.3428
  102MOL   H29530797   6.977   4.503   2.618  0.3389  1.6343  1.8703
  102MOL   H29630798   7.032   4.223   2.408  2.6768  2.1563 -2.6509
  102MOL   H29730799   6.916   4.349   2.462  0.9282  0.9190  1.8942
  102MOL   H29830800   7.071   4.390   2.386  0.9946  0.4759  0.1398
  102MOL   H29930801   7.466   4.115   2.686  2.6034 -0.2616 -1.8002
  102MOL   H30030802   7.492   4.299   2.638  0.6832 -0.0373 -0.1744
  102MOL   H30130803   7.455   4.179   2.526  0.0885 -0.7401  0.2469
  102MOL   H30230804   7.061   4.246   2.642 -0.5825 -1.5820 -2.9137
  103MOL     C130805   6.024   5.589   2.609  0.4946 -0.1254 -0.2683
  103MOL     C230806   5.932   5.705   2.567  0.2353  0.0792 -0.0546
  103MOL     C330807   5.986   5.743   2.428  0.0883 -0.2648 -0.4368
  103MOL     C430808   5.795   5.641   2.545  0.2103  0.0469  0.1040
  103MOL     O530809   5.777   5.521   2.512 -0.2374 -0.2007 -0.4995
  103MOL     O630810   5.696   5.728   2.543  0.2912 -0.1633  0.3475
  103MOL     C730811   5.569   5.697   2.500 -0.1085  0.0789  0.2483
  103MOL     H830812   6.125   5.628   2.622  0.0556  0.5568  1.1773
  103MOL     H930813   5.992   5.549   2.705  0.0446  0.9572  0.0401
  103MOL    H1030814   5.920   5.820   2.388  0.6554  0.9462  0.8911
  103MOL    H1130815   6.082   5.792   2.442  0.3057 -1.0279  0.8522
  103MOL    H1230816   5.979   5.664   2.354 -2.5613  0.6485 -1.2132
  103MOL    H1330817   5.518   5.611   2.544  0.2175 -0.3643 -0.2403
  103MOL    H1430818   5.574   5.664   2.396  1.4533  1.2164 -0.0604
  103MOL    H1530819   5.505   5.785   2.490 -0.1674  0.2449  1.9730
  103MOL    H1630820   6.034   5.501   2.546  0.4586  0.1111 -0.6040
  103MOL    C1730821   5.940   5.821   2.668 -0.2500  0.7069 -0.0279
  103MOL    C1830822   5.912   5.801   2.823  0.6863  0.2437 -0.3472
  103MOL    C1930823   5.794   5.698   2.852  0.4064  0.0942 -0.3542
  103MOL    C2030824   6.033   5.750   2.902  0.6209  0.5978 -0.5186
  103MOL    O2130825   6.141   5.748   2.855  0.4955  0.4380 -0.0866
  103MOL    O2230826   5.999   5.715   3.033  1.0817  0.3074 -0.1624
  103MOL    C2330827   6.095   5.661   3.123 -0.0755 -0.1099 -0.6817
  103MOL    H2430828   5.872   5.896   2.628  0.1160  1.3645  0.5728
  103MOL    H2530829   6.039   5.863   2.652 -0.9924  1.9470 -1.5343
  103MOL    H2630830   5.765   5.679   2.956  0.4718  0.2784 -0.3021
  103MOL    H2730831   5.712   5.741   2.795  1.3183 -0.5994 -2.2433
  103MOL    H2830832   5.815   5.600   2.808  0.2454  0.1100 -0.4636
  103MOL    H2930833   6.149   5.580   3.072 -0.8329  0.1660 -1.9464
  103MOL    H3030834   6.040   5.621   3.208  1.8293 -1.2924  0.0220
  103MOL    H3130835   6.161   5.742   3.153  2.8439 -2.8105  0.5354
  103MOL    C3230836   5.868   5.939   2.891  0.6811 -0.2495  0.7334
  103MOL    C3330837   5.939   6.080   2.878  0.2930  0.4331 -0.7638
  103MOL    C3430838   6.098   6.077   2.865  0.6437 -0.2081  0.4289
  103MOL    C3530839   5.880   6.153   2.758  0.9308 -0.6218 -0.3659
  103MOL    O3630840   5.782   6.114   2.699  0.2527  0.4082  0.2634
  103MOL    O3730841   5.936   6.273   2.734  0.3973  0.5842 -0.0599
  103MOL    C3830842   5.899   6.348   2.620 -0.2921 -0.2455 -0.0114
  103MOL    H3930843   5.875   5.915   2.998  0.2793 -4.0734 -0.0338
  103MOL    H4030844   5.759   5.938   2.885  0.7006  0.4249  0.2691
  103MOL    H4130845   6.128   6.030   2.771 -2.4357 -0.9126 -0.2385
  103MOL    H4230846   6.139   6.176   2.883  0.6815 -0.1427 -0.0042
  103MOL    H4330847   6.142   6.008   2.938  0.6150 -1.6495 -0.8765
  103MOL    H4430848   5.969   6.305   2.549 -0.1281 -2.4095  1.4285
  103MOL    H4530849   5.914   6.455   2.638  0.4445 -0.0592 -1.6867
  103MOL    H4630850   5.802   6.338   2.571  0.1103 -2.4907 -0.4057
  103MOL    C4730851   5.907   6.160   3.020 -0.2616  0.5407  0.1957
  103MOL    C4830852   5.768   6.206   3.067  0.4759 -0.4077 -0.0107
  103MOL    C4930853   5.706   6.314   2.972  0.2186 -0.2350  0.5806
  103MOL    C5030854   5.680   6.087   3.092  0.1668  0.2017 -0.0847
  103MOL    O5130855   5.581   6.075   3.026 -0.1907  0.2134 -0.1343
  103MOL    O5230856   5.732   5.997   3.184 -0.5425  0.1882 -0.3288
  103MOL    C5330857   5.660   5.877   3.196 -0.4228  0.4113  0.5930
  103MOL    H5430858   5.964   6.253   3.021 -2.2032  1.7522  0.1350
  103MOL    H5530859   5.955   6.096   3.094 -0.0452  0.5813  0.0914
  103MOL    H5630860   5.781   6.392   2.957 -0.5330  0.2627 -0.7395
  103MOL    H5730861   5.681   6.289   2.869 -2.3981  2.3757  0.5053
  103MOL    H5830862   5.612   6.364   2.997  0.7227  1.0705 -0.0602
  103MOL    H5930863   5.663   5.817   3.105  1.3598 -2.5258  2.4619
  103MOL    H6030864   5.556   5.897   3.218 -0.6739 -1.2846  1.0555
  103MOL    H6130865   5.702   5.810   3.272 -0.9973  0.1731  0.6997
  103MOL    C6230866   5.799   6.296   3.200 -0.3286  0.4396 -0.0513
  103MOL    C6330867   5.693   6.341   3.315 -0.1692  0.4768 -0.2561
  103MOL    C6430868   5.565   6.406   3.262 -0.4432  0.1318 -0.4215
  103MOL    C6530869   5.655   6.214   3.403 -0.2562  0.0813  0.2622
  103MOL    O6630870   5.542   6.173   3.417 -0.4442 -0.3233  0.8035
  103MOL    O6730871   5.763   6.160   3.485  0.6379  0.1683  0.6224
  103MOL    C6830872   5.751   6.028   3.541  0.2391 -0.0558 -0.6966
  103MOL    H6930873   5.848   6.387   3.169 -1.2938  1.8819  2.4687
  103MOL    H7030874   5.880   6.252   3.258  0.4739  1.1543 -0.6335
  103MOL    H7130875   5.583   6.498   3.207  2.2180 -0.2023 -0.1748
  103MOL    H7230876   5.509   6.336   3.201 -0.7371 -2.0306  2.2185
  103MOL    H7330877   5.491   6.436   3.336 -0.9030  2.1382 -1.6533
  103MOL    H7430878   5.845   5.983   3.574 -0.1998 -0.4547  0.0297
  103MOL    H7530879   5.724   5.972   3.451  1.3061 -0.9494 -0.4774
  103MOL    H7630880   5.686   6.015   3.627 -0.2595 -2.7944 -1.4391
  103MOL    C7730881   5.788   6.432   3.397 -0.0535 -0.3858  0.1077
  103MOL    C7830882   5.749   6.512   3.525 -0.5260  0.7583 -0.1025
  103MOL    C7930883   5.682   6.418   3.632  0.3280 -0.3018  0.1709
  103MOL    C8030884   5.886   6.566   3.588 -0.0595 -0.1896  0.1240
  103MOL    O8130885   5.917   6.541   3.701 -0.2978  0.3100 -0.2510
  103MOL    O8230886   5.966   6.635   3.501  0.1072 -0.0602 -0.0040
  103MOL    C8330887   6.082   6.707   3.548  0.3463 -0.2882  0.3818
  103MOL    H8430888   5.821   6.506   3.325 -0.8028 -2.5608 -2.5723
  103MOL    H8530889   5.882   6.382   3.424  0.2490  0.4074  0.5340
  103MOL    H8630890   5.756   6.341   3.654  0.9061  0.3656  0.5586
  103MOL    H8730891   5.673   6.456   3.733 -3.3926 -0.0774 -0.1835
  103MOL    H8830892   5.588   6.369   3.604  0.1387  0.7454 -1.0814
  103MOL    H8930893   6.153   6.733   3.469 -0.6090 -2.5344 -1.2620
  103MOL    H9030894   6.138   6.646   3.619 -0.1724 -0.0291  1.0194
  103MOL    H9130895   6.049   6.799   3.595  0.4424  0.0014 -0.1108
  103MOL    C9230896   5.661   6.634   3.489  0.0845 -0.0567  0.0664
  103MOL    C9330897   5.571   6.720   3.596  0.3231  0.2582 -0.1362
  103MOL    C9430898   5.435   6.649   3.631 -0.1762  0.5389 -0.1414
  103MOL    C9530899   5.645   6.749   3.732 -0.1176 -0.6794 -0.1114
  103MOL    O9630900   5.591   6.739   3.839 -0.2672 -0.1200  0.9383
  103MOL    O9730901   5.765   6.801   3.722 -0.5150 -0.0541  0.0316
  103MOL    C9830902   5.853   6.826   3.836 -1.1962  0.0223  0.1557
  103MOL    H9930903   5.594   6.612   3.406  1.9271 -0.8691 -1.2558
  103MOL   H10030904   5.733   6.706   3.450 -0.0047 -0.1782 -0.3268
  103MOL   H10130905   5.471   6.561   3.684  1.1210  0.4430 -1.1696
  103MOL   H10230906   5.378   6.709   3.702  0.1850  2.4723 -1.4318
  103MOL   H10330907   5.383   6.612   3.542  1.0069 -0.8296 -0.2707
  103MOL   H10430908   5.832   6.914   3.897 -0.5129  0.8440 -0.7866
  103MOL   H10530909   5.954   6.843   3.799 -1.7569  0.4130 -1.1966
  103MOL   H10630910   5.852   6.746   3.910 -0.8889 -0.2647 -0.1479
  103MOL   C10730911   5.536   6.859   3.524  0.2848  0.0007 -0.3098
  103MOL   C10830912   5.438   6.972   3.569 -1.1388  0.4515 -0.1958
  103MOL   C10930913   5.459   7.094   3.475  0.1488  0.0712  0.1637
  103MOL   C11030914   5.284   6.931   3.557 -0.6927 -0.5122 -0.7920
  103MOL   O11130915   5.198   6.957   3.640 -0.4999  0.0055  0.3350
  103MOL   O11230916   5.267   6.864   3.442 -0.2725 -0.2556  0.0899
  103MOL   C11330917   5.130   6.847   3.404  0.4676 -0.6205  0.2765
  103MOL   H11430918   5.513   6.832   3.421  3.6044 -1.0365 -0.8182
  103MOL   H11530919   5.628   6.913   3.503  0.4370 -0.4914 -0.9604
  103MOL   H11630920   5.396   7.180   3.498 -1.1813 -1.5932  2.9282
  103MOL   H11730921   5.564   7.122   3.466  0.5862 -1.4352  0.4626
  103MOL   H11830922   5.435   7.073   3.371  1.9170  2.2552 -0.7312
  103MOL   H11930923   5.120   6.815   3.300  0.4632  2.1331 -0.6289
  103MOL   H12030924   5.075   6.941   3.413 -1.0383 -1.2875 -1.4387
  103MOL   H12130925   5.071   6.786   3.472 -1.4242 -0.5254 -1.2308
  103MOL   C12230926   5.474   7.020   3.716  0.0349  0.6839 -0.1499
  103MOL   C12330927   5.449   7.153   3.792  0.1838 -0.0223 -0.0219
  103MOL   C12430928   5.304   7.196   3.770 -0.1299  0.3535 -0.4045
  103MOL   C12530929   5.472   7.118   3.938  0.0613 -0.1155 -0.0082
  103MOL   O12630930   5.396   7.143   4.033 -0.2304 -0.6433  0.6728
  103MOL   O12730931   5.583   7.053   3.967 -0.2895  0.2620 -0.1592
  103MOL   C12830932   5.630   7.009   4.094 -0.0527 -0.0228 -0.2748
  103MOL   H12930933   5.582   7.005   3.724  0.2758  1.1061 -2.1526
  103MOL   H13030934   5.425   6.944   3.776  1.2042  0.7983  0.9685
  103MOL   H13130935   5.235   7.118   3.803  0.5495 -0.5301 -1.0545
  103MOL   H13230936   5.267   7.282   3.825  0.8805  0.6451 -0.1857
  103MOL   H13330937   5.281   7.202   3.663  2.6177 -0.2853 -1.0594
  103MOL   H13430938   5.583   7.057   4.179 -0.3867  1.0701 -1.0707
  103MOL   H13530939   5.739   7.012   4.092 -0.0912  1.6946  0.0179
  103MOL   H13630940   5.613   6.902   4.107 -2.3676  0.4151  0.6631
  103MOL   C13730941   5.551   7.266   3.754 -0.2768  0.1258  0.4064
  103MOL   C13830942   5.561   7.417   3.810 -0.1642  0.0316  0.2895
  103MOL   C13930943   5.426   7.483   3.786  0.7529  0.6496 -0.8391
  103MOL   C14030944   5.586   7.421   3.962  0.1294  0.3505 -0.4128
  103MOL   O14130945   5.512   7.470   4.046  0.0314 -0.5581 -0.4738
  103MOL   O14230946   5.701   7.366   3.997  0.1012  0.3537  0.5605
  103MOL   C14330947   5.744   7.362   4.136 -0.2961  0.4572 -0.1548
  103MOL   H14430948   5.538   7.287   3.648 -0.2480  1.9020  0.7394
  103MOL   H14530949   5.648   7.219   3.772  0.3916  1.3888  0.1528
  103MOL   H14630950   5.427   7.591   3.777  0.8180  0.7381  0.2377
  103MOL   H14730951   5.387   7.436   3.695  1.1262 -0.0044 -0.6645
  103MOL   H14830952   5.361   7.469   3.872  0.5590  0.9974 -0.9267
  103MOL   H14930953   5.665   7.322   4.199 -1.2209  0.6274 -1.1768
  103MOL   H15030954   5.773   7.460   4.172 -1.0263  0.6236 -0.0156
  103MOL   H15130955   5.838   7.310   4.156 -0.7114  0.0043  0.6203
  103MOL   C15230956   5.669   7.510   3.746  0.3963 -0.0634  0.1644
  103MOL   C15330957   5.695   7.532   3.593 -0.3270  0.3479  0.6042
  103MOL   C15430958   5.767   7.407   3.536 -0.0595  0.3602  0.4342
  103MOL   C15530959   5.560   7.545   3.522 -0.1408 -0.6791  0.6810
  103MOL   O15630960   5.502   7.456   3.466 -0.1275 -0.3604 -0.1964
  103MOL   O15730961   5.516   7.677   3.532  0.2197  0.1462  0.4093
  103MOL   C15830962   5.378   7.707   3.490  0.2687  0.1991  0.7673
  103MOL   H15930963   5.764   7.490   3.796 -0.4831 -0.0844  1.8652
  103MOL   H16030964   5.649   7.609   3.786  0.1182 -0.2374  0.4626
  103MOL   H16130965   5.703   7.319   3.545 -0.7306  0.6310 -1.6373
  103MOL   H16230966   5.782   7.411   3.429 -1.8359 -1.6053  0.0682
  103MOL   H16330967   5.865   7.399   3.583 -0.6073  1.0807  1.7441
  103MOL   H16430968   5.312   7.631   3.533  0.7652 -1.8617 -1.9762
  103MOL   H16530969   5.381   7.723   3.383  2.5600 -2.8236  0.3027
  103MOL   H16630970   5.338   7.799   3.533 -0.1754  0.4714 -0.2250
  103MOL   C16730971   5.788   7.658   3.577  0.1069 -0.0137 -0.0045
  103MOL   C16830972   5.841   7.695   3.433  0.0603  0.3187 -1.1023
  103MOL   C16930973   5.874   7.848   3.449 -0.6857 -0.1829  0.2706
  103MOL   C17030974   5.977   7.629   3.405 -0.6047 -0.3069  0.0019
  103MOL   O17130975   5.991   7.534   3.325 -0.1631  0.1664 -0.0462
  103MOL   O17230976   6.075   7.671   3.490  0.3730 -0.8073  0.1764
  103MOL   C17330977   6.212   7.633   3.473 -0.2236 -0.0457  0.1253
  103MOL   H17430978   5.879   7.645   3.637  1.1947  1.7179 -1.2141
  103MOL   H17530979   5.744   7.749   3.618 -0.4240 -1.0180  1.7152
  103MOL   H17630980   5.923   0.003   3.541 -0.1769  1.4324 -0.5368
  103MOL   H17730981   5.929   0.008   3.362 -0.8136 -1.0617 -0.1958
  103MOL   H17830982   5.775   0.014   3.438 -0.4147  0.7160  1.2887
  103MOL   H17930983   6.247   7.684   3.383  1.0334 -0.3320  0.4505
  103MOL   H18030984   6.239   7.528   3.484  0.4955  0.2696  1.5640
  103MOL   H18130985   6.272   7.680   3.550 -1.1821  1.8156 -0.2393
  103MOL   C18230986   5.750   7.679   3.302  0.5586  0.6053 -0.0097
  103MOL   C18330987   5.750   7.750   3.160 -0.3932  0.3769 -0.1104
  103MOL   C18430988   5.668   7.657   3.066  0.8591 -0.0951 -0.1797
  103MOL   C18530989   5.680   0.018   3.175 -0.0150 -0.0343 -0.3528
  103MOL   O18630990   5.750   0.117   3.186 -0.2332 -0.5355 -0.1141
  103MOL   O18730991   5.538   0.008   3.174  0.4231  0.2927  0.1421
  103MOL   C18830992   5.463   0.125   3.201  0.1777  0.3375 -0.0101
  103MOL   H18930993   5.648   7.695   3.337  1.0735  0.7800  1.4511
  103MOL   H19030994   5.744   7.571   3.285 -3.1360  0.3967  2.0059
  103MOL   H19130995   5.584   7.608   3.116 -0.7873  1.1912 -1.6130
  103MOL   H19230996   5.610   7.704   2.987  3.4088 -1.0462 -2.7080
  103MOL   H19330997   5.722   7.573   3.021  1.5704  0.5682 -0.5742
  103MOL   H19430998   5.361   0.105   3.234 -0.5247  2.3506 -0.8673
  103MOL   H19530999   5.445   0.176   3.106 -0.5105  1.3157  0.6369
  103MOL   H19631000   5.515   0.193   3.268 -1.1495  0.3198  1.0558
  103MOL   C19731001   5.902   7.763   3.095  0.5375  0.7059  0.2302
  103MOL   C19831002   5.936   7.794   2.941 -0.1703 -0.0326  0.1335
  103MOL   C19931003   5.908   7.660   2.862  0.4294 -0.0286 -0.3774
  103MOL   C20031004   5.834   0.027   2.890  0.9726 -0.3598  0.5426
  103MOL   O20131005   5.733   0.008   2.815 -0.0541 -0.2859  0.2134
  103MOL   O20231006   5.875   0.144   2.932  0.4926  0.0599 -0.1499
  103MOL   C20331007   5.803   0.268   2.898  0.5597  0.3343 -0.2555
  103MOL   H20431008   5.950   7.668   3.119 -1.9387 -0.4802  0.6658
  103MOL   H20531009   5.945   7.847   3.149  0.5529  0.5381  0.4799
  103MOL   H20631010   5.944   7.665   2.760 -0.1469 -2.5201 -0.7480
  103MOL   H20731011   5.928   7.566   2.913 -2.6264 -0.9865 -0.8293
  103MOL   H20831012   5.800   7.666   2.846  0.4008  1.3903  0.2949
  103MOL   H20931013   5.789   0.277   2.790 -0.6948 -1.3601 -0.2527
  103MOL   H21031014   5.871   0.349   2.926  2.5259 -1.6929  0.9856
  103MOL   H21131015   5.708   0.276   2.949  1.3294  0.9909  1.0989
  103MOL   C21231016   6.090   7.833   2.923  0.0362 -0.5290 -0.2845
  103MOL   C21331017   6.156   0.023   2.794 -0.0943 -0.2595 -0.1880
  103MOL   C21431018   6.085   7.837   2.670  0.0109  0.3627 -0.3862
  103MOL   C21531019   6.137   0.175   2.787  0.2061  0.0007 -0.2373
  103MOL   O21631020   6.097   0.240   2.687 -0.0260 -0.1699 -0.1283
  103MOL   O21731021   6.160   0.235   2.902  0.5291  0.3439  0.2706
  103MOL   C21831022   6.156   0.374   2.922 -0.1907 -0.5493  0.0207
  103MOL   H21931023   6.134   7.735   2.941 -0.8603 -0.6833  1.1293
  103MOL   H22031024   6.122   0.018   3.006 -0.8796 -1.2286  0.6075
  103MOL   H22131025   6.128   0.000   2.579 -1.2380 -0.0253 -1.1579
  103MOL   H22231026   6.109   7.731   2.663  1.3670  0.4675  1.9170
  103MOL   H22331027   5.977   7.847   2.668  0.0360  1.7604  2.2852
  103MOL   H22431028   6.259   0.408   2.931 -0.6613  0.2776  2.7179
  103MOL   H22531029   6.097   0.402   3.009  0.9722  0.9876  0.3383
  103MOL   H22631030   6.103   0.426   2.842 -0.5970 -0.6352  0.2317
  103MOL   C22731031   6.310   7.864   2.805 -0.1534  0.2083 -0.3258
  103MOL   C22831032   6.424   0.030   2.700  0.5819 -0.4179  0.7680
  103MOL   C22931033   6.537   7.811   2.752 -0.0480 -0.2634 -0.4312
  103MOL   C23031034   6.398   0.009   2.547  0.2018  0.4498 -0.0603
  103MOL   O23131035   6.454   7.795   2.484 -0.1317 -0.2387  0.3580
  103MOL   O23231036   6.312   0.096   2.498 -0.0823 -0.6655  0.5638
  103MOL   C23331037   6.275   0.085   2.359 -0.6629 -0.2476 -0.4497
  103MOL   H23431038   6.313   7.756   2.820 -1.2645  0.1732 -0.2984
  103MOL   H23531039   6.335   0.020   2.906  0.1136  0.1511 -0.3722
  103MOL   H23631040   6.556   7.823   2.859 -2.5315 -1.5684  0.1669
  103MOL   H23731041   6.516   7.710   2.717 -2.9216  0.3120 -0.4079
  103MOL   H23831042   6.631   7.823   2.698 -0.4829 -0.2317 -1.1855
  103MOL   H23931043   6.356   0.118   2.294 -0.9553  2.7487  0.6637
  103MOL   H24031044   6.194   0.154   2.334  0.6668  1.8456  0.9788
  103MOL   H24131045   6.246   7.859   2.339 -1.6363  0.0203 -0.4801
  103MOL   C24231046   6.451   0.184   2.742  0.7311 -0.2642  0.1006
  103MOL   C24331047   6.594   0.250   2.705  0.2052  0.1404 -0.0064
  103MOL   C24431048   6.704   0.196   2.809 -1.3569 -0.3662 -0.0874
  103MOL   C24531049   6.641   0.231   2.557  0.1034 -0.2919  0.1398
  103MOL   O24631050   6.745   0.185   2.527 -0.4387  0.2068  0.1659
  103MOL   O24731051   6.548   0.280   2.470 -0.2664  0.0616 -0.0724
  103MOL   C24831052   6.566   0.270   2.326  0.0135 -0.6231  0.1883
  103MOL   H24931053   6.433   0.201   2.848 -0.4384  1.0051 -0.2862
  103MOL   H25031054   6.375   0.240   2.687  1.0152  0.6054  0.5945
  103MOL   H25131055   6.713   0.088   2.813 -0.6700 -0.3095 -0.0976
  103MOL   H25231056   6.805   0.221   2.778 -1.5950  1.1335  0.2922
  103MOL   H25331057   6.698   0.226   2.914  0.1308  1.3582 -0.4727
  103MOL   H25431058   6.482   0.293   2.261  0.2279  0.6475  0.3551
  103MOL   H25531059   6.578   0.163   2.308  2.1362  0.2090 -3.8400
  103MOL   H25631060   6.657   0.317   2.291 -1.5194  1.1579 -1.5392
  103MOL   C25731061   6.570   0.403   2.739 -0.1453  0.0311  0.0503
  103MOL   C25831062   6.666   0.526   2.704 -0.1447  0.0086 -0.2182
  103MOL   C25931063   6.647   0.556   2.548 -0.1853  0.2677 -0.3162
  103MOL   C26031064   6.619   0.648   2.790  0.0591  0.1817  0.7577
  103MOL   O26131065   6.591   0.752   2.739 -0.7250  0.6938  0.4416
  103MOL   O26231066   6.621   0.620   2.928 -0.4438 -0.0980 -0.2362
  103MOL   C26331067   6.572   0.711   3.024 -0.4356 -0.4234 -0.0027
  103MOL   H26431068   6.546   0.413   2.845  1.0953 -0.6166  0.4136
  103MOL   H26531069   6.472   0.431   2.701 -0.7661  1.1401  2.3827
  103MOL   H26631070   6.675   0.658   2.519 -0.1075  0.0888 -0.8810
  103MOL   H26731071   6.712   0.491   2.490  1.0648  2.0024 -0.9030
  103MOL   H26831072   6.541   0.558   2.526  0.0360 -0.8872 -1.5874
  103MOL   H26931073   6.637   0.799   3.020 -0.2422 -0.6275 -1.6014
  103MOL   H27031074   6.573   0.681   3.128  0.3744 -1.2593 -0.2438
  103MOL   H27131075   6.473   0.749   3.002 -0.6094 -2.1295 -2.3475
  103MOL   C27231076   6.811   0.490   2.754  0.2505  0.0555  0.5261
  103MOL   C27331077   6.937   0.595   2.749  0.1298  0.1963  1.0714
  103MOL   C27431078   7.061   0.497   2.738 -0.9308  0.1740 -0.0658
  103MOL   C27531079   6.936   0.690   2.634  0.3445  0.2484  0.8258
  103MOL   O27631080   6.930   0.811   2.654  0.5457  0.2826  0.9391
  103MOL   O27731081   6.957   0.629   2.510  0.0850 -0.2195 -0.1341
  103MOL   C27831082   6.992   0.711   2.401 -0.0140  0.3962 -0.8661
  103MOL   H27931083   6.839   0.414   2.681  1.1603  2.7469 -2.0554
  103MOL   H28031084   6.805   0.443   2.852  0.7278  0.3994  0.7244
  103MOL   H28131085   7.053   0.408   2.800 -1.5894  0.8769  0.8629
  103MOL   H28231086   7.091   0.452   2.643 -0.3739 -3.4837  1.7402
  103MOL   H28331087   7.148   0.556   2.764 -1.3423  1.5522 -1.6709
  103MOL   H28431088   7.085   0.765   2.420  2.4351 -2.6341 -3.5840
  103MOL   H28531089   6.903   0.770   2.382 -1.4991 -1.8043 -0.9559
  103MOL   H28631090   7.027   0.647   2.320 -0.9221 -1.7128  0.3770
  103MOL   C28731091   6.954   0.680   2.886  0.2413  0.1158 -0.0061
  103MOL   C28831092   7.006   0.601   3.010 -0.2493 -0.0680  0.0387
  103MOL   C28931093   7.085   0.700   3.100  0.0069 -0.5597  0.0262
  103MOL   C29031094   6.912   0.520   3.096  0.1357  0.7056  0.0797
  103MOL   O29131095   6.925   0.399   3.102 -0.1016  0.2934 -0.2783
  103MOL   O29231096   6.823   0.589   3.159  0.4228  0.0671  0.1262
  103MOL   C29331097   6.751   0.522   3.254  0.0905  0.7847  0.3062
  103MOL   H29431098   6.867   0.742   2.909  0.4754 -0.0191  1.3355
  103MOL   H29531099   7.040   0.745   2.867  2.2429 -1.6484  2.5964
  103MOL   H29631100   7.185   0.728   3.064 -0.9969 -0.4853 -2.8450
  103MOL   H29731101   7.033   0.795   3.108 -1.4618 -1.2138 -1.5465
  103MOL   H29831102   7.092   0.657   3.200  0.5964 -2.5029 -0.8357
  103MOL   H29931103   6.719   0.422   3.222  1.8326  0.2036  0.3461
  103MOL   H30031104   6.655   0.570   3.270 -0.5090 -0.6206  1.0274
  103MOL   H30131105   6.800   0.508   3.350  0.8271  2.5772  0.2047
  103MOL   H30231106   7.084   0.531   2.979  0.0062  0.5028 -0.6192
  104MOL     C131107   7.192   0.476   5.706  0.8695  0.5309  0.7320
  104MOL     C231108   7.261   0.613   5.713 -0.7002 -0.6772  0.2594
  104MOL     C331109   7.272   0.660   5.859  0.1303 -0.1743 -0.5833
  104MOL     C431110   7.405   0.608   5.659  0.0191  0.1889 -0.8265
  104MOL     O531111   7.454   0.496   5.623 -0.2337  0.2879  0.0899
  104MOL     O631112   7.463   0.730   5.639 -0.3522 -0.0558 -0.6277
  104MOL     C731113   7.597   0.726   5.578 -0.5861  0.8356 -0.4252
  104MOL     H831114   7.089   0.483   5.740  0.9273 -3.2754  2.0027
  104MOL     H931115   7.192   0.430   5.607 -0.0307 -1.1241  1.4745
  104MOL    H1031116   7.335   0.592   5.916  0.6132 -0.8014 -1.8445
  104MOL    H1131117   7.327   0.754   5.866  0.1978 -0.3014  0.6319
  104MOL    H1231118   7.173   0.674   5.901  0.6548  2.2428 -0.0912
  104MOL    H1331119   7.587   0.708   5.471  2.1008 -0.5640 -0.4952
  104MOL    H1431120   7.656   0.644   5.620  2.0330  2.4895 -0.7297
  104MOL    H1531121   7.658   0.813   5.603  0.9385 -0.2972 -0.1109
  104MOL    H1631122   7.240   0.402   5.770  0.0648 -0.6776 -0.0314
  104MOL    C1731123   7.180   0.727   5.643 -0.1521 -0.5785 -0.7291
  104MOL    C1831124   7.143   0.734   5.481 -0.6386 -0.1177  0.4029
  104MOL    C1931125   7.273   0.712   5.394  0.4324 -0.1374 -0.5918
  104MOL    C2031126   7.041   0.625   5.446  1.0072 -0.3429 -0.4849
  104MOL    O2131127   7.036   0.573   5.340  0.2930 -0.4174  0.3775
  104MOL    O2231128   6.955   0.602   5.545  0.0802  0.0165  0.0275
  104MOL    C2331129   6.838   0.527   5.524 -0.6983  0.4659 -0.3313
  104MOL    H2431130   7.232   0.822   5.657 -2.3757  0.8934 -2.2460
  104MOL    H2531131   7.090   0.739   5.704 -0.4271 -1.2355 -1.0053
  104MOL    H2631132   7.342   0.793   5.417  0.2370 -0.0870 -0.1710
  104MOL    H2731133   7.320   0.615   5.407  2.1124  0.5168 -1.6489
  104MOL    H2831134   7.253   0.724   5.288 -0.7464 -0.8796 -0.4613
  104MOL    H2931135   6.770   0.523   5.610  0.2855  2.1987  0.5449
  104MOL    H3031136   6.843   0.421   5.497 -2.6597  0.5610 -1.1447
  104MOL    H3131137   6.792   0.569   5.435 -0.4894 -0.2656 -0.7923
  104MOL    C3231138   7.092   0.876   5.447 -0.0158 -0.2182  0.3385
  104MOL    C3331139   6.954   0.938   5.485 -0.6786  0.0492 -0.1194
  104MOL    C3431140   6.837   0.886   5.399 -0.7804 -0.9598  0.5771
  104MOL    C3531141   6.927   0.921   5.634 -0.6600  0.4686  0.6131
  104MOL    O3631142   6.832   0.846   5.671  0.3901  0.1201 -0.3652
  104MOL    O3731143   7.004   0.996   5.714 -0.7857 -0.1570 -0.2075
  104MOL    C3831144   6.988   0.978   5.851 -0.4679  0.0906  0.0203
  104MOL    H3931145   7.092   0.870   5.338 -0.2195 -2.5567  0.4351
  104MOL    H4031146   7.172   0.947   5.470 -1.6869  1.4411  1.1294
  104MOL    H4131147   6.741   0.934   5.420 -0.9422 -1.0308  0.0066
  104MOL    H4231148   6.856   0.908   5.294 -1.7379  2.2991  1.0187
  104MOL    H4331149   6.821   0.780   5.417 -0.1502 -1.3440 -1.0464
  104MOL    H4431150   7.053   1.050   5.901  0.7591 -0.6780 -0.4575
  104MOL    H4531151   7.032   0.882   5.874 -3.0746 -0.7872  1.5155
  104MOL    H4631152   6.890   0.979   5.899 -0.0666  0.7591  0.8325
  104MOL    C4731153   6.968   1.093   5.459 -0.0331  0.4370 -0.0959
  104MOL    C4831154   6.848   1.198   5.462  0.8700 -0.2631 -0.2416
  104MOL    C4931155   6.767   1.192   5.335 -0.0124  0.2612  0.8316
  104MOL    C5031156   6.765   1.191   5.595 -0.6234  0.0714  0.2961
  104MOL    O5131157   6.648   1.155   5.586 -0.3928 -0.4665 -0.4935
  104MOL    O5231158   6.822   1.240   5.711  0.6046  0.8315 -0.3532
  104MOL    C5331159   6.748   1.223   5.829 -0.0978  0.4197 -0.1212
  104MOL    H5431160   7.021   1.106   5.365  1.0610 -2.5126  0.0570
  104MOL    H5531161   7.043   1.126   5.531  0.0818  1.4569 -0.6768
  104MOL    H5631162   6.730   1.289   5.303 -0.6706  0.3652  1.8737
  104MOL    H5731163   6.827   1.170   5.247  0.4964  1.2696  0.9192
  104MOL    H5831164   6.686   1.119   5.335 -1.2620  1.6318  1.5186
  104MOL    H5931165   6.722   1.117   5.830 -0.8626  0.5993 -0.7076
  104MOL    H6031166   6.653   1.276   5.837 -0.6280 -0.2764 -1.5528
  104MOL    H6131167   6.815   1.230   5.914 -0.3554 -0.7817  0.1867
  104MOL    C6231168   6.917   1.340   5.441 -0.6784  0.3546 -0.2846
  104MOL    C6331169   6.876   1.488   5.493 -0.5315  0.3146 -0.4275
  104MOL    C6431170   6.723   1.509   5.477  0.4653 -0.0010 -0.1747
  104MOL    C6531171   6.899   1.506   5.644  0.0881 -0.2996  0.2417
  104MOL    O6631172   6.816   1.546   5.727 -0.0507 -0.1564 -0.3692
  104MOL    O6731173   7.020   1.470   5.675  0.1623  0.4449 -0.4378
  104MOL    C6831174   7.063   1.479   5.813  0.0950  0.1188 -0.0847
  104MOL    H6931175   6.924   1.360   5.334  0.1187  0.0980 -0.2867
  104MOL    H7031176   7.024   1.328   5.457 -0.9068 -1.5057  0.0452
  104MOL    H7131177   6.680   1.478   5.382 -0.9506 -1.2508  0.8359
  104MOL    H7231178   6.673   1.448   5.553 -1.4577  4.3000  2.2127
  104MOL    H7331179   6.696   1.612   5.502 -2.1885 -0.8762  0.8090
  104MOL    H7431180   7.002   1.417   5.878 -0.1074 -0.3462 -0.7125
  104MOL    H7531181   7.061   1.578   5.858 -1.2208  0.8669 -1.7280
  104MOL    H7631182   7.165   1.441   5.816  0.4816  1.1146 -0.5205
  104MOL    C7731183   6.945   1.590   5.397 -0.1268  0.4360  0.2831
  104MOL    C7831184   6.992   1.732   5.446  0.9375  0.2612 -0.0950
  104MOL    C7931185   6.864   1.798   5.506 -0.4755 -0.1601 -0.2635
  104MOL    C8031186   7.109   1.727   5.545  0.1456 -0.2425  0.8641
  104MOL    O8131187   7.113   1.798   5.644  0.1889  0.2258 -0.2254
  104MOL    O8231188   7.197   1.629   5.515  0.3766  0.6463 -0.1678
  104MOL    C8331189   7.313   1.618   5.592 -0.0138  0.0271  0.2715
  104MOL    H8431190   6.883   1.606   5.309  1.0527  1.6862 -0.3363
  104MOL    H8531191   7.034   1.545   5.353  2.0543  2.5515  2.4101
  104MOL    H8631192   6.829   1.746   5.596  1.2237  0.3791  0.7186
  104MOL    H8731193   6.876   1.903   5.536  0.7944 -0.4750  0.3635
  104MOL    H8831194   6.781   1.805   5.436  1.5107  1.7385 -2.5137
  104MOL    H8931195   7.374   1.705   5.566  0.9024 -0.6695  0.0424
  104MOL    H9031196   7.375   1.531   5.570 -0.5521 -0.2139 -0.2921
  104MOL    H9131197   7.307   1.626   5.701 -0.3558 -0.7502  0.3126
  104MOL    C9231198   7.037   1.807   5.317  0.2560  0.3762  0.4082
  104MOL    C9331199   7.118   1.942   5.303  0.2288  0.0128 -0.8230
  104MOL    C9431200   7.057   2.051   5.393  0.2075 -0.1194 -0.2271
  104MOL    C9531201   7.266   1.935   5.340 -0.1172  0.6371  0.1717
  104MOL    O9631202   7.318   2.032   5.389 -0.1360 -0.3124 -0.6356
  104MOL    O9731203   7.321   1.817   5.314  0.1636 -0.0165 -0.1370
  104MOL    C9831204   7.464   1.812   5.315 -0.5165 -0.1466 -0.3800
  104MOL    H9931205   6.943   1.829   5.267  0.7417  0.6609 -0.3916
  104MOL   H10031206   7.081   1.724   5.260  0.5704 -0.3147  1.6426
  104MOL   H10131207   7.091   2.154   5.383 -0.1991  0.1720  1.2132
  104MOL   H10231208   6.948   2.043   5.388  0.2351 -1.5142  0.9686
  104MOL   H10331209   7.076   2.038   5.500 -1.7641  0.7156  0.2455
  104MOL   H10431210   7.508   1.815   5.415  0.1218 -1.4873 -0.6056
  104MOL   H10531211   7.503   1.896   5.258 -1.8059  0.3184 -0.5830
  104MOL   H10631212   7.490   1.726   5.253  0.8321  0.0788 -0.1435
  104MOL   C10731213   7.094   1.997   5.157  0.3343 -0.1061  0.0952
  104MOL   C10831214   7.177   1.954   5.026  0.4399  0.6063  0.3437
  104MOL   C10931215   7.314   2.024   5.026  0.4043 -0.0151  0.1923
  104MOL   C11031216   7.185   1.801   4.991  0.4918 -0.3604  0.3707
  104MOL   O11131217   7.291   1.747   4.956  0.2423 -0.2417  0.3121
  104MOL   O11231218   7.073   1.735   5.015 -0.0366  0.0606 -0.2614
  104MOL   C11331219   7.063   1.598   4.983  0.6898  0.6728  0.3125
  104MOL   H11431220   7.113   2.104   5.158  2.6924 -0.4898 -1.3707
  104MOL   H11531221   6.987   1.990   5.135 -0.8557 -1.3074  5.4966
  104MOL   H11631222   7.306   2.115   5.086 -2.0622 -1.6019  2.3412
  104MOL   H11731223   7.391   1.962   5.072 -0.9386 -0.5155  1.8053
  104MOL   H11831224   7.356   2.055   4.931 -1.3141  0.4874 -0.4253
  104MOL   H11931225   7.071   1.590   4.875 -0.3789  1.0710  0.1975
  104MOL   H12031226   6.975   1.552   5.028  1.1258 -0.1408  0.3358
  104MOL   H12131227   7.146   1.550   5.034 -0.8150 -0.7064  1.5240
  104MOL   C12231228   7.087   2.036   4.924  0.3189 -0.4606  0.1619
  104MOL   C12331229   7.086   2.017   4.767 -0.2397 -0.4921  0.1539
  104MOL   C12431230   7.222   1.969   4.700  0.4692  0.5232 -0.1292
  104MOL   C12531231   6.981   1.913   4.723 -0.3196 -0.0252  0.5458
  104MOL   O12631232   6.930   1.833   4.805 -0.0242  0.0326  0.1426
  104MOL   O12731233   6.958   1.904   4.589  0.1214  0.0865 -0.7057
  104MOL   C12831234   6.869   1.811   4.539  0.1677 -0.1581  0.1316
  104MOL   H12931235   7.125   2.136   4.944  2.9198 -1.4249  0.1656
  104MOL   H13031236   6.980   2.041   4.946  0.8151  0.9110  2.3341
  104MOL   H13131237   7.204   1.966   4.593  0.7436  0.9635 -0.1895
  104MOL   H13231238   7.311   2.030   4.718 -0.0065  1.3156 -0.4107
  104MOL   H13331239   7.239   1.868   4.735 -1.7761  0.3095  0.3839
  104MOL   H13431240   6.771   1.850   4.563 -0.4452 -0.6778 -1.4479
  104MOL   H13531241   6.874   1.718   4.596  0.6940 -0.2250 -0.0200
  104MOL   H13631242   6.883   1.801   4.431 -2.1943  0.0578 -0.2210
  104MOL   C13731243   7.047   2.157   4.694 -0.2370 -0.3719 -0.0780
  104MOL   C13831244   7.094   2.308   4.729 -0.0218  0.6345 -0.3013
  104MOL   C13931245   6.990   2.369   4.833  0.0088 -0.5131 -0.2661
  104MOL   C14031246   7.234   2.312   4.791  0.6302  0.1138 -0.5156
  104MOL   O14131247   7.249   2.348   4.911  0.0653 -0.6342  0.1924
  104MOL   O14231248   7.334   2.275   4.704 -0.0025  0.0421  0.4629
  104MOL   C14331249   7.468   2.293   4.744 -0.4219  0.1087  0.7466
  104MOL   H14431250   6.938   2.160   4.693 -0.3015 -1.4451  2.0012
  104MOL   H14531251   7.063   2.148   4.586 -0.3974  0.3515 -0.1601
  104MOL   H14631252   7.020   2.468   4.869 -0.5045  0.1102 -1.5358
  104MOL   H14731253   6.888   2.384   4.797 -0.5540 -1.5323  0.8680
  104MOL   H14831254   6.964   2.299   4.912  0.5376 -1.5061 -0.9679
  104MOL   H14931255   7.475   2.260   4.847 -0.9084  0.3152  0.8501
  104MOL   H15031256   7.483   2.401   4.740  2.7817 -0.3364 -0.9823
  104MOL   H15131257   7.531   2.239   4.674 -0.2224  0.0357  0.9832
  104MOL   C15231258   7.086   2.386   4.592  0.0018 -0.6966 -0.4757
  104MOL   C15331259   7.102   2.539   4.576 -0.2140 -0.5272 -0.2197
  104MOL   C15431260   7.134   2.560   4.419 -0.4960 -0.1414  0.5855
  104MOL   C15531261   6.964   2.610   4.604  0.0274 -0.9428  0.5599
  104MOL   O15631262   6.882   2.633   4.510 -0.2544 -0.8310  0.3264
  104MOL   O15731263   6.941   2.634   4.733 -0.8891 -0.0343  0.6241
  104MOL   C15831264   6.818   2.690   4.775 -0.0940  0.0437  0.2244
  104MOL   H15931265   7.000   2.349   4.536 -0.6582  1.6693 -1.0793
  104MOL   H16031266   7.173   2.350   4.537  0.2080 -2.3574  0.9001
  104MOL   H16131267   7.241   2.543   4.406 -0.6020 -0.2465 -0.1248
  104MOL   H16231268   7.088   2.490   4.350  3.6730 -0.4011 -2.0851
  104MOL   H16331269   7.100   2.658   4.383  1.9143  1.3369  2.1566
  104MOL   H16431270   6.819   2.735   4.874  0.2493  1.5330 -0.4414
  104MOL   H16531271   6.738   2.615   4.777  1.6363 -1.7998  1.6387
  104MOL   H16631272   6.789   2.768   4.704 -0.4158 -0.6301 -0.3873
  104MOL   C16731273   7.221   2.596   4.667  0.5809  0.3291 -0.2216
  104MOL   C16831274   7.289   2.739   4.648 -0.1564  0.3019 -0.0581
  104MOL   C16931275   7.170   2.843   4.660  0.2867 -0.8367  0.3045
  104MOL   C17031276   7.379   2.769   4.770 -0.8125 -0.5645 -0.1796
  104MOL   O17131277   7.398   2.876   4.821 -0.0576  0.0863 -0.2232
  104MOL   O17231278   7.450   2.656   4.805 -0.4655  0.6700 -0.2778
  104MOL   C17331279   7.539   2.666   4.915  0.2520 -0.4089  0.0382
  104MOL   H17431280   7.303   2.525   4.662  0.2467 -0.0969  0.2443
  104MOL   H17531281   7.188   2.593   4.771 -0.6523  0.2783 -0.5971
  104MOL   H17631282   7.187   2.951   4.652 -1.3507 -0.5799  0.1759
  104MOL   H17731283   7.098   2.827   4.580  0.3959  2.1292 -0.4702
  104MOL   H17831284   7.127   2.834   4.759 -0.0312 -0.5711  0.1903
  104MOL   H17931285   7.587   2.572   4.942  0.5208 -0.7052 -1.4329
  104MOL   H18031286   7.480   2.695   5.002 -1.2343 -0.3290 -0.9802
  104MOL   H18131287   7.624   2.732   4.896 -1.1066  1.5703  0.5932
  104MOL   C18231288   7.370   2.754   4.514  0.1725 -0.0702  0.2467
  104MOL   C18331289   7.467   2.869   4.467  0.2365 -0.0880 -0.1705
  104MOL   C18431290   7.393   3.001   4.488 -1.1244  0.4086  0.9822
  104MOL   C18531291   7.600   2.870   4.547 -0.7934 -0.0531 -0.0566
  104MOL   O18631292   7.646   2.975   4.588  0.3131  0.5186  0.0045
  104MOL   O18731293   7.671   2.753   4.549 -0.4241  0.1372  0.1386
  104MOL   C18831294   7.789   2.747   4.624 -0.0575 -0.1691 -0.1199
  104MOL   H18931295   7.301   2.764   4.429 -0.2614  1.5088  0.7618
  104MOL   H19031296   7.427   2.663   4.498  0.2475  0.0922 -0.4702
  104MOL   H19131297   7.447   3.090   4.457 -1.3133 -0.1728 -1.1105
  104MOL   H19231298   7.298   2.992   4.436 -0.8370  1.6907  0.2107
  104MOL   H19331299   7.372   3.015   4.593  0.4379  2.2075  1.0767
  104MOL   H19431300   7.877   2.766   4.563  0.2296  1.2297  0.6967
  104MOL   H19531301   7.798   2.653   4.678 -0.0525 -0.5030 -0.7006
  104MOL   H19631302   7.787   2.817   4.708 -0.1452 -2.3714  1.7556
  104MOL   C19731303   7.512   2.842   4.314 -0.3352 -0.7425 -0.2161
  104MOL   C19831304   7.557   2.956   4.220 -0.1470  0.1197  0.4840
  104MOL   C19931305   7.674   3.042   4.286  0.5303 -0.1078 -0.4134
  104MOL   C20031306   7.627   2.880   4.103  0.4877  0.4713  0.3613
  104MOL   O20131307   7.745   2.893   4.073 -0.0469 -0.1713  0.5437
  104MOL   O20231308   7.546   2.794   4.049  0.3212  0.0754  0.3714
  104MOL   C20331309   7.599   2.698   3.962  0.2847 -0.1110  0.4377
  104MOL   H20431310   7.423   2.807   4.261 -0.9612  2.6663 -1.5610
  104MOL   H20531311   7.586   2.762   4.319 -1.9619 -2.3096 -0.3811
  104MOL   H20631312   7.638   3.123   4.349 -1.1591 -1.3406  0.2712
  104MOL   H20731313   7.737   2.975   4.345 -1.5853 -1.5417  0.2853
  104MOL   H20831314   7.736   3.091   4.212 -0.0781  0.6312 -0.4418
  104MOL   H20931315   7.530   2.625   3.919 -0.4326  0.7114  0.1761
  104MOL   H21031316   7.689   2.649   3.997  0.4581 -1.4752 -1.8346
  104MOL   H21131317   7.628   2.740   3.866 -0.9162  0.9835  0.5370
  104MOL   C21231318   7.433   3.029   4.164  0.1462  0.1233 -0.1250
  104MOL   C21331319   7.436   3.156   4.069  0.3719  0.3257  0.9619
  104MOL   C21431320   7.503   3.274   4.141  0.7026 -0.8669  0.3515
  104MOL   C21531321   7.497   3.126   3.932  0.3798  0.3660  0.2032
  104MOL   O21631322   7.591   3.192   3.891  0.3564  0.4002 -0.3789
  104MOL   O21731323   7.439   3.021   3.867  0.1711 -0.0521  0.0082
  104MOL   C21831324   7.500   2.980   3.743 -0.0773 -0.2660  0.3637
  104MOL   H21931325   7.363   3.052   4.244  1.4827  0.4275  0.9727
  104MOL   H22031326   7.369   2.958   4.111 -1.0990 -0.5921  2.2374
  104MOL   H22131327   7.453   3.297   4.236  1.2315  0.0937  0.3991
  104MOL   H22231328   7.608   3.251   4.160  0.9903  0.4149  0.3421
  104MOL   H22331329   7.509   3.365   4.083  1.1804 -1.7739 -1.0333
  104MOL   H22431330   7.590   2.925   3.772  0.1390  0.0704  0.3295
  104MOL   H22531331   7.509   3.065   3.676  1.6330 -0.3984  0.3931
  104MOL   H22631332   7.440   2.904   3.693 -0.2570  0.8824 -1.1864
  104MOL   C22731333   7.284   3.196   4.039  0.0479  0.2788  0.8904
  104MOL   C22831334   7.224   3.286   3.921  0.5490  0.4610 -0.5651
  104MOL   C22931335   7.303   3.419   3.921 -0.4125  0.2451 -0.0599
  104MOL   C23031336   7.236   3.222   3.779 -0.3002 -0.0261  0.1289
  104MOL   O23131337   7.293   3.287   3.688 -0.7160  0.5840  0.8343
  104MOL   O23231338   7.182   3.095   3.763 -0.2821  0.0789  0.1465
  104MOL   C23331339   7.176   3.034   3.630  0.1425 -0.4864 -0.2973
  104MOL   H23431340   7.251   3.237   4.135 -2.0272 -0.2982  0.4455
  104MOL   H23531341   7.244   3.098   4.016  0.9575  0.4000 -1.4061
  104MOL   H23631342   7.244   3.487   3.858 -2.0016 -0.7245  0.3411
  104MOL   H23731343   7.310   3.461   4.022  0.7676 -3.6432  1.5540
  104MOL   H23831344   7.400   3.406   3.875 -0.2840  0.0729  0.2569
  104MOL   H23931345   7.122   3.110   3.574  0.0062  1.1083  1.9503
  104MOL   H24031346   7.125   2.938   3.621 -1.8793  0.4909  0.4614
  104MOL   H24131347   7.274   3.019   3.585  1.6659  2.7051  1.7674
  104MOL   C24231348   7.075   3.312   3.968 -0.4812 -0.1460 -0.4231
  104MOL   C24331349   6.947   3.358   3.882  0.7949 -0.7685 -0.5466
  104MOL   C24431350   6.979   3.494   3.819  0.1166 -0.6867  0.2383
  104MOL   C24531351   6.907   3.248   3.774  0.7134  0.0041 -0.5323
  104MOL   O24631352   6.908   3.274   3.657  0.3865 -0.1997 -0.0095
  104MOL   O24731353   6.873   3.132   3.835 -0.0914 -0.0774  0.0538
  104MOL   C24831354   6.835   3.022   3.763 -0.0050 -0.5879  0.6727
  104MOL   H24931355   7.082   3.390   4.044  0.6165  0.2111 -0.8896
  104MOL   H25031356   7.049   3.217   4.015 -3.0553  1.2787  1.1530
  104MOL   H25131357   7.014   3.571   3.887 -1.7922 -0.3569  0.8723
  104MOL   H25231358   7.041   3.484   3.729 -2.7402 -0.2222 -1.8420
  104MOL   H25331359   6.893   3.542   3.772 -0.2316 -0.4087  1.1595
  104MOL   H25431360   6.726   3.025   3.768 -0.1608  1.7326 -2.6068
  104MOL   H25531361   6.868   2.928   3.807 -0.4934 -2.0010 -1.9232
  104MOL   H25631362   6.859   3.028   3.657  0.7653  1.3405  0.9254
  104MOL   C25731363   6.822   3.370   3.974  0.1519  0.3901 -0.6373
  104MOL   C25831364   6.689   3.450   3.940  0.1486 -0.1855  0.1271
  104MOL   C25931365   6.715   3.604   3.982  0.2016  0.2500 -0.8342
  104MOL   C26031366   6.645   3.439   3.790 -0.8294  0.2104  0.6040
  104MOL   O26131367   6.655   3.540   3.718 -0.2905 -0.5288 -0.0047
  104MOL   O26231368   6.597   3.324   3.754  0.7308 -0.1948 -0.4197
  104MOL   C26331369   6.572   3.291   3.615  0.2801 -0.7069 -0.7655
  104MOL   H26431370   6.850   3.410   4.071 -0.8300  2.7505 -1.3160
  104MOL   H26531371   6.786   3.267   3.987  0.6359  0.1592 -1.0839
  104MOL   H26631372   6.785   3.653   3.915 -0.0607  2.4529  0.4395
  104MOL   H26731373   6.627   3.666   3.965  0.0463  0.1447 -0.4330
  104MOL   H26831374   6.743   3.608   4.087 -3.0116 -0.3679  0.1156
  104MOL   H26931375   6.648   3.222   3.579 -0.5784 -2.0426 -0.0591
  104MOL   H27031376   6.559   3.381   3.554 -0.4864  0.7610  1.4874
  104MOL   H27131377   6.487   3.224   3.607  0.6815 -1.3570  0.2996
  104MOL   C27231378   6.566   3.394   4.022 -0.7191 -0.4158  0.1545
  104MOL   C27331379   6.541   3.395   4.179 -0.7257  0.0354  0.2506
  104MOL   C27431380   6.664   3.326   4.250  0.1669 -0.1885 -0.3688
  104MOL   C27531381   6.521   3.532   4.247 -0.2403 -0.4455  0.8666
  104MOL   O27631382   6.458   3.618   4.192 -0.3709 -0.1397 -0.3453
  104MOL   O27731383   6.571   3.543   4.377 -0.0454 -0.2179 -0.2124
  104MOL   C27831384   6.548   3.655   4.459 -0.7889  0.7509  0.5552
  104MOL   H27931385   6.540   3.294   3.985  1.8350 -1.5299  1.2034
  104MOL   H28031386   6.480   3.452   3.990  0.9570  0.3809 -3.1492
  104MOL   H28131387   6.750   3.393   4.257 -0.4598  0.6103 -0.2020
  104MOL   H28231388   6.639   3.296   4.352  1.6831  1.6631  0.5927
  104MOL   H28331389   6.685   3.231   4.201 -0.7032 -0.6188  0.0958
  104MOL   H28431390   6.573   3.744   4.402  1.5869  0.0638  0.5101
  104MOL   H28531391   6.605   3.662   4.552 -1.1914  1.3383  0.7692
  104MOL   H28631392   6.445   3.669   4.494 -0.5255  0.8857  1.2996
  104MOL   C28731393   6.413   3.309   4.195 -0.0967 -0.6385 -0.2487
  104MOL   C28831394   6.326   3.318   4.324  0.5897  0.6121 -0.4339
  104MOL   C28931395   6.203   3.238   4.304  0.2681 -0.6782  0.6351
  104MOL   C29031396   6.396   3.281   4.458 -0.4664 -0.0339 -0.0012
  104MOL   O29131397   6.377   3.345   4.562 -0.0343  0.4663  0.1999
  104MOL   O29231398   6.470   3.171   4.447 -0.0715 -0.5275  0.3355
  104MOL   C29331399   6.540   3.124   4.561  0.0815  0.1442  0.1999
  104MOL   H29431400   6.444   3.205   4.188  0.4491 -0.5952  1.2120
  104MOL   H29531401   6.352   3.322   4.106 -0.8556  1.7446  0.5742
  104MOL   H29631402   6.145   3.234   4.396  0.1430 -2.0168  0.5142
  104MOL   H29731403   6.135   3.276   4.227  1.3902  1.9790  0.9337
  104MOL   H29831404   6.220   3.133   4.277  1.8862 -0.5613  1.1730
  104MOL   H29931405   6.543   3.015   4.548 -1.5891  0.2979 -1.5981
  104MOL   H30031406   6.483   3.153   4.649  0.3559 -2.1799  1.1849
  104MOL   H30131407   6.639   3.170   4.554 -0.6617  1.3228 -3.1072
  104MOL   H30231408   6.288   3.419   4.338 -0.5205 -0.0093  1.2952
  105MOL     C131409   7.086   3.400   1.843 -0.3570  0.1257 -0.0890
  105MOL     C231410   6.996   3.338   1.732  0.1350 -0.6060 -0.1872
  105MOL     C331411   7.094   3.272   1.641  0.3811 -0.2482  0.3450
  105MOL     C431412   6.909   3.242   1.810  0.2148 -0.0823  0.6748
  105MOL     O531413   6.820   3.281   1.890  0.6727 -0.0245  0.2023
  105MOL     O631414   6.950   3.117   1.804  0.0239 -0.4552 -0.2404
  105MOL     C731415   6.868   3.017   1.854  0.5293 -0.3388 -0.8330
  105MOL     H831416   7.021   3.470   1.895  2.2843  3.0543 -0.6215
  105MOL     H931417   7.121   3.330   1.919 -3.0261 -0.5300  0.5972
  105MOL    H1031418   7.160   3.205   1.694  1.2878 -0.6333 -1.2249
  105MOL    H1131419   7.035   3.220   1.565 -2.2699 -1.6669  3.2526
  105MOL    H1231420   7.159   3.343   1.589  1.4260 -1.9888 -0.7574
  105MOL    H1331421   6.847   3.030   1.961 -2.3696  0.5163 -1.4536
  105MOL    H1431422   6.930   2.930   1.833  0.6310 -0.2312 -0.9789
  105MOL    H1531423   6.772   3.008   1.803  0.0631  0.1835 -0.0728
  105MOL    H1631424   7.177   3.449   1.809  0.5544 -1.2447  0.3461
  105MOL    C1731425   6.910   3.457   1.672 -0.4400  0.2017  0.5110
  105MOL    C1831426   6.803   3.457   1.554 -0.1581  0.4033  0.1648
  105MOL    C1931427   6.893   3.466   1.430 -0.3454  0.2461  0.6206
  105MOL    C2031428   6.719   3.336   1.538  0.1118 -0.2659 -0.1163
  105MOL    O2131429   6.729   3.256   1.443  0.2498  0.0297 -0.9685
  105MOL    O2231430   6.639   3.334   1.645  0.4182 -0.1520  0.0581
  105MOL    C2331431   6.559   3.222   1.661 -0.5261 -0.0347 -0.8950
  105MOL    H2431432   6.988   3.527   1.643  0.4708 -1.3285 -0.8342
  105MOL    H2531433   6.861   3.507   1.755  0.5805 -0.4424  1.5157
  105MOL    H2631434   6.950   3.558   1.432 -1.1597  0.7747 -0.1883
  105MOL    H2731435   6.964   3.385   1.415 -1.4766 -0.5333 -0.7192
  105MOL    H2831436   6.840   3.473   1.335  2.1772  3.1950 -0.6401
  105MOL    H2931437   6.545   3.209   1.768 -0.6097 -0.6931 -0.9811
  105MOL    H3031438   6.612   3.131   1.630  0.2061 -0.0976  0.5172
  105MOL    H3131439   6.464   3.232   1.609  0.0579  1.3065 -1.7415
  105MOL    C3231440   6.722   3.594   1.579  0.3892  0.1719  0.5833
  105MOL    C3331441   6.641   3.667   1.468 -0.0084 -0.6445  0.7537
  105MOL    C3431442   6.561   3.768   1.555 -0.1709 -0.4283  0.1911
  105MOL    C3531443   6.738   3.739   1.364  0.0769 -0.0124 -0.4176
  105MOL    O3631444   6.756   3.696   1.249  0.2510  0.5323 -0.0090
  105MOL    O3731445   6.808   3.839   1.411  0.6821 -0.3435 -0.9499
  105MOL    C3831446   6.868   3.930   1.318 -0.1928  0.9123  0.0645
  105MOL    H3931447   6.796   3.661   1.622 -0.0272  1.8595 -1.2450
  105MOL    H4031448   6.656   3.561   1.659  1.4033  0.7352  1.6667
  105MOL    H4131449   6.492   3.834   1.501 -0.3003 -0.9318 -0.2680
  105MOL    H4231450   6.512   3.721   1.640 -0.3465  0.8428  0.8069
  105MOL    H4331451   6.634   3.837   1.597  1.4782 -1.9128 -0.2022
  105MOL    H4431452   6.794   3.989   1.264  0.6610  0.1533 -1.9475
  105MOL    H4531453   6.946   3.891   1.253  2.5077  1.2117  2.9877
  105MOL    H4631454   6.930   3.993   1.382  0.6300  0.4328 -0.2508
  105MOL    C4731455   6.531   3.566   1.401  0.3490 -0.4173  0.8828
  105MOL    C4831456   6.403   3.612   1.325  0.1417 -0.3386  0.4832
  105MOL    C4931457   6.286   3.619   1.429 -1.0161  0.5258  0.5599
  105MOL    C5031458   6.415   3.757   1.261  0.0748 -0.1951 -0.5109
  105MOL    O5131459   6.364   3.861   1.315  0.6594 -0.1080  0.0419
  105MOL    O5231460   6.485   3.763   1.150 -0.0810  0.0752 -0.2739
  105MOL    C5331461   6.508   3.890   1.085  0.1088  0.7805  0.0106
  105MOL    H5431462   6.505   3.495   1.479 -0.7406 -2.1813 -1.0609
  105MOL    H5531463   6.583   3.513   1.321  0.4739 -0.1823  0.8071
  105MOL    H5631464   6.299   3.691   1.510 -2.9623  1.9938 -0.3955
  105MOL    H5731465   6.194   3.643   1.376 -1.6432 -0.2745  1.2704
  105MOL    H5831466   6.278   3.528   1.489  0.0525 -2.3865 -3.5138
  105MOL    H5931467   6.411   3.928   1.052 -0.1194  0.4163  0.2601
  105MOL    H6031468   6.579   3.876   1.003  0.6023  0.6820  0.4550
  105MOL    H6131469   6.552   3.964   1.151 -0.8936  0.3802  1.1513
  105MOL    C6231470   6.363   3.518   1.207  0.4543 -0.6167 -0.1783
  105MOL    C6331471   6.323   3.365   1.212  0.5771  0.5514  0.2135
  105MOL    C6431472   6.450   3.279   1.257  0.1966  0.1473 -0.2199
  105MOL    C6531473   6.204   3.341   1.309 -0.3606 -0.3308 -0.3218
  105MOL    O6631474   6.206   3.262   1.402  0.3171 -0.7465 -0.6022
  105MOL    O6731475   6.099   3.407   1.280 -0.0825  0.1041  0.0006
  105MOL    C6831476   5.984   3.393   1.355 -0.1361  0.0284 -0.8281
  105MOL    H6931477   6.444   3.522   1.135  0.2655 -1.9217 -0.4731
  105MOL    H7031478   6.282   3.562   1.148  1.9265  1.9395 -0.3649
  105MOL    H7131479   6.466   3.291   1.364  0.0045 -0.0673 -0.1685
  105MOL    H7231480   6.444   3.171   1.250  0.6574 -0.0286  1.7789
  105MOL    H7331481   6.544   3.305   1.207  0.3033  0.7076  0.2653
  105MOL    H7431482   5.898   3.453   1.323  0.2179  1.2628  0.5223
  105MOL    H7531483   6.001   3.417   1.459  0.3501 -4.4913  0.2643
  105MOL    H7631484   5.951   3.288   1.354  0.9738 -0.3414  0.6057
  105MOL    C7731485   6.300   3.318   1.065 -0.0778  0.3207  0.6738
  105MOL    C7831486   6.215   3.192   1.031  0.9346 -0.5333 -0.0610
  105MOL    C7931487   6.259   3.063   1.115 -0.6275  0.4992  0.0665
  105MOL    C8031488   6.063   3.229   1.045 -0.7971  1.2523  0.0221
  105MOL    O8131489   6.022   3.338   1.005  0.2734 -0.4766  0.5602
  105MOL    O8231490   5.991   3.138   1.105  0.0531 -0.0316 -0.6979
  105MOL    C8331491   5.852   3.163   1.130  0.4133 -0.4270  0.5056
  105MOL    H8431492   6.390   3.314   1.004 -1.0855  1.7025 -0.9740
  105MOL    H8531493   6.253   3.399   1.009 -0.3824 -0.2536  0.0923
  105MOL    H8631494   6.226   3.080   1.217 -0.8251  0.3719  0.0228
  105MOL    H8731495   6.214   2.969   1.085 -1.0406  0.9382 -0.7030
  105MOL    H8831496   6.367   3.048   1.104 -1.0562 -0.7540 -3.1356
  105MOL    H8931497   5.816   3.099   1.211 -0.9730  0.9799  1.0489
  105MOL    H9031498   5.795   3.133   1.043 -0.4105  1.2487  0.4322
  105MOL    H9131499   5.831   3.268   1.152  1.3109 -0.0638 -0.3642
  105MOL    C9231500   6.249   3.163   0.878 -0.0225 -0.2996  0.2888
  105MOL    C9331501   6.164   3.082   0.770  0.1317 -0.0368  0.1838
  105MOL    C9431502   6.255   3.048   0.650 -0.0348 -0.6941 -0.2805
  105MOL    C9531503   6.126   2.943   0.838  0.0571  0.7066  1.0095
  105MOL    O9631504   6.009   2.915   0.880 -0.4411  0.4543 -0.0912
  105MOL    O9731505   6.231   2.859   0.860 -0.1110 -0.8153 -0.5268
  105MOL    C9831506   6.214   2.743   0.942 -0.1667 -0.7565 -0.1387
  105MOL    H9931507   6.352   3.126   0.879  0.5207  1.1741  0.5950
  105MOL   H10031508   6.261   3.259   0.829 -1.0152  0.0952  0.8188
  105MOL   H10131509   6.272   3.143   0.599 -1.7616 -1.3300 -2.1299
  105MOL   H10231510   6.351   3.014   0.688  0.3210  1.1616  0.5327
  105MOL   H10331511   6.213   2.978   0.577  0.1740  0.4038 -1.4811
  105MOL   H10431512   6.142   2.759   1.023  0.6606  1.2841  0.2274
  105MOL   H10531513   6.309   2.721   0.990 -1.4964 -1.0652  2.4512
  105MOL   H10631514   6.170   2.661   0.886 -0.5637 -1.4612  1.1620
  105MOL   C10731515   6.037   3.170   0.733 -0.7423 -0.3634 -1.0550
  105MOL   C10831516   5.971   3.171   0.592  0.1901 -0.9403  0.0179
  105MOL   C10931517   6.071   3.213   0.477 -0.2865  0.1423  0.6031
  105MOL   C11031518   5.910   3.038   0.550 -0.0965  0.4323  0.5116
  105MOL   O11131519   5.815   3.033   0.476 -0.6249 -0.0139  0.1880
  105MOL   O11231520   5.962   2.915   0.598  0.1299 -0.4387  0.2045
  105MOL   C11331521   5.902   2.789   0.583  0.2721  0.8371  0.6149
  105MOL   H11431522   6.063   3.275   0.747 -0.5838 -0.5963  0.3998
  105MOL   H11531523   5.967   3.156   0.815 -0.3419 -1.7242 -0.9370
  105MOL   H11631524   6.142   3.290   0.508  1.5026 -1.4779  0.6140
  105MOL   H11731525   6.122   3.133   0.424 -0.9478  0.7953 -1.0818
  105MOL   H11831526   6.015   3.264   0.398  0.3357  2.0807  1.3815
  105MOL   H11931527   5.803   2.801   0.538 -0.0136  0.4481  1.1311
  105MOL   H12031528   5.887   2.734   0.676 -2.6020  1.0279  0.3180
  105MOL   H12131529   5.969   2.728   0.522 -0.8332  1.9820 -1.8463
  105MOL   C12231530   5.857   3.284   0.582  0.3827 -0.6516  0.5682
  105MOL   C12331531   5.731   3.290   0.681 -0.5746 -0.1688 -0.7889
  105MOL   C12431532   5.684   3.153   0.725 -0.1265  0.4226 -0.0251
  105MOL   C12531533   5.761   3.379   0.803 -0.4934  0.2968 -0.4926
  105MOL   O12631534   5.732   3.352   0.917  0.5051 -0.8610  0.2391
  105MOL   O12731535   5.821   3.497   0.765  0.1738  0.3670  0.1148
  105MOL   C12831536   5.845   3.602   0.860 -0.3611  0.0020 -0.7627
  105MOL   H12931537   5.796   3.274   0.492 -0.1407  0.1503  0.8299
  105MOL   H13031538   5.898   3.385   0.574 -1.3443 -0.0678 -1.3208
  105MOL   H13131539   5.597   3.156   0.792  0.7858 -1.4157  1.2995
  105MOL   H13231540   5.648   3.097   0.639 -0.9502  1.5077 -0.4052
  105MOL   H13331541   5.757   3.103   0.788 -0.1864 -0.6469 -0.7994
  105MOL   H13431542   5.753   3.656   0.882 -0.0376  1.1231 -2.0437
  105MOL   H13531543   5.924   3.675   0.839  0.0157  0.2081  1.2476
  105MOL   H13631544   5.894   3.558   0.947  1.7000  0.6834 -1.5535
  105MOL   C13731545   5.613   3.357   0.594 -0.2752  0.8155  0.9324
  105MOL   C13831546   5.475   3.426   0.647 -0.2454 -0.3933 -0.2408
  105MOL   C13931547   5.407   3.329   0.745  0.0948  0.5859  0.2677
  105MOL   C14031548   5.506   3.572   0.704  0.5493  0.5868  0.1820
  105MOL   O14131549   5.537   3.662   0.631  0.6152  0.6871 -0.7393
  105MOL   O14231550   5.492   3.581   0.838  0.5618  0.2406  0.0768
  105MOL   C14331551   5.503   3.706   0.895 -0.0814 -0.5026  0.2450
  105MOL   H14431552   5.581   3.285   0.519  0.1646  1.6278 -0.0394
  105MOL   H14531553   5.666   3.427   0.529  0.4646  0.0032  0.6601
  105MOL   H14631554   5.305   3.362   0.766  0.6717  1.7069  1.3436
  105MOL   H14731555   5.403   3.224   0.716  1.5073  0.5439  0.2065
  105MOL   H14831556   5.458   3.334   0.841  1.9734  1.5385 -0.7460
  105MOL   H14931557   5.413   3.756   0.857 -1.2671 -1.8305  1.2971
  105MOL   H15031558   5.588   3.772   0.878 -1.5143  1.5732  0.9077
  105MOL   H15131559   5.494   3.704   1.003 -2.5501  2.8120  0.2203
  105MOL   C15231560   5.393   3.461   0.514 -0.0319 -1.0398  0.0656
  105MOL   C15331561   5.237   3.477   0.494 -0.6136 -0.2673 -0.0166
  105MOL   C15431562   5.165   3.348   0.526 -0.0687  0.3034  0.5039
  105MOL   C15531563   5.179   3.587   0.591 -0.0191  0.2897 -1.2367
  105MOL   O15631564   5.084   3.562   0.662 -0.3811  0.6186 -0.1317
  105MOL   O15731565   5.232   3.710   0.572 -0.1571  0.1021 -0.0728
  105MOL   C15831566   5.199   3.827   0.647 -0.1359  0.1490  0.1261
  105MOL   H15931567   5.401   3.374   0.449  2.7827  0.6037 -1.9023
  105MOL   H16031568   5.446   3.531   0.450 -0.9906 -0.6734 -0.3310
  105MOL   H16131569   5.164   3.332   0.634  1.0994  2.3580  0.8534
  105MOL   H16231570   5.063   3.337   0.487  0.3981 -0.9121 -0.4106
  105MOL   H16331571   5.213   3.261   0.482 -2.4001  0.2008 -1.9791
  105MOL   H16431572   5.280   3.899   0.657 -0.4089  0.8826 -2.4682
  105MOL   H16531573   5.150   3.809   0.743 -1.6551 -3.4154 -1.2310
  105MOL   H16631574   5.123   3.872   0.583  0.1359  0.4373  0.0025
  105MOL   C16731575   5.201   3.539   0.352 -0.5708 -0.6606  0.2187
  105MOL   C16831576   5.235   3.464   0.212 -0.4552 -0.1212 -0.3910
  105MOL   C16931577   5.379   3.504   0.164 -0.2116 -0.2114  0.3708
  105MOL   C17031578   5.222   3.304   0.220 -0.1673 -0.1680 -0.3940
  105MOL   O17131579   5.323   3.233   0.213 -0.3841  0.0835 -0.3647
  105MOL   O17231580   5.093   3.262   0.240 -0.2011 -0.0694  0.1303
  105MOL   C17331581   5.048   3.126   0.218 -0.1005 -0.2657 -0.0266
  105MOL   H17431582   5.246   3.639   0.347 -2.0669  0.0302  0.4044
  105MOL   H17531583   5.095   3.559   0.359 -1.0469 -2.5426 -1.2116
  105MOL   H17631584   5.444   3.487   0.250 -1.4543  0.4947  1.4769
  105MOL   H17731585   5.413   3.450   0.076  1.6825  1.8030 -0.1926
  105MOL   H17831586   5.377   3.611   0.142  2.6366 -0.3025 -0.4828
  105MOL   H17931587   5.110   3.100   0.133  0.6356 -1.4858  0.8677
  105MOL   H18031588   4.947   3.107   0.180  0.1633  0.2265 -0.9784
  105MOL   H18131589   5.066   3.058   0.301 -0.9351  1.4642  1.6326
  105MOL   C18231590   5.133   3.521   0.112  0.2208  0.1030 -0.3850
  105MOL   C18331591   5.125   3.500   7.833 -0.5919 -0.4932 -0.4312
  105MOL   C18431592   5.125   3.354   7.800  0.1089 -0.6957  0.2523
  105MOL   C18531593   4.988   3.561   7.786  0.6858  0.0922  0.8466
  105MOL   O18631594   4.904   3.497   7.712 -0.1654 -0.6720 -0.1939
  105MOL   O18731595   4.976   3.694   7.823 -0.0971 -0.6777 -0.1159
  105MOL   C18831596   4.881   3.779   7.765  0.1034 -0.0868 -0.3095
  105MOL   H18931597   5.142   3.629   0.128 -1.5954  0.3739 -1.0328
  105MOL   H19031598   5.033   3.498   0.149  0.8665 -0.7103  0.8872
  105MOL   H19131599   5.109   3.329   7.695 -1.4377 -2.6789  0.9248
  105MOL   H19231600   5.221   3.308   7.822  1.5896  2.2447  0.1247
  105MOL   H19331601   5.044   3.310   7.859  0.5246 -2.0089 -0.1415
  105MOL   H19431602   4.901   3.880   7.802 -0.7555  0.5417 -1.5305
  105MOL   H19531603   4.782   3.744   7.795  0.7046  0.0774  1.9335
  105MOL   H19631604   4.867   3.767   7.658  0.2593 -1.9526 -0.1407
  105MOL   C19731605   5.245   3.559   7.755 -1.1497  0.7273 -0.8868
  105MOL   C19831606   5.255   3.607   7.601 -0.2646 -1.2094 -0.7357
  105MOL   C19931607   5.198   3.503   7.508  0.4722  0.0171 -0.5522
  105MOL   C20031608   5.162   3.735   7.578  0.1647 -0.8007  0.5366
  105MOL   O20131609   5.068   3.744   7.496 -0.8741  0.0891  0.1910
  105MOL   O20231610   5.200   3.834   7.654 -0.1044 -0.1932 -0.2031
  105MOL   C20331611   5.134   3.964   7.650 -0.0593  0.5517  0.7409
  105MOL   H20431612   5.321   3.482   7.759 -2.4812 -0.8030 -3.6149
  105MOL   H20531613   5.286   3.633   7.824  0.0776 -0.7672  0.0114
  105MOL   H20631614   5.210   3.529   7.403 -0.6318  1.7055 -0.2834
  105MOL   H20731615   5.240   3.403   7.520 -0.5582 -0.4524 -0.7203
  105MOL   H20831616   5.089   3.491   7.511  0.4691  0.2045  0.0188
  105MOL   H20931617   5.072   3.974   7.739 -0.1380  0.3373  0.7108
  105MOL   H21031618   5.077   3.982   7.560 -0.2486  2.9201  1.2866
  105MOL   H21131619   5.201   4.049   7.667  0.5896  0.4068 -0.9788
  105MOL   C21231620   5.398   3.630   7.544 -0.0301  1.1772  0.1695
  105MOL   C21331621   5.526   3.702   7.608 -0.5296 -0.1298  1.2126
  105MOL   C21431622   5.614   3.712   7.477  0.0554 -0.1975 -0.2429
  105MOL   C21531623   5.490   3.837   7.673 -0.0217 -0.4834 -0.7080
  105MOL   O21631624   5.513   3.939   7.609  0.2058  0.3401 -0.0038
  105MOL   O21731625   5.436   3.836   7.792  0.3030 -0.1890 -0.3461
  105MOL   C21831626   5.414   3.957   7.863  0.5577 -0.0509  0.3536
  105MOL   H21931627   5.379   3.688   7.453 -1.1584  2.2978  1.1026
  105MOL   H22031628   5.446   3.542   7.503  2.1334  1.5978  1.7280
  105MOL   H22131629   5.651   3.613   7.450  1.4569 -0.1347  1.3916
  105MOL   H22231630   5.557   3.768   7.402 -0.9420 -0.1504  0.5314
  105MOL   H22331631   5.704   3.773   7.483  0.2193 -0.3888 -0.8038
  105MOL   H22431632   5.390   4.041   7.798  1.0123 -1.5961 -1.8793
  105MOL   H22531633   5.504   3.985   0.040 -2.1082 -0.2318  5.0922
  105MOL   H22631634   5.337   3.939   0.059 -1.1024  0.5701 -1.1891
  105MOL   C22731635   5.570   3.600   7.721  0.0717  0.0206 -0.0411
  105MOL   C22831636   5.718   3.600   7.782  0.6565  0.2332 -0.1995
  105MOL   C22931637   5.755   3.751   7.819 -0.2381  0.1482 -0.5531
  105MOL   C23031638   5.719   3.515   0.037 -0.1617  0.2375 -0.1895
  105MOL   O23131639   5.711   3.570   0.144 -0.1782 -0.3469 -0.5948
  105MOL   O23231640   5.725   3.381   0.019 -0.3376 -0.4445 -0.6040
  105MOL   C23331641   5.737   3.292   0.125 -0.4030  0.5448  0.5288
  105MOL   H23431642   5.561   3.499   7.681 -1.4992  0.5392 -1.0435
  105MOL   H23531643   5.496   3.604   7.801 -0.2746 -1.5536 -0.2715
  105MOL   H23631644   5.669   3.799   7.866  1.1317  1.2728  0.8551
  105MOL   H23731645   5.833   3.752   0.017 -2.1226 -1.3804  1.4889
  105MOL   H23831646   5.790   3.810   7.734  0.0383  1.5360  0.5186
  105MOL   H23931647   5.827   3.320   0.180 -0.5236  3.0341 -0.5177
  105MOL   H24031648   5.724   3.189   0.090 -0.5151 -0.0598  2.2587
  105MOL   H24131649   5.651   3.300   0.192 -0.7855 -0.6567  0.1971
  105MOL   C24231650   5.827   3.546   7.678  0.1279 -0.0091 -0.0458
  105MOL   C24331651   5.985   3.540   7.686 -0.4811  0.0214  0.8955
  105MOL   C24431652   6.043   3.681   7.674 -0.1245  0.0643 -0.2311
  105MOL   C24531653   6.040   3.483   7.821 -0.2805 -0.1154  0.6745
  105MOL   O24631654   6.108   3.551   0.018  0.1068 -0.0382 -0.7380
  105MOL   O24731655   6.014   3.354   7.838 -0.0025  0.2108 -0.4943
  105MOL   C24831656   6.065   3.292   0.081  0.5623  0.0697 -0.0647
  105MOL   H24931657   5.788   3.575   7.580 -0.8495 -1.4061 -0.0924
  105MOL   H25031658   5.799   3.440   7.676  1.3825 -0.3285 -3.1238
  105MOL   H25131659   5.997   3.723   7.584 -0.9050 -0.1291  0.0740
  105MOL   H25231660   6.021   3.741   7.762  0.5719  2.2248 -1.4899
  105MOL   H25331661   6.150   3.683   7.653  0.5069  0.7895  2.8406
  105MOL   H25431662   6.054   3.361   0.165 -2.9646  0.4494 -0.7744
  105MOL   H25531663   6.169   3.258   0.077  0.6723  0.4027 -0.0876
  105MOL   H25631664   6.010   3.200   0.101  1.1082 -0.2867 -0.1813
  105MOL   C25731665   6.039   3.441   7.570  0.1012 -0.0868  0.4996
  105MOL   C25831666   6.072   3.485   7.420  0.3176 -0.6901  0.0403
  105MOL   C25931667   5.950   3.564   7.351 -0.2566  0.3085 -0.0074
  105MOL   C26031668   6.195   3.575   7.421  0.4187 -1.2485  0.0340
  105MOL   O26131669   6.195   3.684   7.368  0.6623 -0.5326 -0.1547
  105MOL   O26231670   6.298   3.530   7.497 -0.3809 -0.2824 -0.1273
  105MOL   C26331671   6.407   3.615   7.538  0.1717 -0.6166 -0.5730
  105MOL   H26431672   5.969   3.357   7.566  2.5687 -2.2045  0.6946
  105MOL   H26531673   6.128   3.391   7.608  1.6959 -0.2024 -3.2396
  105MOL   H26631674   5.903   3.642   7.411  0.2936  0.9116 -0.3579
  105MOL   H26731675   5.992   3.601   7.258  0.9956 -1.0518  0.0011
  105MOL   H26831676   5.867   3.499   7.324  0.4083 -0.5483 -0.0049
  105MOL   H26931677   6.392   3.721   7.563 -0.5461 -1.1588  1.4218
  105MOL   H27031678   6.488   3.619   7.466 -0.4945  1.9350 -1.2677
  105MOL   H27131679   6.438   3.563   7.629 -0.6557 -0.2859 -0.0943
  105MOL   C27231680   6.106   3.354   7.343  0.0257 -0.5530 -0.3679
  105MOL   C27331681   6.162   3.334   7.196  0.3577  0.1172 -0.3337
  105MOL   C27431682   6.075   3.411   7.083 -0.5826 -0.0086 -0.3405
  105MOL   C27531683   6.311   3.369   7.184 -0.4111 -0.7267 -0.0520
  105MOL   O27631684   6.354   3.436   7.095 -0.3774 -0.2226  0.2897
  105MOL   O27731685   6.381   3.322   7.293  0.3169 -0.6542  0.8972
  105MOL   C27831686   6.519   3.330   7.307  0.4971 -0.4846  0.5429
  105MOL   H27931687   6.019   3.290   7.357  1.3612 -2.2256  0.4215
  105MOL   H28031688   6.174   3.310   7.416  0.8098  2.0267  0.5145
  105MOL   H28131689   6.097   3.518   7.079  0.8364 -0.2961 -0.4027
  105MOL   H28231690   6.096   3.360   6.989 -0.1964 -1.8359  0.7037
  105MOL   H28331691   5.967   3.406   7.093 -0.5844  1.1152  0.2858
  105MOL   H28431692   6.555   3.308   7.407 -2.2017  1.8750  2.1158
  105MOL   H28531693   6.553   3.432   7.290 -0.5665  0.0288  1.4283
  105MOL   H28631694   6.568   3.263   7.236  1.1703  2.3223 -1.7499
  105MOL   C28731695   6.138   3.185   7.168  0.3397  0.6366 -0.1124
  105MOL   C28831696   6.200   3.117   7.038  0.5196  0.1342  0.1664
  105MOL   C28931697   6.319   3.021   7.077  0.0760  0.1779  0.3296
  105MOL   C29031698   6.087   3.046   6.966  0.1849 -0.3385 -0.2799
  105MOL   O29131699   6.090   2.928   6.955  0.3582  0.7002 -0.0982
  105MOL   O29231700   5.983   3.122   6.920  0.0177  0.2139 -0.1589
  105MOL   C29331701   5.868   3.064   6.852 -0.3331 -0.0405 -0.2867
  105MOL   H29431702   6.031   3.177   7.153  0.1769  2.0086  0.2037
  105MOL   H29531703   6.171   3.139   7.261 -1.3498 -0.1899  0.0835
  105MOL   H29631704   6.286   2.919   7.098 -0.0703  0.0788 -0.3669
  105MOL   H29731705   6.398   3.030   7.002  1.0764  0.9454  1.4530
  105MOL   H29831706   6.364   3.062   7.167 -3.3677  0.5487  1.9571
  105MOL   H29931707   5.890   3.014   6.758 -0.0798  0.5779 -0.5591
  105MOL   H30031708   5.798   3.147   6.851  0.0234  0.2906  1.0951
  105MOL   H30131709   5.822   2.991   6.918  1.2397  0.5478  1.5069
  105MOL   H30231710   6.230   3.197   6.971 -1.9002  0.0033 -1.0991
  106MOL     C131711   2.736   7.351   1.546 -0.6809 -0.5345 -0.2962
  106MOL     C231712   2.689   7.375   1.396  0.3398 -0.6838 -0.2514
  106MOL     C331713   2.584   7.267   1.360  0.6583 -0.3124  0.1464
  106MOL     C431714   2.611   7.511   1.389  0.5749  0.2302  0.2028
  106MOL     O531715   2.489   7.522   1.372 -0.5690  0.1705  0.2951
  106MOL     O631716   2.692   7.613   1.389  0.1864  0.2559 -0.6954
  106MOL     C731717   2.635   7.738   1.369 -0.4488  0.1843 -0.1932
  106MOL     H831718   2.823   7.405   1.581  0.0046 -2.6991  1.4680
  106MOL     H931719   2.652   7.382   1.608  0.6356 -1.1626  1.8661
  106MOL    H1031720   2.529   7.284   1.267  0.3288 -0.8569  0.2411
  106MOL    H1131721   2.632   7.170   1.358 -0.3232 -0.7927 -2.1509
  106MOL    H1231722   2.498   7.266   1.428 -0.8360 -0.5410 -1.7131
  106MOL    H1331723   2.720   7.807   1.372 -0.1240 -0.0662 -2.5488
  106MOL    H1431724   2.568   7.760   1.452  0.6650  0.5002  0.6354
  106MOL    H1531725   2.580   7.757   1.277  3.5731  1.2227 -2.5111
  106MOL    H1631726   2.764   7.246   1.560 -1.0728 -0.5089  0.7234
  106MOL    C1731727   2.824   7.373   1.307  0.0181  0.3407  0.0826
  106MOL    C1831728   2.828   7.356   1.147  0.4648  1.2045  0.1926
  106MOL    C1931729   2.797   7.212   1.113  0.2404 -0.1227 -0.1860
  106MOL    C2031730   2.728   7.448   1.070 -0.4508 -0.1575  0.5211
  106MOL    O2131731   2.768   7.553   1.019  0.6066 -0.2043  0.0945
  106MOL    O2231732   2.598   7.406   1.062 -0.0895  0.2600  0.5087
  106MOL    C2331733   2.499   7.479   0.992  0.5980  0.2425 -0.7549
  106MOL    H2431734   2.885   7.291   1.347 -0.7024  1.1246  2.8856
  106MOL    H2531735   2.895   7.453   1.327  1.0917 -0.6801  0.4089
  106MOL    H2631736   2.690   7.196   1.097  0.5832 -0.2075 -2.4789
  106MOL    H2731737   2.852   7.177   1.026  1.5023  0.9579  0.1527
  106MOL    H2831738   2.818   7.143   1.196  0.0505 -0.7715 -0.6710
  106MOL    H2931739   2.534   7.491   0.889 -4.2400 -0.6676 -2.6170
  106MOL    H3031740   2.485   7.578   1.035  0.7388  0.3585 -0.9750
  106MOL    H3131741   2.398   7.441   0.980  0.4766  0.0074  0.8960
  106MOL    C3231742   2.977   7.372   1.088  0.6028  0.5055  0.1080
  106MOL    C3331743   3.077   7.487   1.136  0.5742  0.1903 -0.3400
  106MOL    C3431744   3.016   7.624   1.140  0.9095 -0.7329 -0.2960
  106MOL    C3531745   3.144   7.455   1.275 -0.0654  0.5118  0.1338
  106MOL    O3631746   3.124   7.352   1.340  0.1073 -0.4844 -0.2848
  106MOL    O3731747   3.215   7.563   1.313 -0.1271  0.1615 -0.4263
  106MOL    C3831748   3.258   7.566   1.450  0.0958  0.0617 -0.5292
  106MOL    H3931749   2.967   7.381   0.980  0.4636  0.7489  0.1404
  106MOL    H4031750   3.031   7.282   1.117  0.6169  1.0296  1.7774
  106MOL    H4131751   2.932   7.637   1.209  0.9465  0.7811 -0.5182
  106MOL    H4231752   3.079   7.705   1.178 -0.3205 -0.8179  2.0544
  106MOL    H4331753   2.977   7.660   1.045  0.3279  1.0733  0.5991
  106MOL    H4431754   3.267   7.673   1.464  1.2154 -0.0699 -0.1730
  106MOL    H4531755   3.354   7.518   1.472  0.0655  0.4091  0.3924
  106MOL    H4631756   3.190   7.522   1.523 -0.9797  2.4400 -0.0549
  106MOL    C4731757   3.192   7.499   1.026  0.0463 -0.3565  0.0096
  106MOL    C4831758   3.285   7.371   0.975 -0.6747 -0.5791 -0.8180
  106MOL    C4931759   3.209   7.294   0.865  0.5334 -0.2422 -1.2657
  106MOL    C5031760   3.411   7.441   0.912 -0.2030 -0.0749 -0.3603
  106MOL    O5131761   3.432   7.455   0.787  0.2086 -0.4096  0.1979
  106MOL    O5231762   3.494   7.492   1.007 -0.1958 -0.3947  0.1768
  106MOL    C5331763   3.603   7.573   0.975  0.3899  0.2760  0.5782
  106MOL    H5431764   3.260   7.576   1.063 -2.4381  0.4274  3.1831
  106MOL    H5531765   3.143   7.548   0.942 -0.9475  1.4621  1.6088
  106MOL    H5631766   3.281   7.240   0.804  0.7616 -0.5507 -0.7206
  106MOL    H5731767   3.135   7.227   0.908 -1.1804  2.9199  0.9096
  106MOL    H5831768   3.148   7.353   0.797 -1.8127 -0.7013  0.3865
  106MOL    H5931769   3.664   7.583   1.065 -0.4180  0.2277  1.1330
  106MOL    H6031770   3.565   7.673   0.955  1.7408  0.9335  1.2025
  106MOL    H6131771   3.663   7.518   0.903 -1.1491  0.9949 -1.3086
  106MOL    C6231772   3.332   7.285   1.104 -0.2105  0.2415  0.1896
  106MOL    C6331773   3.426   7.160   1.089  0.4642  0.3168 -0.5733
  106MOL    C6431774   3.340   7.047   1.027 -0.2109  0.0281  0.5357
  106MOL    C6531775   3.559   7.183   1.013  0.8114  0.0030  0.0232
  106MOL    O6631776   3.581   7.134   0.904  0.4173  0.5658  0.7445
  106MOL    O6731777   3.650   7.242   1.097 -0.4656  0.5384 -0.4678
  106MOL    C6831778   3.773   7.279   1.044 -0.2415  0.3263 -0.2361
  106MOL    H6931779   3.242   7.243   1.149  0.5324 -0.6417  0.8625
  106MOL    H7031780   3.370   7.352   1.181  0.9049  0.1555 -0.2798
  106MOL    H7131781   3.252   7.026   1.088 -2.2794  0.7367 -2.0985
  106MOL    H7231782   3.302   7.069   0.927 -0.5221 -1.6778  0.2563
  106MOL    H7331783   3.402   6.957   1.022 -1.8600 -1.2166  1.8620
  106MOL    H7431784   3.765   7.355   0.966  0.9934 -0.9517 -1.6265
  106MOL    H7531785   3.822   7.192   1.001 -0.9604  1.2559 -3.0589
  106MOL    H7631786   3.830   7.334   1.119 -0.6058  1.9260 -1.1144
  106MOL    C7731787   3.461   7.113   1.233  0.0421  0.0604  0.3776
  106MOL    C7831788   3.501   6.970   1.283  0.4765 -0.0181  0.3485
  106MOL    C7931789   3.379   6.869   1.303 -0.0503  0.5121 -0.5538
  106MOL    C8031790   3.597   6.895   1.185  0.1377  0.0187  0.6499
  106MOL    O8131791   3.578   6.782   1.135 -0.1979  0.1535 -0.1169
  106MOL    O8231792   3.706   6.962   1.159 -0.1128 -0.0122  0.0052
  106MOL    C8331793   3.795   6.914   1.061  0.0200  0.7435  0.1882
  106MOL    H8431794   3.361   7.116   1.279  0.2069  0.6576  0.7050
  106MOL    H8531795   3.520   7.191   1.280 -0.0583  1.0637 -1.1462
  106MOL    H8631796   3.291   6.914   1.349  1.7165  1.4707  1.9912
  106MOL    H8731797   3.337   6.834   1.208 -2.0471  3.2231 -0.7366
  106MOL    H8831798   3.411   6.774   1.345 -1.3343  0.9355  1.4186
  106MOL    H8931799   3.892   6.964   1.067 -1.0854  2.9657  0.4060
  106MOL    H9031800   3.735   6.951   0.978  1.6438  1.1364 -0.8308
  106MOL    H9131801   3.796   6.806   1.067  2.4039  0.5989 -2.2362
  106MOL    C9231802   3.574   6.984   1.426 -0.5505 -0.2077 -0.4806
  106MOL    C9331803   3.497   7.026   1.561  0.6700 -0.4644 -0.0418
  106MOL    C9431804   3.395   7.142   1.552 -0.6061 -0.0640 -0.1770
  106MOL    C9531805   3.431   6.902   1.619  0.0963 -0.0276 -0.6291
  106MOL    O9631806   3.492   6.814   1.681 -0.0894  0.1222  0.0569
  106MOL    O9731807   3.298   6.900   1.607 -0.1625  0.8312  0.0649
  106MOL    C9831808   3.221   6.787   1.653 -1.1730 -0.1689  0.2593
  106MOL    H9931809   3.667   7.040   1.414 -0.7577  0.6869  1.9611
  106MOL   H10031810   3.624   6.889   1.443 -1.5177 -0.8704 -1.2635
  106MOL   H10131811   3.357   7.175   1.649 -0.4983 -0.7492  0.0960
  106MOL   H10231812   3.436   7.236   1.513  2.9846 -1.9501 -1.1774
  106MOL   H10331813   3.304   7.124   1.494  0.0569  0.0709 -1.2715
  106MOL   H10431814   3.211   6.780   1.761  4.0518  1.0822  1.0082
  106MOL   H10531815   3.263   6.694   1.615  1.1674  1.3410 -1.0421
  106MOL   H10631816   3.131   6.799   1.593 -0.1223 -1.3171 -1.5987
  106MOL   C10731817   3.616   7.059   1.658  0.2771 -0.4730  0.0596
  106MOL   C10831818   3.693   7.197   1.675 -0.0340  0.0444 -0.3722
  106MOL   C10931819   3.749   7.250   1.539  0.1858  0.2850  0.3697
  106MOL   C11031820   3.598   7.306   1.733  0.0446 -0.5044 -0.2245
  106MOL   O11131821   3.576   7.411   1.670  0.1298 -0.7092  0.2803
  106MOL   O11231822   3.543   7.282   1.858  0.2948  0.8636  0.1767
  106MOL   C11331823   3.471   7.383   1.926 -0.9009 -0.7618  0.0534
  106MOL   H11431824   3.690   6.979   1.646  0.0866 -0.3946 -1.8869
  106MOL   H11531825   3.576   7.037   1.757  0.4169  0.3906  0.3128
  106MOL   H11631826   3.674   7.265   1.462  0.5621 -1.7690 -0.4508
  106MOL   H11731827   3.806   7.342   1.552  1.8122 -0.9357  2.2451
  106MOL   H11831828   3.814   7.171   1.501 -0.2128 -0.1414  0.5725
  106MOL   H11931829   3.523   7.477   1.908 -0.4142 -1.0574 -0.1195
  106MOL   H12031830   3.462   7.348   2.028  1.6092 -0.3475  0.4561
  106MOL   H12131831   3.370   7.385   1.884 -0.5306 -0.3824 -0.8504
  106MOL   C12231832   3.813   7.165   1.773  0.3673 -0.5768 -0.6625
  106MOL   C12331833   3.938   7.262   1.803 -0.1378 -0.1648  0.0710
  106MOL   C12431834   3.998   7.200   1.932  0.0420  0.6699  0.2892
  106MOL   C12531835   4.045   7.248   1.694 -0.4908 -0.0718 -0.3554
  106MOL   O12631836   4.054   7.333   1.605  0.6245 -0.1717  0.1308
  106MOL   O12731837   4.107   7.136   1.695 -0.1165 -0.1706  0.4967
  106MOL   C12831838   4.222   7.117   1.618 -0.2495  0.0566 -0.5085
  106MOL   H12931839   3.859   7.070   1.745  0.3190 -0.1681 -2.2224
  106MOL   H13031840   3.757   7.135   1.861  0.3938  0.2166 -0.3750
  106MOL   H13131841   4.033   7.098   1.916 -0.8191  0.2569  1.0478
  106MOL   H13231842   4.090   7.254   1.956  1.2056 -1.0375 -0.2242
  106MOL   H13331843   3.915   7.190   2.001 -1.0475 -1.2809 -1.2503
  106MOL   H13431844   4.290   7.201   1.629 -0.6344  0.4985 -1.4320
  106MOL   H13531845   4.182   7.113   1.517 -3.5446  0.1864  0.7254
  106MOL   H13631846   4.278   7.030   1.653 -0.5955  0.5393  1.2550
  106MOL   C13731847   3.893   7.412   1.829 -0.1947 -0.6374  0.8479
  106MOL   C13831848   3.968   7.524   1.911  0.0505  0.4241  0.0449
  106MOL   C13931849   3.883   7.653   1.902  0.6462 -0.6334 -0.5741
  106MOL   C14031850   3.962   7.482   2.063 -0.1693  0.3742 -0.9054
  106MOL   O14131851   4.068   7.458   2.127 -0.0965  0.0381  0.4513
  106MOL   O14231852   3.840   7.457   2.112 -0.2004  0.3978 -0.1170
  106MOL   C14331853   3.836   7.381   2.230 -0.2996 -0.0493 -1.2567
  106MOL   H14431854   3.793   7.398   1.869 -0.3856  1.4991  1.1918
  106MOL   H14531855   3.873   7.457   1.732  1.9834  2.6432  1.8028
  106MOL   H14631856   3.868   7.695   1.802  0.2797 -1.5215 -0.9014
  106MOL   H14731857   3.777   7.638   1.923  0.4591  1.6824  0.1599
  106MOL   H14831858   3.910   7.731   1.972 -1.7624 -0.4449  0.1889
  106MOL   H14931859   3.729   7.364   2.241  0.2710 -1.0027  3.9512
  106MOL   H15031860   3.849   7.436   2.322  0.1165  2.2259 -2.6409
  106MOL   H15131861   3.907   7.299   2.233 -1.4473 -1.0066  1.6343
  106MOL   C15231862   4.115   7.549   1.852 -0.4832 -0.4148 -0.4900
  106MOL   C15331863   4.177   7.679   1.786 -0.2977 -0.4371 -0.1297
  106MOL   C15431864   4.107   7.709   1.652 -0.0287  0.2768  0.0552
  106MOL   C15531865   4.169   7.797   1.883  0.2850  0.0274  0.9395
  106MOL   O15631866   4.144   7.786   1.998  0.3204 -0.8409 -0.2644
  106MOL   O15731867   4.201   0.038   1.832 -0.7229  0.9333  0.7707
  106MOL   C15831868   4.206   0.156   1.910 -0.4453  0.8658 -0.4439
  106MOL   H15931869   4.135   7.463   1.787  0.4139 -0.2663 -0.4182
  106MOL   H16031870   4.179   7.532   1.939 -0.3429  0.8497 -0.3401
  106MOL   H16131871   4.064   7.626   1.596 -0.4028 -0.7466  1.7934
  106MOL   H16231872   4.026   7.782   1.662  0.7721  1.3533 -1.2127
  106MOL   H16331873   4.177   7.759   1.585  0.2105 -4.7378 -3.7376
  106MOL   H16431874   4.234   0.242   1.849  2.2653  0.1922 -0.2025
  106MOL   H16531875   4.290   0.158   1.979 -0.1510  0.3619 -0.7874
  106MOL   H16631876   4.111   0.178   1.959 -0.8940  1.7094 -1.6831
  106MOL   C16731877   4.334   7.651   1.737  0.0941 -0.1597 -0.3326
  106MOL   C16831878   4.450   7.602   1.834  0.2983  0.3890 -0.2037
  106MOL   C16931879   4.441   7.664   1.976 -0.0516  0.1951  0.1764
  106MOL   C17031880   4.448   7.443   1.851 -0.9132  0.0949 -0.2738
  106MOL   O17131881   4.363   7.369   1.802  0.7003  0.0530 -0.1589
  106MOL   O17231882   4.533   7.396   1.938  0.5987  0.8615  0.1889
  106MOL   C17331883   4.557   7.258   1.945  0.1168  0.2883 -0.8495
  106MOL   H17431884   4.374   7.746   1.700  0.2673  0.3204  1.0597
  106MOL   H17531885   4.337   7.585   1.650  1.0623  0.8265 -1.0655
  106MOL   H17631886   4.438   7.772   1.958 -2.2119 -0.2271 -2.4669
  106MOL   H17731887   4.348   7.634   2.025  0.1983  1.9003  1.7675
  106MOL   H17831888   4.509   7.638   2.057  1.0092  0.9852 -0.4504
  106MOL   H17931889   4.608   7.224   1.855 -0.2301 -0.9598 -0.5867
  106MOL   H18031890   4.474   7.193   1.975  0.0351  0.7521 -0.0658
  106MOL   H18131891   4.615   7.233   2.034 -1.6484  0.6801  0.4231
  106MOL   C18231892   4.589   7.651   1.784 -0.2994 -0.3848  0.2665
  106MOL   C18331893   4.652   7.614   1.642  0.3872  0.2671 -0.4749
  106MOL   C18431894   4.618   7.470   1.592 -0.0670 -0.2059  0.1710
  106MOL   C18531895   4.592   7.723   1.541 -0.0131  0.2496 -0.3975
  106MOL   O18631896   4.526   7.689   1.443  0.6368 -0.1727 -1.1120
  106MOL   O18731897   4.606   7.845   1.586 -0.2660 -0.2615  0.1182
  106MOL   C18831898   4.564   0.076   1.506 -0.3504  0.4243 -0.2378
  106MOL   H18931899   4.665   7.608   1.850 -1.2475  0.2128  1.7627
  106MOL   H19031900   4.597   7.757   1.806  0.3356 -0.6078  1.1276
  106MOL   H19131901   4.512   7.444   1.594 -0.2032 -0.0779 -3.1491
  106MOL   H19231902   4.629   7.461   1.484  3.7665  3.0276  0.1854
  106MOL   H19331903   4.666   7.382   1.635 -0.4945 -0.5886 -0.1294
  106MOL   H19431904   4.586   0.169   1.559  1.5130  0.1092 -0.4573
  106MOL   H19531905   4.456   0.075   1.492 -0.2661 -0.2199 -0.8169
  106MOL   H19631906   4.617   0.070   1.412  0.9728  0.2693  0.5139
  106MOL   C19731907   4.809   7.638   1.655  0.4787 -0.7576 -0.6322
  106MOL   C19831908   4.915   7.661   1.540 -0.3886  0.1156 -0.0586
  106MOL   C19931909   4.879   7.571   1.411  0.1599 -0.7746 -0.1583
  106MOL   C20031910   4.932   7.806   1.496 -0.2728 -0.9512 -0.8267
  106MOL   O20131911   4.893   0.020   1.572 -0.3949 -0.1056  0.0917
  106MOL   O20231912   4.991   7.826   1.376  0.5424  0.3845 -0.5418
  106MOL   C20331913   5.020   0.082   1.340 -0.5840  0.3306 -0.2425
  106MOL   H20431914   4.844   7.546   1.701 -0.5356 -1.2521 -0.8640
  106MOL   H20531915   4.825   7.718   1.728 -1.5962  0.9283 -1.9527
  106MOL   H20631916   4.774   7.589   1.386  0.8719  1.0280 -2.0457
  106MOL   H20731917   4.935   7.599   1.322 -0.2603 -2.0297 -0.8243
  106MOL   H20831918   4.886   7.463   1.425 -1.1402 -0.8286  0.2041
  106MOL   H20931919   5.043   0.071   1.235 -1.1113  1.0980 -0.4414
  106MOL   H21031920   5.110   0.124   1.386 -0.1595 -1.5299  0.6571
  106MOL   H21131921   4.935   0.148   1.356 -1.5349 -0.9080 -0.1513
  106MOL   C21231922   5.060   7.620   1.576  0.0586 -0.5405  0.2927
  106MOL   C21331923   5.159   7.660   1.698  0.5269  0.0599  0.4168
  106MOL   C21431924   5.198   7.814   1.675  0.6282  0.5932  0.3889
  106MOL   C21531925   5.080   7.652   1.835  0.5908  0.0747 -0.2005
  106MOL   O21631926   5.084   7.744   1.920 -0.1981  0.0399  0.4910
  106MOL   O21731927   5.024   7.534   1.851  0.1377 -0.0902 -0.3511
  106MOL   C21831928   4.966   7.498   1.971  0.2618  0.0971  0.5349
  106MOL   H21931929   5.117   7.620   1.483 -1.9730  2.5508 -1.0420
  106MOL   H22031930   5.049   7.512   1.592 -1.2764 -0.5862 -0.8294
  106MOL   H22131931   5.238   7.828   1.575  1.7913  0.3647  0.8132
  106MOL   H22231932   5.117   0.009   1.690  0.8590  1.0425 -0.4972
  106MOL   H22331933   5.267   7.843   1.754  0.0769  1.1936  0.6659
  106MOL   H22431934   4.864   7.534   1.963  0.6457  0.7096 -1.7991
  106MOL   H22531935   5.017   7.535   2.060  1.7752  0.5727 -0.5102
  106MOL   H22631936   4.958   7.390   1.982 -0.6997 -0.0462 -1.4097
  106MOL   C22731937   5.279   7.562   1.682  0.6320 -0.1744  0.5024
  106MOL   C22831938   5.387   7.535   1.792  1.3064 -0.0705  0.2772
  106MOL   C22931939   5.433   7.674   1.848  0.4526  0.4186 -0.4438
  106MOL   C23031940   5.330   7.457   1.917 -0.3352 -0.2714  0.2718
  106MOL   O23131941   5.337   7.501   2.034 -0.1687  0.5153 -0.0408
  106MOL   O23231942   5.274   7.337   1.879  0.2569  0.2509  0.0672
  106MOL   C23331943   5.255   7.242   1.988  0.2216  0.2225  0.0996
  106MOL   H23431944   5.331   7.609   1.599  0.2098 -3.3404 -1.6326
  106MOL   H23531945   5.249   7.463   1.647  0.9494  1.1509 -3.7505
  106MOL   H23631946   5.352   7.729   1.895  0.1646  0.8829 -1.4628
  106MOL   H23731947   5.524   7.663   1.907  0.6375  3.8907  0.0234
  106MOL   H23831948   5.472   7.729   1.761  1.7479  1.0070  0.4888
  106MOL   H23931949   5.149   7.218   1.993  0.1079  0.4118 -1.3498
  106MOL   H24031950   5.277   7.278   2.088 -0.0120  2.1009 -0.5198
  106MOL   H24131951   5.306   7.147   1.972 -2.2134 -1.4210  1.7670
  106MOL   C24231952   5.508   7.470   1.717  0.2650  0.2097  0.1114
  106MOL   C24331953   5.609   7.369   1.776 -0.5114  0.1370  0.5362
  106MOL   C24431954   5.655   7.420   1.919  0.3326  0.2243  0.6705
  106MOL   C24531955   5.556   7.229   1.788  0.4357  0.1180  0.2567
  106MOL   O24631956   5.459   7.190   1.723 -0.0342 -0.6908  0.2810
  106MOL   O24731957   5.632   7.150   1.869  0.3261  0.4636 -0.0192
  106MOL   C24831958   5.607   7.015   1.874 -0.0703 -0.3534  0.2902
  106MOL   H24931959   5.556   7.554   1.666 -1.4476  0.9047 -0.3668
  106MOL   H25031960   5.476   7.427   1.622 -0.9287 -0.2170  0.6987
  106MOL   H25131961   5.581   7.421   1.999 -0.9159  0.0060 -0.4718
  106MOL   H25231962   5.747   7.375   1.956  1.1384 -1.2953 -2.9473
  106MOL   H25331963   5.690   7.522   1.904  0.5102  0.2607  1.3226
  106MOL   H25431964   5.542   7.006   1.961 -0.1551 -1.0719  0.1533
  106MOL   H25531965   5.701   6.964   1.894  0.1155  0.3667  1.2608
  106MOL   H25631966   5.549   6.960   1.800  0.5068 -1.4253  0.6245
  106MOL   C25731967   5.741   7.357   1.693 -0.0095 -0.0035 -0.6200
  106MOL   C25831968   5.757   7.342   1.540  0.4702  0.1610  0.0988
  106MOL   C25931969   5.672   7.214   1.492  0.6877 -0.1716  0.1135
  106MOL   C26031970   5.720   7.462   1.455  0.4615 -0.6376  0.2681
  106MOL   O26131971   5.663   7.450   1.346 -0.3184  0.6692  0.3873
  106MOL   O26231972   5.753   7.576   1.511 -0.4151 -0.4944  0.2803
  106MOL   C26331973   5.713   7.696   1.448  0.8444  0.5196  0.0624
  106MOL   H26431974   5.793   7.270   1.732 -0.7764  0.2929  1.1227
  106MOL   H26531975   5.801   7.442   1.726  2.3767 -1.7522 -0.3381
  106MOL   H26631976   5.707   7.182   1.394  0.1614  0.3998 -0.2625
  106MOL   H26731977   5.661   7.127   1.556 -1.5379 -0.0749 -0.1128
  106MOL   H26831978   5.574   7.255   1.470  1.5858  0.1757 -3.6504
  106MOL   H26931979   5.615   7.696   1.401  1.4998 -0.7085 -1.3582
  106MOL   H27031980   5.796   7.723   1.382  0.3007 -1.5440 -1.5373
  106MOL   H27131981   5.705   7.766   1.531  1.6410  1.7722 -0.8959
  106MOL   C27231982   5.906   7.286   1.500  0.0983  0.2613  0.1186
  106MOL   C27331983   6.042   7.370   1.511  0.0117  0.2603  0.1533
  106MOL   C27431984   6.038   7.486   1.401 -0.1347 -0.5040 -0.0082
  106MOL   C27531985   6.049   7.422   1.657  0.4057 -0.6466 -0.6599
  106MOL   O27631986   6.022   7.544   1.682 -0.6915 -0.1130  0.3020
  106MOL   O27731987   6.085   7.338   1.750  0.0459  0.4019 -0.0795
  106MOL   C27831988   6.083   7.378   1.889 -0.8824  0.4830  0.5029
  106MOL   H27931989   5.900   7.255   1.396 -0.1941  1.2118 -0.1609
  106MOL   H28031990   5.913   7.191   1.552  0.3086  0.3448  0.2471
  106MOL   H28131991   6.137   7.533   1.400 -1.0604  1.6188  2.1746
  106MOL   H28231992   6.015   7.450   1.301 -1.4278  2.5169 -0.8523
  106MOL   H28331993   5.970   7.568   1.424 -1.4236 -0.9803 -2.0290
  106MOL   H28431994   6.131   7.472   1.915  1.1807 -1.1357  2.7617
  106MOL   H28531995   6.120   7.291   1.943 -0.1114 -0.8007 -1.9853
  106MOL   H28631996   5.979   7.396   1.915 -0.4685  1.8865  1.2375
  106MOL   C28731997   6.161   7.273   1.487  0.5856  0.2836  0.1447
  106MOL   C28831998   6.299   7.330   1.497  0.3050 -0.7141 -0.3307
  106MOL   C28931999   6.363   7.290   1.632 -0.0044  0.3791 -0.2976
  106MOL   C29032000   6.392   7.318   1.372  0.4049  0.1756 -0.5342
  106MOL   O29132001   6.382   7.227   1.290  0.2079 -0.0305 -0.0731
  106MOL   O29232002   6.487   7.406   1.372 -0.1270 -0.2278  0.5564
  106MOL   C29332003   6.598   7.409   1.278 -0.1591 -0.1447  0.1375
  106MOL   H29432004   6.144   7.234   1.387 -2.7022 -1.4365  1.2698
  106MOL   H29532005   6.164   7.188   1.556  1.2484  1.0594  1.0719
  106MOL   H29632006   6.336   7.187   1.657 -2.5842  0.6368 -1.8764
  106MOL   H29732007   6.471   7.299   1.642 -0.3421  1.7113  2.7954
  106MOL   H29832008   6.332   7.361   1.708  1.7973 -0.0079  0.8393
  106MOL   H29932009   6.629   7.307   1.256 -1.6140 -0.5425 -0.1619
  106MOL   H30032010   6.686   7.459   1.318  0.8413 -0.8819 -1.1360
  106MOL   H30132011   6.567   7.454   1.184  0.3876  0.3486  0.1898
  106MOL   H30232012   6.289   7.437   1.514  2.5637 -0.8323  2.0194
  107MOL     C132013   1.010   7.378   3.939  0.0224  0.4763  0.4023
  107MOL     C232014   1.013   7.220   3.957  0.4014  0.5281  0.2163
  107MOL     C332015   1.054   7.151   3.820 -0.5538 -0.0161 -0.8694
  107MOL     C432016   1.137   7.178   4.060  0.5343 -0.0616  0.4565
  107MOL     O532017   1.234   7.250   4.068 -0.0920 -0.5763  0.7566
  107MOL     O632018   1.131   7.055   4.115 -0.1701  0.3819  0.4363
  107MOL     C732019   1.237   7.014   4.201  0.3211  0.1448  0.2644
  107MOL     H832020   1.020   7.427   4.035 -0.5945  0.6285  0.3878
  107MOL     H932021   1.091   7.414   3.875  0.1071 -1.5766 -0.7254
  107MOL    H1032022   1.103   7.055   3.838  0.6000 -0.1194 -4.1333
  107MOL    H1132023   0.970   7.132   3.754 -0.0020  1.6932 -2.1088
  107MOL    H1232024   1.129   7.214   3.771 -1.8248  0.9361 -1.6186
  107MOL    H1332025   1.238   6.905   4.198  0.5993  0.1629 -0.4867
  107MOL    H1432026   1.216   7.046   4.303 -0.1369 -1.8045  0.7954
  107MOL    H1532027   1.330   7.056   4.164  0.2995  1.1009  1.2779
  107MOL    H1632028   0.917   7.420   3.901 -0.7457 -1.0240  0.5620
  107MOL    C1732029   0.877   7.166   4.010  0.1005  0.1128 -0.4531
  107MOL    C1832030   0.795   7.217   4.132  0.5365 -0.2032 -0.2767
  107MOL    C1932031   0.884   7.245   4.254 -0.1450 -0.5621 -0.6258
  107MOL    C2032032   0.722   7.350   4.094 -0.3591 -1.1997 -0.7642
  107MOL    O2132033   0.733   7.456   4.168 -0.7655 -0.4099 -0.2900
  107MOL    O2232034   0.653   7.335   3.983 -0.4671 -0.7321  0.1109
  107MOL    C2332035   0.563   7.437   3.937 -0.1875 -0.4276  0.1038
  107MOL    H2432036   0.887   7.057   4.014  0.4626  0.0195 -2.8853
  107MOL    H2532037   0.817   7.176   3.919  0.6295  0.4664 -0.7641
  107MOL    H2632038   0.920   7.150   4.294  0.9828 -0.4678 -1.4078
  107MOL    H2732039   0.978   7.291   4.225  0.5591 -0.5179  1.5939
  107MOL    H2832040   0.840   7.310   4.330 -0.7367  1.2898 -2.5173
  107MOL    H2932041   0.628   7.504   3.881 -0.4932 -0.0875  0.1489
  107MOL    H3032042   0.507   7.490   4.014  0.1374  2.1733 -1.3634
  107MOL    H3132043   0.497   7.399   3.858 -1.4629  1.8036  0.0561
  107MOL    C3232044   0.690   7.103   4.161  0.1959 -0.3686  0.1573
  107MOL    C3332045   0.597   7.102   4.289 -0.0828  0.5700 -0.2634
  107MOL    C3432046   0.540   7.251   4.306  0.5590  0.1265  0.6654
  107MOL    C3532047   0.475   7.006   4.271  0.1565  0.0968  0.1691
  107MOL    O3632048   0.366   7.025   4.330  0.2971  0.8614  0.2542
  107MOL    O3732049   0.509   6.909   4.192  0.0475 -0.1128  0.5542
  107MOL    C3832050   0.422   6.800   4.175  0.2748 -0.6606 -0.6520
  107MOL    H3932051   0.741   7.007   4.161  3.2336  1.2038  1.5404
  107MOL    H4032052   0.628   7.096   4.071  3.0826 -1.6029 -1.8233
  107MOL    H4132053   0.457   7.262   4.376 -1.4960 -0.1428 -1.6444
  107MOL    H4232054   0.622   7.313   4.342  0.4893  0.3930  0.3651
  107MOL    H4332055   0.500   7.293   4.214  0.3497 -0.5936  0.4241
  107MOL    H4432056   0.329   6.852   4.152 -0.1199 -1.2249 -0.3340
  107MOL    H4532057   0.421   6.742   4.267 -0.1218 -0.8771 -0.7937
  107MOL    H4632058   0.458   6.738   4.093 -1.6503 -1.2443 -1.0834
  107MOL    C4732059   0.677   7.074   4.425 -0.5740 -0.2257  0.1945
  107MOL    C4832060   0.627   7.050   4.572 -0.1624  0.2857 -0.1817
  107MOL    C4932061   0.514   7.147   4.606  0.4529  0.5242 -0.3935
  107MOL    C5032062   0.578   6.904   4.588  0.1528  0.0575 -0.3844
  107MOL    O5132063   0.577   6.823   4.496 -0.0896 -0.3143  0.2194
  107MOL    O5232064   0.539   6.878   4.712  0.0400  0.3106 -0.0651
  107MOL    C5332065   0.523   6.738   4.741  0.6577 -0.0237  0.5370
  107MOL    H5432066   0.764   7.137   4.438 -0.7148 -0.1576  0.8169
  107MOL    H5532067   0.738   6.991   4.389 -0.1729  0.8093 -1.5694
  107MOL    H5632068   0.499   7.138   4.713  2.8163  0.9523  0.0000
  107MOL    H5732069   0.540   7.251   4.586  1.7448  0.0274 -1.3887
  107MOL    H5832070   0.420   7.119   4.560 -1.2996  1.9627  2.1951
  107MOL    H5932071   0.510   6.734   4.849 -0.0177  0.5223  0.4784
  107MOL    H6032072   0.617   6.690   4.712  0.8052  0.2923  0.4909
  107MOL    H6132073   0.447   6.690   4.679 -0.6230  2.8491 -0.1871
  107MOL    C6232074   0.743   7.068   4.678  0.0949 -0.3881 -0.9526
  107MOL    C6332075   0.889   7.001   4.670  0.2621 -0.0761 -0.3646
  107MOL    C6432076   0.890   6.850   4.614 -0.0716 -1.0541  0.5046
  107MOL    C6532077   0.993   7.086   4.588  0.7379  0.3276 -0.0538
  107MOL    O6632078   1.063   7.033   4.508 -0.4942 -0.0002  0.3324
  107MOL    O6732079   0.989   7.217   4.612  0.2762  0.1079  0.7490
  107MOL    C6832080   1.098   7.296   4.563 -0.7831  0.3828 -0.1374
  107MOL    H6932081   0.701   7.061   4.778 -1.2203 -0.7058 -1.5166
  107MOL    H7032082   0.760   7.176   4.675  1.1057 -0.4759  1.1644
  107MOL    H7132083   0.989   6.809   4.593  0.1331 -0.8575  1.0801
  107MOL    H7232084   0.845   6.778   4.683  0.0224 -2.4285 -0.8353
  107MOL    H7332085   0.833   6.845   4.522  1.0693 -0.9630 -0.2134
  107MOL    H7432086   1.186   7.235   4.543 -1.5953 -1.2607  1.2459
  107MOL    H7532087   1.121   7.366   4.644  3.1597 -0.2732 -0.5894
  107MOL    H7632088   1.069   7.351   4.473 -0.4214  1.0270  0.1294
  107MOL    C7732089   0.942   6.996   4.825 -0.6733  0.0177  0.0824
  107MOL    C7832090   1.090   6.960   4.870  0.3503 -0.2132  0.7996
  107MOL    C7932091   1.143   6.839   4.792 -0.3393  0.1048 -0.0212
  107MOL    C8032092   1.188   7.081   4.853 -0.6941 -0.3424 -0.3580
  107MOL    O8132093   1.150   7.196   4.831 -0.3533 -0.0683 -0.1927
  107MOL    O8232094   1.319   7.037   4.870 -1.1716  0.1434  0.7109
  107MOL    C8332095   1.429   7.132   4.881 -0.0430  0.4336 -0.4959
  107MOL    H8432096   0.880   6.928   4.882  0.0916  0.3244  1.3034
  107MOL    H8532097   0.921   7.096   4.862  0.2201  0.1316  0.2855
  107MOL    H8632098   1.224   6.788   4.844  0.4697 -1.1274 -2.4338
  107MOL    H8732099   1.073   6.757   4.779  0.3238 -0.4174 -0.3471
  107MOL    H8832100   1.184   6.871   4.696  2.3280  0.3434  1.1618
  107MOL    H8932101   1.507   7.106   4.810 -1.3335  2.0527 -2.5760
  107MOL    H9032102   1.466   7.135   4.983  0.8672  0.1821 -0.8206
  107MOL    H9132103   1.402   7.237   4.867 -1.9645  0.0715  0.3541
  107MOL    C9232104   1.082   6.912   5.026 -0.1152 -0.4755 -0.0929
  107MOL    C9332105   1.022   7.002   5.150  0.1770 -0.2078  0.4167
  107MOL    C9432106   1.084   7.139   5.144 -0.6007  0.2709  0.0470
  107MOL    C9532107   0.866   7.021   5.128  0.5090 -0.0411 -0.4432
  107MOL    O9632108   0.815   7.129   5.113  0.6028 -0.2971 -0.2327
  107MOL    O9732109   0.799   6.912   5.127  0.4073 -0.0784 -0.0974
  107MOL    C9832110   0.659   6.903   5.086 -0.7408 -0.2718  0.2023
  107MOL    H9932111   1.166   6.849   5.055 -0.0751 -0.8981 -1.0854
  107MOL   H10032112   1.020   6.824   5.040 -0.1962 -0.6161 -1.2793
  107MOL   H10132113   1.059   7.198   5.055 -0.0470 -0.7068 -0.7571
  107MOL   H10232114   1.042   7.193   5.229 -0.3118  0.0484  0.3262
  107MOL   H10332115   1.192   7.137   5.159 -0.2350  1.1036 -2.2176
  107MOL   H10432116   0.606   6.850   5.165 -0.8263  0.0975  0.3938
  107MOL   H10532117   0.637   6.849   4.994 -0.7884  1.7231 -0.9813
  107MOL   H10632118   0.609   7.000   5.088 -0.3849 -0.0888  0.6081
  107MOL   C10732119   1.038   6.932   5.293 -0.3013  0.1173  0.8192
  107MOL   C10832120   1.170   6.923   5.386  0.9570  0.3574 -0.3443
  107MOL   C10932121   1.195   7.067   5.445  0.1237 -0.5250 -0.3363
  107MOL   C11032122   1.125   6.824   5.498  0.6676  0.1784  0.3760
  107MOL   O11132123   1.134   6.854   5.613 -0.2913 -0.0452 -0.4951
  107MOL   O11232124   1.084   6.702   5.454  0.3588  0.3979  0.0005
  107MOL   C11332125   1.028   6.608   5.546  0.3874  0.2930  0.3182
  107MOL   H11432126   1.005   6.832   5.267  2.8948 -0.6078 -0.7270
  107MOL   H11532127   0.956   6.968   5.356  0.2834  1.2333  0.9525
  107MOL   H11632128   1.102   7.115   5.475 -0.3034 -0.5936 -1.5358
  107MOL   H11732129   1.257   7.061   5.534 -1.5808 -0.0807  0.9013
  107MOL   H11832130   1.247   7.120   5.366 -1.4701 -1.5169 -2.0991
  107MOL   H11932131   0.965   6.536   5.493  0.0209  0.7776  0.0808
  107MOL   H12032132   0.966   6.666   5.614  2.2375  2.7089  0.0510
  107MOL   H12132133   1.100   6.555   5.607 -0.0362  0.4426  0.9478
  107MOL   C12232134   1.300   6.863   5.315 -0.4165  0.0001  0.4266
  107MOL   C12332135   1.447   6.872   5.365  0.6737 -0.7227 -0.6748
  107MOL   C12432136   1.507   7.015   5.358  0.0886 -0.0591 -0.9062
  107MOL   C12532137   1.453   6.823   5.511 -0.5210 -0.5149 -1.1159
  107MOL   O12632138   1.519   6.883   5.601  0.5785  0.3540 -0.4265
  107MOL   O12732139   1.406   6.696   5.523 -0.0806 -0.5710 -0.4104
  107MOL   C12832140   1.390   6.629   5.645 -0.4962  0.1534 -0.5117
  107MOL   H12932141   1.312   6.931   5.231 -1.4388 -0.7699 -0.3685
  107MOL   H13032142   1.289   6.757   5.289 -1.1591  0.3618 -0.8024
  107MOL   H13132143   1.488   7.067   5.264  0.1259  2.0641  0.2345
  107MOL   H13232144   1.475   7.077   5.442  2.0618  0.6614 -0.6584
  107MOL   H13332145   1.612   6.995   5.375  0.1749  0.9432 -0.1847
  107MOL   H13432146   1.439   6.682   5.727 -0.2474  1.3745 -1.4208
  107MOL   H13532147   1.426   6.526   5.644  1.4685  0.8147 -0.4439
  107MOL   H13632148   1.282   6.627   5.657 -0.5236 -1.3159 -0.9666
  107MOL   C13732149   1.553   6.783   5.288  0.7205 -0.5076 -0.3526
  107MOL   C13832150   1.590   6.788   5.136 -0.8480  0.2912  0.1881
  107MOL   C13932151   1.463   6.812   5.046 -0.0475  0.2184  0.0305
  107MOL   C14032152   1.690   6.908   5.127 -0.2237  0.7139  0.6565
  107MOL   O14132153   1.677   7.004   5.053  1.0555  0.0462 -0.0671
  107MOL   O14232154   1.808   6.876   5.188 -0.1838 -0.3547  0.5925
  107MOL   C14332155   1.921   6.960   5.154  0.0652  0.3532  0.0109
  107MOL   H14432156   1.502   6.687   5.294 -0.6001  0.1347 -1.0839
  107MOL   H14532157   1.648   6.764   5.338  0.6663  1.8888  0.7142
  107MOL   H14632158   1.469   6.787   4.940  0.2253 -0.8873  0.2971
  107MOL   H14732159   1.383   6.748   5.083  0.2354 -0.2771 -0.2148
  107MOL   H14832160   1.432   6.916   5.057 -0.0232  0.4626 -1.9531
  107MOL   H14932161   1.993   6.942   5.234  1.6161 -0.6223 -1.5630
  107MOL   H15032162   1.901   7.067   5.148 -0.2988  0.2214 -1.3393
  107MOL   H15132163   1.959   6.923   5.059  0.3363  0.6888 -0.0130
  107MOL   C15232164   1.665   6.652   5.093  0.1538  0.0588 -0.1043
  107MOL   C15332165   1.695   6.601   4.941  0.0143 -0.3887 -0.0881
  107MOL   C15432166   1.807   6.504   4.951 -1.1844 -0.1854 -0.0284
  107MOL   C15532167   1.568   6.520   4.889 -0.6581  0.0915  0.7528
  107MOL   O15632168   1.570   6.399   4.895  0.5159  0.0055 -0.3281
  107MOL   O15732169   1.470   6.589   4.836 -0.7211  0.8723 -0.7287
  107MOL   C15832170   1.353   6.519   4.789 -0.1522 -1.2344 -0.2215
  107MOL   H15932171   1.612   6.572   5.145  1.6541 -0.2478  0.9816
  107MOL   H16032172   1.759   6.642   5.147 -0.9761 -2.7288  1.4378
  107MOL   H16132173   1.897   6.548   4.993 -0.5039 -1.7599  0.2115
  107MOL   H16232174   1.800   6.419   5.019 -0.1016 -0.7821 -0.6482
  107MOL   H16332175   1.832   6.450   4.860 -0.0360  0.5774 -0.1675
  107MOL   H16432176   1.270   6.581   4.754  1.0053 -0.2918 -1.3256
  107MOL   H16532177   1.320   6.447   4.865 -1.9154  0.1993  0.4186
  107MOL   H16632178   1.402   6.477   4.701 -0.4040  2.2477 -2.0977
  107MOL   C16732179   1.730   6.725   4.851 -0.2932 -0.6717 -0.4541
  107MOL   C16832180   1.793   6.706   4.700  0.1292  0.0661 -0.3112
  107MOL   C16932181   1.707   6.597   4.628  0.4015  0.4301 -0.7258
  107MOL   C17032182   1.756   6.845   4.631 -0.1084 -0.2375 -0.6467
  107MOL   O17132183   1.673   6.852   4.540  0.3448 -0.2236 -0.0247
  107MOL   O17232184   1.836   6.948   4.682 -0.8668  0.4864  0.0186
  107MOL   C17332185   1.816   7.081   4.635 -0.0723  0.6955 -0.0353
  107MOL   H17432186   1.809   6.778   4.905 -1.3027  2.5606 -2.0158
  107MOL   H17532187   1.645   6.793   4.845 -2.2251 -2.6821  3.0657
  107MOL   H17632188   1.712   6.588   4.520  2.1687  2.1514 -0.8190
  107MOL   H17732189   1.721   6.495   4.666  0.8460  0.1608 -1.6041
  107MOL   H17832190   1.600   6.609   4.642  0.9402  3.4370  1.3246
  107MOL   H17932191   1.782   7.079   4.531  0.8267 -3.9030 -0.3493
  107MOL   H18032192   1.904   7.144   4.646  1.0505 -0.7301 -0.6619
  107MOL   H18132193   1.741   7.125   4.702 -1.2729 -1.8367  0.3519
  107MOL   C18232194   1.947   6.680   4.694 -0.4724 -0.4483  0.6300
  107MOL   C18332195   2.023   6.621   4.579 -0.5472  0.3834  0.3491
  107MOL   C18432196   1.989   6.468   4.549  0.2871 -1.0553  0.3361
  107MOL   C18532197   1.992   6.700   4.446 -0.4359  0.1795  1.1072
  107MOL   O18632198   2.020   6.820   4.433 -0.4322 -0.1292 -0.5660
  107MOL   O18732199   1.932   6.633   4.349  0.1786 -0.0527  0.6571
  107MOL   C18832200   1.900   6.700   4.228  0.3769 -0.0578  0.1388
  107MOL   H18932201   1.965   6.622   4.784 -1.5218 -1.1160  0.4097
  107MOL   H19032202   2.001   6.775   4.703 -1.8589  0.5076 -0.7439
  107MOL   H19132203   1.890   6.451   4.506 -0.9790  2.1869  1.8139
  107MOL   H19232204   2.054   6.427   4.471  1.4336 -1.1246  1.3181
  107MOL   H19332205   2.000   6.409   4.639 -0.6154 -1.3912  0.2253
  107MOL   H19432206   1.993   6.736   4.183  0.7892 -3.6326 -1.9923
  107MOL   H19532207   1.838   6.787   4.251  0.5049  0.5808 -1.7835
  107MOL   H19632208   1.841   6.642   4.158  0.5006  0.0184 -0.0316
  107MOL   C19732209   2.183   6.630   4.594  0.0455 -0.2743  0.5110
  107MOL   C19832210   2.260   6.539   4.702  0.2227 -0.2009 -0.1564
  107MOL   C19932211   2.200   6.543   4.841 -0.0559  0.1312 -0.2729
  107MOL   C20032212   2.264   6.392   4.651 -0.1752  0.7341 -0.0282
  107MOL   O20132213   2.213   6.298   4.710  0.2599 -0.0377  0.0711
  107MOL   O20232214   2.320   6.376   4.527 -0.0101 -0.0085  0.0642
  107MOL   C20332215   2.343   6.245   4.482  0.4402  0.0141 -0.7282
  107MOL   H20432216   2.210   6.735   4.606 -1.5032  0.0628  1.2170
  107MOL   H20532217   2.217   6.601   4.495 -2.0642  1.9737 -0.9565
  107MOL   H20632218   2.175   6.644   4.875 -2.9639 -0.8417  0.6156
  107MOL   H20732219   2.108   6.485   4.845  0.4864 -0.7020  0.0572
  107MOL   H20832220   2.263   6.509   4.922 -0.4157 -0.2476 -0.1515
  107MOL   H20932221   2.265   6.179   4.520 -0.0681 -0.5412 -2.6677
  107MOL   H21032222   2.441   6.208   4.512  0.0299 -0.0840  0.5202
  107MOL   H21132223   2.349   6.246   4.373  0.2528  0.6566 -0.7343
  107MOL   C21232224   2.405   6.595   4.698  0.1864  0.4462  0.2429
  107MOL   C21332225   2.535   6.539   4.781  0.1614  0.6899 -0.5781
  107MOL   C21432226   2.526   6.628   4.911 -0.4191 -0.1425 -0.6330
  107MOL   C21532227   2.525   6.388   4.810  0.4264  0.3301 -0.2621
  107MOL   O21632228   2.561   6.303   4.731 -0.4055  0.7269 -0.4593
  107MOL   O21732229   2.466   6.362   4.928 -0.0829 -0.7648 -0.7474
  107MOL   C21832230   2.478   6.234   4.987 -0.1751  0.7539  0.5012
  107MOL   H21932231   2.397   6.699   4.731  0.8421  0.4379  0.4378
  107MOL   H22032232   2.433   6.608   4.594 -0.6455  3.0664  0.2955
  107MOL   H22132233   2.595   6.591   4.987 -0.1970 -1.4000 -1.4241
  107MOL   H22232234   2.558   6.730   4.889  1.3116 -0.4050  0.5455
  107MOL   H22332235   2.433   6.641   4.965  0.2515 -2.5203  1.1611
  107MOL   H22432236   2.443   6.229   5.091  0.5034  0.5802  0.7200
  107MOL   H22532237   2.578   6.191   4.980 -1.2052 -2.0339  1.9647
  107MOL   H22632238   2.428   6.165   4.918  0.8073 -0.5249  1.0535
  107MOL   C22732239   2.651   6.570   4.691 -0.4839  0.3449 -0.0380
  107MOL   C22832240   2.800   6.533   4.728 -0.4083 -0.5302 -0.5033
  107MOL   C22932241   2.844   6.531   4.872  0.5234  0.1231  0.3137
  107MOL   C23032242   2.842   6.401   4.648  0.0915 -0.2301 -0.8762
  107MOL   O23132243   2.896   6.305   4.701  0.2103 -0.6262 -0.1073
  107MOL   O23232244   2.826   6.411   4.509 -0.3723  0.0091 -0.5352
  107MOL   C23332245   2.849   6.304   4.426  0.2807 -0.2950 -0.2160
  107MOL   H23432246   2.634   6.670   4.653  0.5385  0.1676 -0.9802
  107MOL   H23532247   2.636   6.523   4.594 -2.5189  1.2373 -0.1769
  107MOL   H23632248   2.817   6.623   4.925 -1.8753 -1.3482  1.7117
  107MOL   H23732249   2.801   6.446   4.924  0.5071  0.0294  0.1470
  107MOL   H23832250   2.953   6.530   4.880  0.6931 -0.1200 -1.7787
  107MOL   H23932251   2.939   6.246   4.447 -1.3170 -2.9329 -0.4286
  107MOL   H24032252   2.858   6.346   4.325 -0.9219  1.8070  0.5102
  107MOL   H24132253   2.766   6.234   4.429 -0.5363  0.6250 -1.0272
  107MOL   C24232254   2.890   6.636   4.647 -0.3390 -0.0575 -0.0467
  107MOL   C24332255   2.924   6.784   4.691 -0.1418 -1.0351  0.2541
  107MOL   C24432256   2.795   6.862   4.724  0.1031 -0.3125 -0.0779
  107MOL   C24532257   3.016   6.785   4.816  0.3088 -0.0389  0.1436
  107MOL   O24632258   2.985   6.829   4.928 -0.7144 -0.0699  0.2254
  107MOL   O24732259   3.127   6.707   4.796 -0.4023  0.1657  0.0333
  107MOL   C24832260   3.222   6.684   4.903  1.0646 -0.3078  0.2399
  107MOL   H24932261   2.840   6.659   4.553  0.5256  0.9313 -0.2622
  107MOL   H25032262   2.988   6.592   4.627  0.8619  2.8991 -0.8897
  107MOL   H25132263   2.832   6.960   4.754 -0.9535  0.3536 -0.9119
  107MOL   H25232264   2.723   6.871   4.644 -0.4940  1.0314  0.6023
  107MOL   H25332265   2.749   6.815   4.811  0.0137  2.0117  1.1787
  107MOL   H25432266   3.207   6.759   4.980  1.0656 -1.6299  1.5414
  107MOL   H25532267   3.321   6.700   4.860  0.9505 -1.0358 -0.3012
  107MOL   H25632268   3.226   6.588   4.954  0.8338 -0.2393  0.3850
  107MOL   C25732269   3.002   6.857   4.576 -0.6682  0.1745 -0.2870
  107MOL   C25832270   2.964   6.857   4.421 -0.2490  0.5041  0.0463
  107MOL   C25932271   3.025   6.738   4.356 -0.4791  0.9192  0.6135
  107MOL   C26032272   2.816   6.872   4.391  0.0549  0.5852 -0.1550
  107MOL   O26132273   2.751   6.967   4.429 -0.2774 -0.0204 -1.0056
  107MOL   O26232274   2.763   6.773   4.321 -0.5270  0.5289 -0.0528
  107MOL   C26332275   2.624   6.780   4.278 -0.0753  0.0408  0.1423
  107MOL   H26432276   3.107   6.827   4.582 -0.6941  0.1099 -0.1326
  107MOL   H26532277   3.008   6.963   4.600  0.9242  0.2083 -0.7423
  107MOL   H26632278   2.998   6.725   4.251 -0.6576 -0.4979  0.8210
  107MOL   H26732279   3.131   6.714   4.368 -0.7308 -0.8168 -0.3242
  107MOL   H26832280   2.981   6.644   4.389 -3.2819  1.5615 -1.1697
  107MOL   H26932281   2.579   6.847   4.350 -0.2092 -1.4624  1.4883
  107MOL   H27032282   2.573   6.683   4.285 -0.6655  0.4685  1.9634
  107MOL   H27132283   2.608   6.827   4.182  0.2774  0.6029  0.3574
  107MOL   C27232284   3.046   6.987   4.371 -0.5520  0.1873  0.3059
  107MOL   C27332285   3.081   7.017   4.222  0.0935 -0.2276 -0.5400
  107MOL   C27432286   3.154   7.155   4.206 -0.0076  0.5000  0.5286
  107MOL   C27532287   3.183   6.912   4.161 -0.2987 -0.0998  0.6423
  107MOL   O27632288   3.145   6.839   4.068  0.2400 -0.2053 -0.3867
  107MOL   O27732289   3.304   6.896   4.215  0.6583 -0.4837  0.0817
  107MOL   C27832290   3.401   6.818   4.149  0.8515  0.2861 -0.3585
  107MOL   H27932291   3.142   6.989   4.422  0.4237 -1.5994 -1.3396
  107MOL   H28032292   2.992   7.071   4.414  0.3431 -0.7484  3.3776
  107MOL   H28132293   3.226   7.163   4.288 -1.4148 -1.4200  1.9963
  107MOL   H28232294   3.212   7.168   4.114  0.2798 -0.4433  0.5754
  107MOL   H28332295   3.090   7.242   4.217  1.0067  1.1767  1.0996
  107MOL   H28432296   3.361   6.723   4.113  0.4686  0.5744 -0.7062
  107MOL   H28532297   3.496   6.804   4.200  0.6175  2.6757  0.8007
  107MOL   H28632298   3.425   6.868   4.055 -0.2891 -0.4196 -1.0390
  107MOL   C28732299   2.943   7.022   4.148 -0.0497  0.0126 -0.6527
  107MOL   C28832300   2.938   7.074   3.996  0.3820 -0.1506 -0.1330
  107MOL   C28932301   2.850   6.991   3.909 -0.4397 -0.1382  0.4424
  107MOL   C29032302   2.906   7.225   3.982  0.2264 -0.7273  0.1653
  107MOL   O29132303   2.868   7.301   4.069 -0.5354  0.2295 -0.2511
  107MOL   O29232304   2.935   7.259   3.855  0.4781  0.2078  0.3230
  107MOL   C29332305   2.927   7.393   3.816 -0.2798  0.5434 -0.1673
  107MOL   H29432306   2.879   7.097   4.195 -0.8463 -0.3286 -1.1883
  107MOL   H29532307   2.904   6.921   4.157  0.5833 -0.1076  0.7388
  107MOL   H29632308   2.750   7.034   3.911  0.7422  3.0966 -3.8967
  107MOL   H29732309   2.873   6.995   3.803 -0.2194 -0.4902  0.4752
  107MOL   H29832310   2.849   6.887   3.942  1.0775 -0.1412  0.5318
  107MOL   H29932311   3.004   7.445   3.872 -1.4311  1.1118  0.9053
  107MOL   H30032312   2.830   7.442   3.811 -0.3637  0.3779 -0.1887
  107MOL   H30132313   2.965   7.392   3.714  0.0874 -2.8102 -0.0650
  107MOL   H30232314   3.034   7.058   3.945 -1.2830 -0.8937 -3.1790
  108MOL     C132315   1.926   2.304   6.554 -0.4783  0.2766  0.3170
  108MOL     C232316   2.062   2.260   6.607 -0.6401  0.0171 -0.1714
  108MOL     C332317   2.079   2.334   6.743  0.0390 -0.0967  0.0510
  108MOL     C432318   2.046   2.111   6.649 -0.0855  0.4878 -0.8145
  108MOL     O532319   1.939   2.070   6.695  0.0346  0.0738  0.7960
  108MOL     O632320   2.157   2.040   6.631 -0.5392 -0.6775  0.1781
  108MOL     C732321   2.171   1.904   6.666 -0.1907 -0.3526 -0.2164
  108MOL     H832322   1.895   2.251   6.464  0.0384  1.9141 -0.8423
  108MOL     H932323   1.842   2.280   6.620  0.2244 -2.4734  0.2383
  108MOL    H1032324   2.168   2.296   6.794  0.2539 -2.2777 -1.8392
  108MOL    H1132325   2.087   2.442   6.739  1.5094 -0.1799  0.4287
  108MOL    H1232326   2.002   2.309   6.817  1.2433 -0.4482  1.2134
  108MOL    H1332327   2.135   1.871   6.763  0.2985  2.2420  0.9127
  108MOL    H1432328   2.278   1.881   6.665  0.0266  0.5229  0.8703
  108MOL    H1532329   2.146   1.844   6.579  1.9870 -2.4771  0.5799
  108MOL    H1632330   1.910   2.411   6.538 -1.6236 -0.3822 -3.3826
  108MOL    C1732331   2.185   2.303   6.510 -0.0885 -0.1058  0.0877
  108MOL    C1832332   2.199   2.260   6.357  0.1325 -0.4934 -0.1966
  108MOL    C1932333   2.355   2.276   6.325  0.2741 -0.5052 -1.0122
  108MOL    C2032334   2.145   2.113   6.320  0.5887  0.1998 -0.0972
  108MOL    O2132335   2.228   2.033   6.274  0.2392  0.3995 -0.6724
  108MOL    O2232336   2.010   2.085   6.346  0.1470  0.3033  0.4722
  108MOL    C2332337   1.956   1.961   6.308  0.2691 -0.2678 -0.0055
  108MOL    H2432338   2.278   2.274   6.558 -0.3824 -0.4816  0.4291
  108MOL    H2532339   2.193   2.411   6.521  0.4940 -0.1003 -0.3808
  108MOL    H2632340   2.423   2.235   6.400 -0.6674  1.0754  0.7368
  108MOL    H2732341   2.396   2.235   6.233  0.5464 -0.5482 -0.8714
  108MOL    H2832342   2.374   2.383   6.315 -1.9563 -0.1178 -1.4842
  108MOL    H2932343   1.960   1.886   6.387 -0.7247 -0.3596 -0.0432
  108MOL    H3032344   2.007   1.928   6.217  0.1652  0.1074 -0.2027
  108MOL    H3132345   1.850   1.970   6.285  0.5939  1.2837 -1.0061
  108MOL    C3232346   2.115   2.365   6.272 -0.0595 -0.1251 -0.3286
  108MOL    C3332347   2.072   2.354   6.118 -0.6315 -0.3153  0.3284
  108MOL    C3432348   1.951   2.263   6.101  0.4580  0.8421 -0.1569
  108MOL    C3532349   2.030   2.498   6.077 -0.4339 -0.2062  0.5238
  108MOL    O3632350   1.915   2.527   6.053 -0.3019 -0.3882 -0.0839
  108MOL    O3732351   2.129   2.590   6.075  0.1982 -0.0803 -0.5170
  108MOL    C3832352   2.099   2.723   6.046  0.4792  0.8083  0.1629
  108MOL    H3932353   2.172   2.458   6.282 -2.1074  1.0358  1.0327
  108MOL    H4032354   2.016   2.370   6.318 -0.8146 -0.1394 -1.9293
  108MOL    H4132355   1.888   2.267   6.190 -0.7876  2.7465 -1.0814
  108MOL    H4232356   1.879   2.282   6.021 -1.2788  0.4438  1.2802
  108MOL    H4332357   1.989   2.163   6.080 -0.8654  0.6215 -1.5866
  108MOL    H4432358   2.182   2.789   6.073  0.8407  0.4712 -0.1058
  108MOL    H4532359   2.008   2.759   6.094  0.4367 -0.1794  0.8305
  108MOL    H4632360   2.085   2.725   5.938  0.3550 -0.9148  0.1383
  108MOL    C4732361   2.197   2.296   6.038  0.2230 -0.3063 -0.3483
  108MOL    C4832362   2.211   2.289   5.884 -0.1851 -0.2641  0.4392
  108MOL    C4932363   2.342   2.204   5.853  0.0325 -0.1180  0.3991
  108MOL    C5032364   2.092   2.208   5.825 -0.1758  0.2980 -0.1582
  108MOL    O5132365   1.998   2.258   5.762 -0.0692 -0.1714  0.3356
  108MOL    O5232366   2.091   2.075   5.854  0.5009  0.0938  0.2426
  108MOL    C5332367   1.974   2.001   5.821  0.4634  0.0748 -0.3907
  108MOL    H5432368   2.218   2.192   6.062 -1.8061 -1.0420 -1.6392
  108MOL    H5532369   2.288   2.345   6.073  1.5590 -0.9910 -2.7323
  108MOL    H5632370   2.369   2.222   5.749 -0.4065  1.6033  0.5756
  108MOL    H5732371   2.440   2.237   5.890 -0.5654  0.7338  1.2395
  108MOL    H5832372   2.341   2.096   5.871 -4.6546 -0.1006  0.6968
  108MOL    H5932373   1.898   2.016   5.898 -0.2413 -1.6832 -0.7136
  108MOL    H6032374   2.001   1.897   5.804  0.8274 -0.4539  3.1137
  108MOL    H6132375   1.927   2.040   5.730  2.2920  1.5939 -0.7074
  108MOL    C6232376   2.218   2.433   5.814 -0.0506 -0.0199  0.4381
  108MOL    C6332377   2.277   2.464   5.669 -0.2781 -0.1109 -0.1607
  108MOL    C6432378   2.237   2.618   5.648 -0.3126  0.4146  0.4789
  108MOL    C6532379   2.429   2.470   5.665  0.0063 -0.8873  0.0639
  108MOL    O6632380   2.499   2.460   5.774 -0.0543 -0.2178 -0.1141
  108MOL    O6732381   2.479   2.514   5.549 -0.0084 -0.3683  0.0136
  108MOL    C6832382   2.614   2.549   5.539  0.1668  0.6393  0.2409
  108MOL    H6932383   2.279   2.489   5.884  1.7434 -4.0926  2.3414
  108MOL    H7032384   2.119   2.479   5.821 -0.9673 -1.6795 -0.8689
  108MOL    H7132385   2.268   2.690   5.723 -1.7587  1.1605  0.3729
  108MOL    H7232386   2.249   2.659   5.548  0.7758 -3.8723 -1.2760
  108MOL    H7332387   2.129   2.625   5.662 -0.8453 -0.4732 -2.7823
  108MOL    H7432388   2.671   2.461   5.509 -1.2882  0.1436 -1.1381
  108MOL    H7532389   2.654   2.595   5.629  0.3834  4.6405 -1.8025
  108MOL    H7632390   2.636   2.607   5.450  0.1520 -1.1001 -0.9175
  108MOL    C7732391   2.203   2.374   5.556 -0.8242  0.5295 -0.1955
  108MOL    C7832392   2.241   2.347   5.403  0.2701  0.2235 -0.1982
  108MOL    C7932393   2.260   2.480   5.327 -0.8446 -0.0102 -1.2805
  108MOL    C8032394   2.374   2.268   5.395  0.3882 -1.0132 -0.0955
  108MOL    O8132395   2.420   2.212   5.494  0.0423 -0.0599  0.2904
  108MOL    O8232396   2.430   2.267   5.274 -0.1948 -0.1364 -0.6087
  108MOL    C8332397   2.566   2.224   5.268 -0.6983 -0.0385  0.5747
  108MOL    H8432398   2.104   2.420   5.553 -0.0550  2.2334 -0.4700
  108MOL    H8532399   2.186   2.272   5.590 -0.1122  0.3554 -0.3558
  108MOL    H8632400   2.184   2.555   5.350  0.9220  1.5549 -0.3732
  108MOL    H8732401   2.362   2.515   5.342 -0.9207 -0.5564  0.6327
  108MOL    H8832402   2.244   2.471   5.219  0.1625  1.0230 -1.5302
  108MOL    H8932403   2.580   2.141   5.337  1.3498 -1.0265 -0.9729
  108MOL    H9032404   2.633   2.305   5.297 -0.4910  0.3932 -1.1080
  108MOL    H9132405   2.584   2.182   5.169 -1.0745  3.1899 -0.9208
  108MOL    C9232406   2.136   2.252   5.328 -0.2379 -0.7741 -0.3425
  108MOL    C9332407   1.978   2.271   5.309 -0.6333  0.6334 -0.6686
  108MOL    C9432408   1.909   2.244   5.441  0.6192  0.5566 -0.7346
  108MOL    C9532409   1.944   2.417   5.258  0.7252  0.7392  0.8577
  108MOL    O9632410   1.881   2.491   5.333  1.1475  0.1688 -0.4119
  108MOL    O9732411   1.991   2.449   5.145 -0.0470  0.0043  0.0387
  108MOL    C9832412   1.955   2.562   5.081 -0.0433 -0.2232  0.6984
  108MOL    H9932413   2.143   2.152   5.372 -1.4671 -0.7612 -0.0845
  108MOL   H10032414   2.178   2.231   5.230  1.3962 -2.3559  0.6832
  108MOL   H10132415   1.931   2.318   5.518 -0.4444 -1.2828  1.4257
  108MOL   H10232416   1.800   2.242   5.436  0.3928 -0.0641  3.0601
  108MOL   H10332417   1.939   2.145   5.475 -0.1824  0.3711 -0.5472
  108MOL   H10432418   1.854   2.564   5.039  0.3765 -2.4781 -0.4792
  108MOL   H10532419   2.012   2.559   4.988  0.4134 -1.5580  1.0164
  108MOL   H10632420   1.989   2.654   5.130 -0.6681 -0.1466  0.9965
  108MOL   C10732421   1.942   2.167   5.196 -0.0189 -0.4758 -1.1372
  108MOL   C10832422   1.800   2.097   5.182  0.5696 -0.4209 -0.3184
  108MOL   C10932423   1.782   1.993   5.294  0.1269 -0.0756 -0.7580
  108MOL   C11032424   1.685   2.197   5.193  0.5912  0.3762  1.2101
  108MOL   O11132425   1.593   2.186   5.274  0.5163  0.0271 -0.1177
  108MOL   O11232426   1.701   2.294   5.108  0.3656 -0.1488  0.3737
  108MOL   C11332427   1.619   2.413   5.126  0.2510  0.1612 -0.7651
  108MOL   H11432428   2.012   2.083   5.197 -0.3417 -0.7328  0.6496
  108MOL   H11532429   1.965   2.218   5.102  4.4103 -0.8229 -0.3507
  108MOL   H11632430   1.687   1.939   5.294 -0.2827  0.6355 -2.0902
  108MOL   H11732431   1.869   1.929   5.309  1.2980  1.5111 -0.6224
  108MOL   H11832432   1.760   2.036   5.391  2.2881  0.5575 -0.5155
  108MOL   H11932433   1.589   2.445   5.027  0.2229 -0.4394 -0.9537
  108MOL   H12032434   1.672   2.483   5.191  0.1331  0.8076 -1.3681
  108MOL   H12132435   1.522   2.388   5.169  1.5257  0.8529  2.7018
  108MOL   C12232436   1.804   2.035   5.035  0.4251  0.0857 -0.0666
  108MOL   C12332437   1.696   1.935   4.970 -0.2074  0.2138  0.2090
  108MOL   C12432438   1.756   1.896   4.836 -0.0071  0.1362 -0.3431
  108MOL   C12532439   1.694   1.803   5.064  0.4308  0.5465  0.0521
  108MOL   O12632440   1.600   1.765   5.139 -0.2778 -0.0560  0.6923
  108MOL   O12732441   1.803   1.744   5.047 -0.0333 -0.1838 -0.3199
  108MOL   C12832442   1.833   1.637   5.130 -0.4315  0.2328  0.3502
  108MOL   H12932443   1.903   1.991   5.029  1.7209  3.1201 -2.3949
  108MOL   H13032444   1.816   2.118   4.965 -0.5711  1.7327  1.6537
  108MOL   H13132445   1.758   1.986   4.775  1.7724  0.7771  0.6020
  108MOL   H13232446   1.863   1.882   4.852  0.3255  2.8465  0.0832
  108MOL   H13332447   1.712   1.816   4.778  0.4892  0.2196 -0.8476
  108MOL   H13432448   1.755   1.611   5.201 -0.9276  1.2796  0.2065
  108MOL   H13532449   1.907   1.671   5.202  1.3306  0.3236 -1.4416
  108MOL   H13632450   1.875   1.546   5.088  1.9458  0.6791  1.6954
  108MOL   C13732451   1.560   2.007   4.946  0.0136  0.0525 -0.4011
  108MOL   C13832452   1.430   1.969   4.861  0.2602  0.3227 -0.4535
  108MOL   C13932453   1.451   2.005   4.716 -0.7065  0.4593 -0.1882
  108MOL   C14032454   1.416   1.815   4.867 -0.7411  0.4208 -0.1193
  108MOL   O14132455   1.434   1.742   4.765 -0.2953 -0.1753 -0.3573
  108MOL   O14232456   1.361   1.772   4.984 -0.5579  0.2360  0.1433
  108MOL   C14332457   1.341   1.634   5.002  0.5136  0.2947 -0.0487
  108MOL   H14432458   1.595   2.100   4.901 -0.9120  0.9276  0.6564
  108MOL   H14532459   1.523   2.030   5.046 -1.4287  0.7506 -1.0850
  108MOL   H14632460   1.452   2.113   4.704  2.3024  0.2302 -2.4987
  108MOL   H14732461   1.550   1.975   4.684 -1.2748 -1.6355 -0.0442
  108MOL   H14832462   1.375   1.959   4.652 -0.3570  2.0884 -1.8166
  108MOL   H14932463   1.331   1.620   5.110 -1.7197 -0.1353 -0.2891
  108MOL   H15032464   1.413   1.564   4.959 -1.1422 -2.0089  0.8077
  108MOL   H15132465   1.241   1.608   4.965  1.0108 -1.1577 -0.4012
  108MOL   C15232466   1.295   2.031   4.925 -0.6877  1.1652  0.1533
  108MOL   C15332467   1.262   2.186   4.914  0.3519 -0.9854  0.1647
  108MOL   C15432468   1.391   2.266   4.947 -0.6751  0.2033 -0.2484
  108MOL   C15532469   1.206   2.223   4.774 -0.1438  0.1989 -0.5929
  108MOL   O15632470   1.178   2.131   4.692 -0.0235  0.0768  0.2702
  108MOL   O15732471   1.175   2.351   4.765 -0.4332  0.0982  0.1983
  108MOL   C15832472   1.104   2.393   4.652  0.1329 -0.4124 -0.7764
  108MOL   H15932473   1.294   2.010   5.032 -1.8137 -0.8595 -0.2446
  108MOL   H16032474   1.209   1.976   4.887  1.4750 -2.8969  0.8920
  108MOL   H16132475   1.473   2.265   4.875 -0.3400 -0.4423  0.1369
  108MOL   H16232476   1.363   2.371   4.954  0.9112  0.6871 -0.8396
  108MOL   H16332477   1.428   2.234   5.044 -0.9794  1.5005  0.3100
  108MOL   H16432478   1.150   2.361   4.558  0.3483 -0.3466 -0.6925
  108MOL   H16532479   1.088   2.501   4.661 -0.5689 -0.3405 -2.5881
  108MOL   H16632480   1.007   2.344   4.653 -1.0509  1.7797 -2.8559
  108MOL   C16732481   1.162   2.242   5.027 -0.3169 -0.2653  0.2267
  108MOL   C16832482   1.013   2.192   5.036  0.3060 -0.9169  0.3361
  108MOL   C16932483   0.932   2.239   4.910 -0.7419 -0.1902  0.8193
  108MOL   C17032484   0.996   2.036   5.049  0.5679 -0.1770  0.4205
  108MOL   O17132485   0.919   1.971   4.976 -0.0607 -0.2134  0.0468
  108MOL   O17232486   1.077   1.992   5.143 -0.4578 -0.1147 -0.0384
  108MOL   C17332487   1.096   1.855   5.149  0.8233 -0.5361 -0.2700
  108MOL   H17432488   1.144   2.349   5.015 -0.9398 -0.2552  1.2082
  108MOL   H17532489   1.216   2.240   5.121  4.8649 -0.2377 -2.5453
  108MOL   H17632490   0.825   2.233   4.925 -0.3500 -1.3659  3.3939
  108MOL   H17732491   0.951   2.342   4.877 -1.7231 -0.1192  0.4730
  108MOL   H17832492   0.952   2.177   4.823 -2.7254  0.1070  0.1326
  108MOL   H17932493   1.103   1.812   5.049 -1.7429 -1.8567  0.0816
  108MOL   H18032494   1.005   1.808   5.184  1.3544 -2.3225 -1.1976
  108MOL   H18132495   1.177   1.831   5.218  2.4435  1.6106 -1.3548
  108MOL   C18232496   0.948   2.261   5.162 -0.1112  0.1164 -0.1763
  108MOL   C18332497   0.797   2.274   5.204 -0.1563 -0.3767  0.0859
  108MOL   C18432498   0.728   2.135   5.181  0.2321  0.1386 -1.0395
  108MOL   C18532499   0.786   2.300   5.356 -0.4465 -0.5003 -0.6740
  108MOL   O18632500   0.735   2.226   5.441 -0.8798 -0.0722  0.5596
  108MOL   O18732501   0.847   2.405   5.399  0.0703 -0.3771  0.9281
  108MOL   C18832502   0.852   2.439   5.538  0.1096  0.3549  0.2826
  108MOL   H18932503   0.993   2.359   5.182  0.6528  0.2963 -2.6240
  108MOL   H19032504   0.989   2.198   5.241  0.6973 -1.0128 -1.4643
  108MOL   H19132505   0.636   2.126   5.239  0.9891  1.4411  0.3891
  108MOL   H19232506   0.704   2.107   5.078  2.8117 -0.6469 -1.4722
  108MOL   H19332507   0.789   2.055   5.223 -1.9920 -1.1336 -0.1441
  108MOL   H19432508   0.755   2.443   5.587  0.1498 -0.3031  0.4214
  108MOL   H19532509   0.897   2.538   5.539  0.8941  0.0280 -0.9888
  108MOL   H19632510   0.918   2.372   5.594 -2.0629 -3.0103 -1.0286
  108MOL   C19732511   0.726   2.390   5.132  0.6046  0.4488 -0.0980
  108MOL   C19832512   0.571   2.412   5.123 -0.0057 -0.0865 -0.8650
  108MOL   C19932513   0.506   2.303   5.031  0.0462  0.0732  0.7071
  108MOL   C20032514   0.501   2.414   5.264 -0.3212 -0.3243 -0.1186
  108MOL   O20132515   0.411   2.329   5.292  0.4494 -0.5782  0.5601
  108MOL   O20232516   0.542   2.518   5.353 -0.3878 -0.3214 -0.1002
  108MOL   C20332517   0.469   2.526   5.476  0.6638  0.3635  0.2577
  108MOL   H20432518   0.745   2.388   5.025  0.7284 -0.8168 -0.0620
  108MOL   H20532519   0.787   2.477   5.156  4.0913 -1.7666 -0.4873
  108MOL   H20632520   0.408   2.339   5.000 -0.3944  0.3064  2.3690
  108MOL   H20732521   0.561   2.295   4.937  0.6014 -5.6714  1.3922
  108MOL   H20832522   0.497   2.199   5.061  0.7195 -1.0866 -2.8350
  108MOL   H20932523   0.489   2.624   5.521 -0.6976  1.8669 -2.3102
  108MOL   H21032524   0.505   2.446   5.541 -2.1905 -1.1061  0.1068
  108MOL   H21132525   0.362   2.512   5.461  0.6708 -0.1158  0.6353
  108MOL   C21232526   0.569   2.550   5.036  0.4487 -0.6916  0.3973
  108MOL   C21332527   0.444   2.652   5.046 -0.4780 -0.5299  0.2552
  108MOL   C21432528   0.308   2.582   5.062 -0.3906  0.1776  0.0047
  108MOL   C21532529   0.459   2.755   5.169 -0.8466 -0.4971 -0.5421
  108MOL   O21632530   0.389   2.751   5.268 -0.0748 -0.2791  0.1621
  108MOL   O21732531   0.568   2.824   5.169  0.0535  0.6205  0.1937
  108MOL   C21832532   0.580   2.920   5.271  0.2782  0.2411 -0.2592
  108MOL   H21932533   0.568   2.519   4.931  2.8733  3.6347 -1.0337
  108MOL   H22032534   0.662   2.607   5.039  0.0143  0.2012 -1.7211
  108MOL   H22132535   0.232   2.658   5.077  0.2703  0.8640 -0.1321
  108MOL   H22232536   0.282   2.527   4.971 -0.9680 -0.0473  0.3050
  108MOL   H22332537   0.295   2.506   5.139 -2.9269  0.0870 -0.4717
  108MOL   H22432538   0.565   2.875   5.369 -2.1394  0.1362 -0.6478
  108MOL   H22532539   0.513   3.003   5.247 -0.5771 -0.0210  1.1759
  108MOL   H22632540   0.682   2.960   5.268  1.1154 -1.7131  1.0714
  108MOL   C22732541   0.419   2.717   4.901 -0.0188 -0.1683  0.1930
  108MOL   C22832542   0.473   2.855   4.842 -0.1108  0.4538 -0.0183
  108MOL   C22932543   0.418   2.980   4.926 -0.5297  1.1158  0.4529
  108MOL   C23032544   0.629   2.851   4.844 -0.6553 -0.0043  0.0035
  108MOL   O23132545   0.704   2.752   4.827  0.6153  0.2330 -0.3437
  108MOL   O23232546   0.675   2.974   4.838 -0.2846  0.0282  0.4503
  108MOL   C23332547   0.815   2.987   4.847 -0.0135 -0.1119 -0.8216
  108MOL   H23432548   0.311   2.728   4.892  0.1566  1.3669 -0.2851
  108MOL   H23532549   0.446   2.644   4.825  0.0448  1.2453 -1.1664
  108MOL   H23632550   0.313   2.974   4.957 -0.6694 -0.0759 -0.2449
  108MOL   H23732551   0.477   2.994   5.017  0.7789 -2.9024  0.2747
  108MOL   H23832552   0.417   3.074   4.870 -0.6027  0.1331 -1.2084
  108MOL   H23932553   0.848   2.919   4.925 -0.0197 -0.2895 -0.9746
  108MOL   H24032554   0.851   3.084   4.882  0.0292 -0.1168 -0.8509
  108MOL   H24132555   0.864   2.949   4.757  1.4780  1.2291 -0.5965
  108MOL   C24232556   0.419   2.879   4.697 -0.2386 -0.2185 -0.0732
  108MOL   C24332557   0.430   2.779   4.578 -0.1324  0.8511  0.0227
  108MOL   C24432558   0.556   2.693   4.579  0.5638 -0.2428 -0.5304
  108MOL   C24532559   0.310   2.681   4.586  0.7814  0.2896 -0.8205
  108MOL   O24632560   0.215   2.693   4.665 -0.1222 -0.4727 -0.3391
  108MOL   O24732561   0.318   2.594   4.485 -0.1026  0.2271  0.6433
  108MOL   C24832562   0.216   2.498   4.473 -0.2149 -0.0666 -0.1060
  108MOL   H24932563   0.458   2.975   4.665 -1.7809  0.2504 -0.5779
  108MOL   H25032564   0.313   2.900   4.715 -0.7294 -3.1378  0.7524
  108MOL   H25132565   0.638   2.764   4.573  0.1106  0.8439  3.8860
  108MOL   H25232566   0.563   2.620   4.660 -0.8234  0.4023  0.1853
  108MOL   H25332567   0.571   2.632   4.490 -2.7279  1.5472 -2.4219
  108MOL   H25432568   0.253   2.407   4.424 -0.7879 -0.8640  0.9397
  108MOL   H25532569   0.130   2.524   4.410  0.1614  1.7402  0.0852
  108MOL   H25632570   0.191   2.468   4.574 -2.2638 -1.9757 -1.1430
  108MOL   C25732571   0.442   2.855   4.439  0.4705 -0.1154 -0.5658
  108MOL   C25832572   0.321   2.937   4.371  1.0312  0.3184 -0.1568
  108MOL   C25932573   0.253   2.839   4.265  0.6814 -0.6742 -0.2460
  108MOL   C26032574   0.204   2.996   4.472 -0.6843  1.0371  0.4047
  108MOL   O26132575   0.093   2.959   4.461  0.0837  0.1879  0.1181
  108MOL   O26232576   0.246   3.089   4.556 -0.1900 -0.1224  0.0945
  108MOL   C26332577   0.162   3.158   4.646  0.0365  0.1065 -0.2604
  108MOL   H26432578   0.470   2.784   4.361  0.3767 -3.4776  2.3205
  108MOL   H26532579   0.526   2.922   4.450 -0.2913  0.8477 -0.5412
  108MOL   H26632580   0.321   2.823   4.182  1.5977  1.9478 -0.0606
  108MOL   H26732581   0.227   2.743   4.310 -1.6930  0.6065  1.2701
  108MOL   H26832582   0.160   2.887   4.233 -0.1699 -0.5927  2.2047
  108MOL   H26932583   0.190   3.126   4.747  0.6609  1.1087 -0.1069
  108MOL   H27032584   0.059   3.135   4.621  0.0960 -0.0072 -0.4008
  108MOL   H27132585   0.167   3.266   4.638  1.1079  0.0708 -0.2246
  108MOL   C27232586   0.388   3.050   4.290 -1.1695 -0.3130 -0.0150
  108MOL   C27332587   0.312   3.150   4.193 -0.0388 -0.0922  0.5185
  108MOL   C27432588   0.407   3.268   4.189 -0.0195  0.1456  0.7280
  108MOL   C27532589   0.288   3.081   4.055  0.2659 -0.1408 -0.1977
  108MOL   O27632590   0.179   3.041   4.016 -0.4698  0.9847  0.4686
  108MOL   O27732591   0.398   3.047   3.987  0.2751  0.1895 -0.0822
  108MOL   C27832592   0.387   3.006   3.846 -0.1165  0.4079 -0.7936
  108MOL   H27932593   0.467   2.997   4.237 -1.6770 -1.7024  0.6077
  108MOL   H28032594   0.448   3.100   4.366 -0.6429  1.8693 -1.8035
  108MOL   H28132595   0.391   3.330   4.100  0.2972 -1.1512 -0.2617
  108MOL   H28232596   0.409   3.331   4.278 -0.1261  1.0405  0.1076
  108MOL   H28332597   0.503   3.223   4.167  0.1777 -0.2245  2.3428
  108MOL   H28432598   0.344   3.079   3.777  1.6035  0.6485 -1.6426
  108MOL   H28532599   0.336   2.910   3.838  0.9150 -0.2506  0.4434
  108MOL   H28632600   0.488   2.990   3.810 -0.7672 -2.8564 -1.3401
  108MOL   C28732601   0.176   3.207   4.251  0.6474 -0.2839  0.5451
  108MOL   C28832602   0.113   3.331   4.181  0.0877 -0.3272 -1.0435
  108MOL   C28932603   0.021   3.310   4.061 -0.1963  0.4379 -0.3568
  108MOL   C29032604   0.043   3.409   4.283 -0.3926  0.0216 -0.4703
  108MOL   O29132605   0.098   3.511   4.329 -0.1294  0.1439  0.2424
  108MOL   O29232606   7.804   3.370   4.317 -0.3497  0.0995 -0.0657
  108MOL   C29332607   7.720   3.452   4.403 -0.4388 -0.9728 -0.7160
  108MOL   H29432608   0.194   3.235   4.355 -1.1126 -1.3048  1.1522
  108MOL   H29532609   0.096   3.132   4.250  1.5169 -1.2011 -1.7493
  108MOL   H29632610   0.075   3.280   3.971  1.0017  0.5868  0.2956
  108MOL   H29732611   7.824   3.231   4.071 -0.2878  0.5117 -0.4542
  108MOL   H29832612   7.841   3.399   4.036 -1.1078 -0.7031 -2.5148
  108MOL   H29932613   7.674   3.530   4.342  0.3751  0.7735  0.8709
  108MOL   H30032614   7.790   3.497   4.474  0.4805 -2.3342 -0.7484
  108MOL   H30132615   7.647   3.396   4.461  0.0218  0.1320  0.9584
  108MOL   H30232616   0.188   3.402   4.146  1.6382 -1.2344  0.3449
  109MOL     C132617   7.706   2.539   2.140 -0.0677 -0.6120 -0.2287
  109MOL     C232618   7.648   2.427   2.227  0.2028  0.0595  0.6872
  109MOL     C332619   7.752   2.316   2.240 -0.4903 -0.0440  0.5253
  109MOL     C432620   7.618   2.480   2.369  0.5463 -0.2523  0.4378
  109MOL     O532621   7.643   2.590   2.404  0.3491  0.1734 -0.2778
  109MOL     O632622   7.579   2.384   2.453  0.3394  0.4240 -0.1567
  109MOL     C732623   7.561   2.409   2.591  0.1914  0.0949  0.2957
  109MOL     H832624   7.739   2.503   2.043  0.1616  0.3172 -0.4987
  109MOL     H932625   7.650   2.633   2.143 -0.6334 -0.8608 -2.5916
  109MOL    H1032626   7.719   2.246   2.317  0.3980 -1.1942 -0.1262
  109MOL    H1132627   7.767   2.265   2.145  2.1206  0.6492  0.5263
  109MOL    H1232628   7.853   2.355   2.253 -0.5173 -0.3073  1.5894
  109MOL    H1332629   7.650   2.459   2.630 -0.1035  0.5473  0.3873
  109MOL    H1432630   7.547   2.313   2.642  0.9939 -0.5848 -0.7372
  109MOL    H1532631   7.483   2.484   2.603  1.3811  1.4405 -0.2060
  109MOL    H1632632   7.807   2.568   2.168 -1.4537  3.1884  1.1692
  109MOL    C1732633   7.518   2.362   2.165  0.0093 -0.1358  0.5559
  109MOL    C1832634   7.385   2.447   2.123 -0.1769 -0.9346 -0.8059
  109MOL    C1932635   7.321   2.536   2.235 -0.3539 -0.3968  1.0709
  109MOL    C2032636   7.427   2.537   1.997  0.1299 -0.9279 -0.5111
  109MOL    O2132637   7.382   2.652   1.981  0.1109 -0.1193 -0.4185
  109MOL    O2232638   7.501   2.478   1.906 -0.4435 -0.1679 -0.0293
  109MOL    C2332639   7.553   2.554   1.799 -0.7414  0.0947 -0.9410
  109MOL    H2432640   7.486   2.284   2.234  0.0276  3.1418  4.4584
  109MOL    H2532641   7.553   2.305   2.079  0.0018  1.2879 -0.4072
  109MOL    H2632642   7.236   2.595   2.202  1.0266  2.0419  1.7683
  109MOL    H2732643   7.272   2.477   2.313 -0.1828  0.0209  1.4994
  109MOL    H2832644   7.396   2.599   2.284 -1.2981  1.6424 -0.0463
  109MOL    H2932645   7.636   2.503   1.752 -0.0520  1.2916 -1.0476
  109MOL    H3032646   7.600   2.643   1.843 -1.6786 -0.9112  2.2450
  109MOL    H3132647   7.486   2.582   1.718 -1.0283  0.1417 -0.6906
  109MOL    C3232648   7.260   2.370   2.064 -0.8618 -0.5959  0.0596
  109MOL    C3332649   7.167   2.267   2.135 -0.1489 -0.1449 -0.1797
  109MOL    C3432650   7.249   2.178   2.232  0.6383 -0.3126 -0.2833
  109MOL    C3532651   7.071   2.347   2.221  0.6622 -0.0106 -0.6463
  109MOL    O3632652   7.056   2.315   2.340 -0.3607  0.5876 -0.2925
  109MOL    O3732653   7.012   2.453   2.164 -0.0747  0.3324 -0.2980
  109MOL    C3832654   6.915   2.523   2.242 -0.5332 -0.7622 -0.4161
  109MOL    H3932655   7.295   2.323   1.972 -0.5505 -1.4785  0.6259
  109MOL    H4032656   7.195   2.444   2.017 -0.7757  0.5690  1.7296
  109MOL    H4132657   7.297   2.234   2.312 -0.3129 -0.3949  0.3527
  109MOL    H4232658   7.187   2.102   2.280 -1.0096  0.6986 -0.7673
  109MOL    H4332659   7.322   2.121   2.175 -0.3405 -1.1347 -0.7480
  109MOL    H4432660   6.854   2.582   2.174  2.1608  1.5775 -0.8999
  109MOL    H4532661   6.967   2.584   2.316 -1.9383 -1.1484  0.9179
  109MOL    H4632662   6.852   2.455   2.300  0.6657 -1.4673  0.0924
  109MOL    C4732663   7.082   2.186   2.029  0.0023  0.4441 -0.4000
  109MOL    C4832664   7.034   2.035   2.052 -0.8066 -0.4837  0.1364
  109MOL    C4932665   7.159   1.939   2.039 -0.4015  0.4241 -0.7123
  109MOL    C5032666   6.964   2.016   2.190 -0.5525 -0.2979 -0.4007
  109MOL    O5132667   6.977   1.911   2.253 -0.3743  0.8522  1.0867
  109MOL    O5232668   6.891   2.111   2.217  0.2933 -0.0311  0.1000
  109MOL    C5332669   6.815   2.112   2.343  0.5990 -0.8033 -0.4367
  109MOL    H5432670   7.142   2.171   1.939  1.0059  0.4521  0.2627
  109MOL    H5532671   6.992   2.247   2.018 -0.8204 -0.4755  1.0827
  109MOL    H5632672   7.125   1.836   2.040  2.6584 -0.6294  0.4449
  109MOL    H5732673   7.222   1.958   1.952  0.8429  3.5287  0.7759
  109MOL    H5832674   7.230   1.940   2.122 -0.7147 -2.3493 -0.3748
  109MOL    H5932675   6.758   2.020   2.355 -2.1987  0.8109 -1.0456
  109MOL    H6032676   6.748   2.197   2.331 -0.0073 -1.1008  0.7578
  109MOL    H6132677   6.879   2.131   2.430  0.1293 -1.8817  0.1485
  109MOL    C6232678   6.915   1.994   1.954  0.1969 -0.2556 -0.2248
  109MOL    C6332679   6.915   2.021   1.795 -0.1530  0.0861  0.1501
  109MOL    C6432680   6.896   2.176   1.766 -0.2560  0.4017  0.0570
  109MOL    C6532681   7.043   1.973   1.736 -0.3151  0.2728 -0.5903
  109MOL    O6632682   7.129   2.046   1.697  0.7278  0.3062 -0.7751
  109MOL    O6732683   7.061   1.843   1.746  0.5935 -0.2484 -0.0500
  109MOL    C6832684   7.181   1.783   1.692  0.4720  0.0490  0.9499
  109MOL    H6932685   6.829   2.051   1.990  1.5497  0.9986  1.0819
  109MOL    H7032686   6.887   1.891   1.976 -0.9628 -0.3225 -1.9014
  109MOL    H7132687   6.815   2.229   1.816  0.3297  1.3904 -0.0188
  109MOL    H7232688   6.985   2.237   1.781  1.4830 -2.0556 -0.1114
  109MOL    H7332689   6.869   2.189   1.661  1.3629  1.1451 -0.2859
  109MOL    H7432690   7.225   1.721   1.770  2.3289  0.4960  0.2846
  109MOL    H7532691   7.264   1.847   1.662 -0.9152  0.7381 -1.5717
  109MOL    H7632692   7.166   1.710   1.613 -1.8355 -0.0937  1.4631
  109MOL    C7732693   6.786   1.948   1.728 -0.3487 -0.4373  0.4921
  109MOL    C7832694   6.759   1.914   1.575 -0.5141  0.3703 -0.6399
  109MOL    C7932695   6.785   2.025   1.473 -0.7510  0.5604  0.0710
  109MOL    C8032696   6.859   1.797   1.543 -0.1958  0.3862  0.2907
  109MOL    O8132697   6.944   1.794   1.454  0.6538  0.5239 -0.6221
  109MOL    O8232698   6.832   1.685   1.620 -0.3961 -0.2015  0.1727
  109MOL    C8332699   6.907   1.565   1.593  0.0954 -0.1755 -0.8754
  109MOL    H8432700   6.708   2.015   1.764 -2.0262 -1.1502 -1.6925
  109MOL    H8532701   6.758   1.858   1.782 -1.9704 -0.5128 -0.4100
  109MOL    H8632702   6.886   2.066   1.484 -0.2789 -0.4976 -0.2920
  109MOL    H8732703   6.783   1.999   1.368  4.1776  0.1834 -0.0831
  109MOL    H8832704   6.723   2.111   1.498  1.0216  2.2595 -1.1854
  109MOL    H8932705   7.002   1.575   1.645  1.5104  0.5203 -3.5092
  109MOL    H9032706   6.902   1.536   1.488  1.2473  0.6778 -1.1772
  109MOL    H9132707   6.874   1.483   1.656  0.7979  1.8483  2.2154
  109MOL    C9232708   6.607   1.865   1.565  0.5060  0.0007 -0.0145
  109MOL    C9332709   6.530   1.849   1.430  0.4537 -0.8463  0.6155
  109MOL    C9432710   6.485   1.988   1.382  0.1628  0.1303 -0.1545
  109MOL    C9532711   6.629   1.796   1.316  0.2475  0.4341 -0.1750
  109MOL    O9632712   6.659   1.851   1.207  0.2314  0.7133  0.5464
  109MOL    O9732713   6.659   1.664   1.343  0.4631 -0.6334  0.3622
  109MOL    C9832714   6.743   1.586   1.266 -0.3439  0.5718  0.0704
  109MOL    H9932715   6.550   1.936   1.626  1.6484  1.4049 -0.5551
  109MOL   H10032716   6.589   1.776   1.625  0.6847  0.3315  0.5349
  109MOL   H10132717   6.431   1.982   1.287 -0.0763 -2.2581  0.1076
  109MOL   H10232718   6.417   2.040   1.449  2.4683  3.5440 -0.3084
  109MOL   H10332719   6.564   2.059   1.357 -2.5473  3.0765 -0.7322
  109MOL   H10432720   6.697   1.566   1.169  0.7635  0.2812 -0.4018
  109MOL   H10532721   6.766   1.494   1.321  1.4499  0.2799 -1.1336
  109MOL   H10632722   6.837   1.636   1.244 -0.5439  0.0305 -2.1105
  109MOL   C10732723   6.407   1.752   1.457  0.1484  0.6864  0.3584
  109MOL   C10832724   6.282   1.738   1.361  0.3039 -0.2797 -0.1452
  109MOL   C10932725   6.198   1.617   1.408  0.0785  0.0416 -0.3647
  109MOL   C11032726   6.194   1.862   1.359  0.1334  0.8932 -0.0465
  109MOL   O11132727   6.183   1.933   1.259  0.0257 -0.3357 -0.2709
  109MOL   O11232728   6.147   1.888   1.480 -0.1501 -0.2931 -0.2283
  109MOL   C11332729   6.060   2.002   1.498 -0.1362 -0.1594  0.3091
  109MOL   H11432730   6.379   1.788   1.556  0.5806  1.6050  0.1481
  109MOL   H11532731   6.450   1.654   1.476 -2.0120 -0.3356  0.0961
  109MOL   H11632732   6.260   1.527   1.413 -0.4463 -0.1932  2.5384
  109MOL   H11732733   6.172   1.640   1.511 -2.1690  1.8877 -1.2957
  109MOL   H11832734   6.099   1.611   1.363  0.2318  0.5535 -0.7731
  109MOL   H11932735   6.004   1.998   1.592 -2.7406  0.9877 -1.1364
  109MOL   H12032736   5.975   1.999   1.430  0.7124  2.1742 -0.9035
  109MOL   H12132737   6.116   2.095   1.500 -0.5034  0.0523  2.3231
  109MOL   C12232738   6.335   1.702   1.216 -0.7488  0.7390  0.6555
  109MOL   C12332739   6.257   1.637   1.090 -0.3000  0.6018  0.2013
  109MOL   C12432740   6.122   1.706   1.069 -0.3266 -0.5750 -0.0950
  109MOL   C12532741   6.347   1.666   0.960  0.6781  0.1519 -0.5029
  109MOL   O12632742   6.303   1.702   0.849 -0.2009  0.5685 -0.6050
  109MOL   O12732743   6.477   1.631   0.979 -0.3137  0.0747 -0.3435
  109MOL   C12832744   6.579   1.651   0.880 -0.4119  0.6726 -0.0360
  109MOL   H12932745   6.407   1.623   1.235 -1.1199  0.1088 -0.5339
  109MOL   H13032746   6.392   1.794   1.201 -1.9998  1.9501  2.9707
  109MOL   H13132747   6.066   1.652   0.992 -0.6786 -1.8888  1.0747
  109MOL   H13232748   6.064   1.705   1.161  0.9005  0.8719  0.7270
  109MOL   H13332749   6.119   1.808   1.032 -2.9335 -1.0094 -1.2052
  109MOL   H13432750   6.648   1.722   0.927  0.0881 -1.0356  1.9039
  109MOL   H13532751   6.538   1.701   0.792  0.1610 -0.7160 -1.1043
  109MOL   H13632752   6.632   1.560   0.854 -1.7610 -0.3506  0.7473
  109MOL   C13732753   6.247   1.476   1.106  0.8141  0.3738 -0.1778
  109MOL   C13832754   6.143   1.386   1.024 -0.5461 -0.6895  0.1711
  109MOL   C13932755   6.003   1.397   1.095 -0.5310  0.0336  0.3074
  109MOL   C14032756   6.135   1.417   0.869  0.0080  0.5015  0.2172
  109MOL   O14132757   6.027   1.443   0.817  0.3490  0.2698 -0.0229
  109MOL   O14232758   6.251   1.404   0.812 -0.1208 -0.3232 -0.9309
  109MOL   C14332759   6.262   1.416   0.670  0.1163  0.3045  0.0289
  109MOL   H14432760   6.227   1.455   1.211 -0.4140  3.2653  0.2153
  109MOL   H14532761   6.350   1.445   1.088  1.0508  0.2225  1.3358
  109MOL   H14632762   5.985   1.500   1.126 -0.9758  0.6702 -1.9780
  109MOL   H14732763   5.920   1.373   1.029 -0.8093  0.0432  0.6562
  109MOL   H14832764   5.990   1.325   1.175  3.0485 -1.0447 -0.0027
  109MOL   H14932765   6.364   1.443   0.641  0.7106 -0.3904  1.4587
  109MOL   H15032766   6.190   1.489   0.633  0.0517  0.6760  0.8698
  109MOL   H15132767   6.238   1.320   0.626 -1.5057  0.9444 -0.5235
  109MOL   C15232768   6.205   1.244   1.046  0.3923 -0.3253  0.7621
  109MOL   C15332769   6.149   1.107   0.984 -0.2340 -0.1462 -0.1990
  109MOL   C15432770   6.213   1.003   1.079 -0.2668 -0.1067  0.0131
  109MOL   C15532771   5.999   1.105   1.003 -0.5020  0.0122 -0.3988
  109MOL   O15632772   5.916   1.128   0.910  0.4283 -0.0170 -0.3858
  109MOL   O15732773   5.955   1.083   1.125  0.0932  0.1193  0.2968
  109MOL   C15832774   5.813   1.093   1.158 -0.4209 -0.2016  0.2970
  109MOL   H15932775   6.200   1.234   1.154 -5.4591 -0.9739  0.6196
  109MOL   H16032776   6.312   1.239   1.028 -0.0001 -2.1016 -1.2976
  109MOL   H16132777   6.220   1.024   1.186  0.1493  0.6155 -0.1556
  109MOL   H16232778   6.164   0.907   1.060 -1.5352  0.6838 -0.8187
  109MOL   H16332779   6.317   0.997   1.046 -0.2668 -0.1312  0.0178
  109MOL   H16432780   5.776   1.195   1.163 -0.6094 -0.3185  1.3388
  109MOL   H16532781   5.792   1.045   1.253  0.9600 -0.9981  0.2126
  109MOL   H16632782   5.754   1.028   1.092  2.3878 -1.7986 -0.7389
  109MOL   C16732783   6.193   1.097   0.835  0.2857  0.0931 -0.8779
  109MOL   C16832784   6.189   0.977   0.739 -1.2804 -0.3202  0.4900
  109MOL   C16932785   6.264   1.024   0.607  0.6656 -0.0237  0.5371
  109MOL   C17032786   6.270   0.854   0.801  0.0233  0.4436 -0.4490
  109MOL   O17132787   6.215   0.768   0.860 -0.1083 -0.2363  0.1946
  109MOL   O17232788   6.398   0.854   0.768  0.0564 -0.8587  0.7271
  109MOL   C17332789   6.471   0.735   0.773  0.3090 -0.3348 -0.1743
  109MOL   H17432790   6.299   1.120   0.844  0.0815  0.5507  0.5269
  109MOL   H17532791   6.152   1.173   0.769  0.3505 -0.3671 -1.4517
  109MOL   H17632792   6.231   1.119   0.564 -0.0931 -1.0623 -1.2253
  109MOL   H17732793   6.368   1.049   0.625  0.7705  0.5740 -0.8551
  109MOL   H17832794   6.260   0.954   0.523 -0.0248 -1.3059  1.6204
  109MOL   H17932795   6.479   0.702   0.669 -2.9822  1.4992 -1.1024
  109MOL   H18032796   6.422   0.656   0.831 -1.0683  0.2075 -0.5583
  109MOL   H18132797   6.571   0.748   0.814 -0.2860  1.6431  0.7207
  109MOL   C18232798   6.040   0.929   0.706 -0.1172 -0.1454  0.2606
  109MOL   C18332799   5.947   0.994   0.594  0.3284  0.0974  0.5383
  109MOL   C18432800   5.944   1.154   0.592 -0.3724  0.7330 -0.1758
  109MOL   C18532801   6.004   0.951   0.457 -0.3601  0.2128 -0.0263
  109MOL   O18632802   6.049   1.032   0.376  0.6255  0.1527  0.1273
  109MOL   O18732803   6.006   0.822   0.439 -0.2532  0.3682 -0.8385
  109MOL   C18832804   6.072   0.769   0.330  0.0453 -0.0236 -0.3803
  109MOL   H18932805   5.995   0.922   0.805 -1.1244 -1.2918 -0.2659
  109MOL   H19032806   6.053   0.822   0.690  1.7512  0.0629  0.3266
  109MOL   H19132807   5.885   1.195   0.674 -0.8165  1.0257 -0.6401
  109MOL   H19232808   6.042   1.202   0.600 -0.0995  0.1804 -0.1716
  109MOL   H19332809   5.910   1.196   0.498 -0.9286 -0.6163 -0.5764
  109MOL   H19432810   6.061   0.661   0.322  2.0833 -0.2498 -0.3901
  109MOL   H19532811   6.180   0.781   0.319  0.2156  0.8931  2.0142
  109MOL   H19632812   6.023   0.808   0.241  1.5008  1.7107 -0.4393
  109MOL   C19732813   5.803   0.938   0.624  0.1280  0.2166  0.5442
  109MOL   C19832814   5.673   0.973   0.541 -0.1643  0.0340 -0.5604
  109MOL   C19932815   5.562   0.874   0.588  0.3255  0.0158 -0.2830
  109MOL   C20032816   5.635   1.118   0.584 -0.0756  0.0672  0.4455
  109MOL   O20132817   5.630   1.211   0.507 -0.1475  0.3543 -0.3390
  109MOL   O20232818   5.602   1.134   0.713  0.2941 -0.0288 -0.1251
  109MOL   C20332819   5.586   1.265   0.766 -0.2374 -0.2430  0.0863
  109MOL   H20432820   5.778   0.972   0.725  0.2586  0.4629  0.4950
  109MOL   H20532821   5.808   0.829   0.623  0.1454  0.2300 -0.6537
  109MOL   H20632822   5.471   0.901   0.535 -0.6795 -0.1330  1.3019
  109MOL   H20732823   5.594   0.777   0.552 -0.6750 -0.2250 -0.5242
  109MOL   H20832824   5.553   0.870   0.697 -0.4590 -0.9818 -0.3777
  109MOL   H20932825   5.492   1.315   0.746  0.2458  0.6124 -0.0767
  109MOL   H21032826   5.661   1.335   0.731 -0.8191 -0.4494 -1.6074
  109MOL   H21132827   5.594   1.252   0.874 -0.4995  0.3987  0.1839
  109MOL   C21232828   5.704   0.960   0.382 -0.1771 -0.0986 -0.5631
  109MOL   C21332829   5.596   0.939   0.264 -0.4126  0.1520 -0.5389
  109MOL   C21432830   5.546   0.792   0.260 -0.2531 -0.6742  0.0743
  109MOL   C21532831   5.472   1.034   0.283  0.0786 -0.1872 -0.1993
  109MOL   O21632832   5.365   0.984   0.313  0.1196 -0.1858 -0.0911
  109MOL   O21732833   5.494   1.170   0.262 -0.0117  0.4080 -0.4942
  109MOL   C21832834   5.388   1.260   0.282  1.0423 -0.2717  0.7987
  109MOL   H21932835   5.769   0.872   0.383  0.0450  0.0724  0.1593
  109MOL   H22032836   5.773   1.042   0.360 -0.3501  0.1626 -0.1246
  109MOL   H22132837   5.465   0.781   0.187 -0.2580  2.0216 -0.3627
  109MOL   H22232838   5.625   0.730   0.217  0.0779  0.8115 -1.5482
  109MOL   H22332839   5.520   0.757   0.360 -0.4862  0.3948  0.3909
  109MOL   H22432840   5.303   1.235   0.347 -0.6521 -0.0254 -1.2670
  109MOL   H22532841   5.340   1.288   0.188  1.3129  2.1557  1.3539
  109MOL   H22632842   5.431   1.355   0.313  0.5577  0.5937 -1.0986
  109MOL   C22732843   5.671   0.981   0.130 -0.5516  0.0431  0.2203
  109MOL   C22832844   5.617   0.964   7.860  0.3987  0.1736 -0.4024
  109MOL   C22932845   5.531   0.834   7.831 -0.0989  0.0173  0.2012
  109MOL   C23032846   5.528   1.087   7.831 -0.0260  0.0166  0.0980
  109MOL   O23132847   5.574   1.201   7.816 -0.1992  0.5213 -0.1001
  109MOL   O23232848   5.391   1.068   7.833 -0.2168 -0.2751 -0.5489
  109MOL   C23332849   5.300   1.165   7.791  0.0857 -0.0036 -0.1125
  109MOL   H23432850   5.770   0.937   0.138 -0.7012 -0.2135  0.7156
  109MOL   H23532851   5.692   1.086   0.151  1.3836 -0.2930  0.0417
  109MOL   H23632852   5.424   0.837   7.856 -1.3459 -0.8033 -4.5721
  109MOL   H23732853   5.511   0.837   7.724 -0.9181 -0.5322  0.3330
  109MOL   H23832854   5.568   0.734   7.854 -0.6836 -0.1493  0.4496
  109MOL   H23932855   5.329   1.208   7.696  2.9091  3.1196  2.0542
  109MOL   H24032856   5.320   1.242   7.866 -0.4575 -1.1097  1.1942
  109MOL   H24132857   5.193   1.147   7.801  0.4449 -2.2898 -0.0188
  109MOL   C24232858   5.732   0.978   7.751  0.2018  0.3774 -1.0009
  109MOL   C24332859   5.835   0.863   7.716  0.9433  0.4513  0.4607
  109MOL   C24432860   5.878   0.775   7.839 -0.0653  0.2488  0.4624
  109MOL   C24532861   5.783   0.772   7.597 -0.3406  0.4941  0.0462
  109MOL   O24632862   5.675   0.789   7.538 -0.0668 -0.6668  0.0598
  109MOL   O24732863   5.858   0.668   7.571 -0.2568 -0.1497  0.0046
  109MOL   C24832864   5.816   0.566   7.486  0.6782 -0.2297 -0.1469
  109MOL   H24932865   5.787   1.065   7.787 -2.0068  1.0585  0.8727
  109MOL   H25032866   5.690   1.010   7.656  1.3212  0.4087 -1.4839
  109MOL   H25132867   5.792   0.738   0.018 -0.0991 -0.6079 -0.1414
  109MOL   H25232868   5.935   0.689   7.803 -1.6097 -0.1508 -1.0995
  109MOL   H25332869   5.938   0.823   0.039 -0.0693 -3.8357  3.1546
  109MOL   H25432870   5.717   0.532   7.518 -0.4215  0.8638 -2.2755
  109MOL   H25532871   5.876   0.475   7.487 -0.8074 -1.2348  0.0185
  109MOL   H25632872   5.795   0.610   7.389 -1.7989  1.3305  1.0328
  109MOL   C25732873   5.966   0.948   7.669 -0.3461 -0.2604  0.3198
  109MOL   C25832874   5.991   1.035   7.541  0.3803 -0.4358 -0.3333
  109MOL   C25932875   5.999   0.941   7.418 -0.1200 -0.0328 -0.0544
  109MOL   C26032876   5.879   1.143   7.525 -0.5491  1.1437  1.0013
  109MOL   O26132877   5.802   1.149   7.425 -0.2171 -0.5260  0.3397
  109MOL   O26232878   5.879   1.227   7.629  0.2807 -0.3578 -0.0391
  109MOL   C26332879   5.795   1.338   7.622  0.6192 -0.1086 -0.5448
  109MOL   H26432880   6.041   0.869   7.673  1.9246  1.7066 -1.8252
  109MOL   H26532881   5.989   1.004   7.760 -0.4591 -0.3941  0.4303
  109MOL   H26632882   6.029   1.004   7.335  1.0231 -0.9881 -0.3819
  109MOL   H26732883   6.062   0.858   7.449  0.6400  0.9178  0.9908
  109MOL   H26832884   5.899   0.903   7.394 -0.9416  2.0558 -0.1114
  109MOL   H26932885   5.812   1.393   7.529  0.3300  1.3039  0.2302
  109MOL   H27032886   5.832   1.400   7.704  1.1374 -1.3212  0.1480
  109MOL   H27132887   5.688   1.319   7.630  0.5744  0.8868  1.6002
  109MOL   C27232888   6.129   1.106   7.569 -0.4396  0.2007 -0.1516
  109MOL   C27332889   6.185   1.228   7.489 -0.5549  0.3516 -0.1132
  109MOL   C27432890   6.341   1.209   7.487 -0.2037 -0.5027 -0.0893
  109MOL   C27532891   6.149   1.221   7.333  0.3068 -0.0714 -0.3721
  109MOL   O27632892   6.223   1.157   7.255  0.1324 -0.2674  0.0421
  109MOL   O27732893   6.047   1.298   7.307 -1.2356 -0.3474  0.4627
  109MOL   C27832894   5.990   1.286   7.181  0.2447  0.1481  0.1634
  109MOL   H27932895   6.199   1.024   7.558  0.6903  1.0525  0.5659
  109MOL   H28032896   6.127   1.130   7.676  1.2129 -0.6190  0.0659
  109MOL   H28132897   6.369   1.184   7.589 -1.4951  0.1923  0.4501
  109MOL   H28232898   6.380   1.125   7.430 -1.8268 -0.8187 -0.7653
  109MOL   H28332899   6.395   1.297   7.452 -0.6477  0.8987  2.6419
  109MOL   H28432900   5.894   1.235   7.180  1.4786 -2.1976 -0.4986
  109MOL   H28532901   6.055   1.229   7.115  0.5950  0.5943  0.1146
  109MOL   H28632902   5.982   1.387   7.141  1.6887 -0.4974 -1.7984
  109MOL   C28732903   6.158   1.374   7.552 -0.5408  0.2972  0.2239
  109MOL   C28832904   6.222   1.422   7.693 -0.1386 -0.1271 -0.4109
  109MOL   C28932905   6.210   1.575   7.714  0.0736 -0.0027  0.0744
  109MOL   C29032906   6.173   1.344   7.809  0.0761 -0.2134  0.2557
  109MOL   O29132907   6.243   1.263   7.863  0.0099 -0.0785 -0.0902
  109MOL   O29232908   6.041   1.368   7.839  0.4146 -0.1893  0.0199
  109MOL   C29332909   5.979   1.276   0.042 -0.3701  0.8826  0.1361
  109MOL   H29432910   6.050   1.380   7.562 -0.8959 -3.2136 -1.0157
  109MOL   H29532911   6.195   1.440   7.474  2.0759 -1.4319 -0.0627
  109MOL   H29632912   6.113   1.602   7.754 -1.6495 -0.3380 -3.7186
  109MOL   H29732913   6.292   1.621   7.770  0.6121  1.7799 -2.0904
  109MOL   H29832914   6.213   1.633   7.622  0.8435  1.0038  0.7261
  109MOL   H29932915   6.014   1.175   0.019 -1.7886  0.3389  0.2755
  109MOL   H30032916   5.873   1.266   0.019 -0.0325 -3.1842 -0.0325
  109MOL   H30132917   5.987   1.292   0.150  0.3013  1.5748 -0.0115
  109MOL   H30232918   6.329   1.400   7.693  0.0670  0.8429  0.5273
  110MOL     C132919   1.141   2.538   0.881  0.1779 -0.5595  0.0095
  110MOL     C232920   1.040   2.633   0.948 -0.1510 -0.0741 -0.2608
  110MOL     C332921   0.937   2.689   0.845 -0.0089  0.0931 -0.4472
  110MOL     C432922   0.964   2.538   1.049  0.9845 -0.1027 -0.2211
  110MOL     O532923   1.013   2.509   1.163  0.3374 -0.3095  0.2491
  110MOL     O632924   0.860   2.475   0.990 -0.2426 -0.2222  0.0716
  110MOL     C732925   0.767   2.396   1.066 -0.0297 -0.1356  0.2351
  110MOL     H832926   1.201   2.574   0.797  3.0478 -2.5727  1.1103
  110MOL     H932927   1.227   2.504   0.939 -0.3271  1.2716  1.9082
  110MOL    H1032928   0.854   2.739   0.896 -1.7924 -2.8986 -0.2429
  110MOL    H1132929   0.984   2.760   0.778  0.3323  2.0958  1.8772
  110MOL    H1232930   0.896   2.609   0.783  0.2682 -0.8972  0.6384
  110MOL    H1332931   0.742   2.448   1.159 -1.5084  0.7981 -0.6746
  110MOL    H1432932   0.825   2.304   1.080 -0.5871 -0.4323  0.6263
  110MOL    H1532933   0.672   2.376   1.018  0.4574 -0.9252 -0.4013
  110MOL    H1632934   1.084   2.459   0.833 -0.8882  0.6589 -0.7674
  110MOL    C1732935   1.132   2.748   1.018 -0.1256 -0.1914  0.3455
  110MOL    C1832936   1.090   2.855   1.123 -0.0437  0.3945  0.0250
  110MOL    C1932937   0.986   2.956   1.053 -0.3457 -0.7029  0.1645
  110MOL    C2032938   1.031   2.797   1.251  0.7540 -0.7632  1.3643
  110MOL    O2132939   0.915   2.817   1.283  0.0425  0.4347 -0.4775
  110MOL    O2232940   1.120   2.726   1.320  0.1331  0.7373  0.6668
  110MOL    C2332941   1.094   2.662   1.445  0.7381  0.2688 -0.1105
  110MOL    H2432942   1.188   2.794   0.936  1.4032 -1.7842  0.4682
  110MOL    H2532943   1.210   2.693   1.071  1.7926  1.7436 -0.3464
  110MOL    H2632944   0.973   3.053   1.101 -2.3042 -1.2126  0.6810
  110MOL    H2732945   1.006   2.983   0.949 -0.4370  1.1155  0.6061
  110MOL    H2832946   0.889   2.907   1.062  0.1899 -2.0471 -1.1812
  110MOL    H2932947   1.061   2.738   1.515 -0.2626 -0.8474  0.6626
  110MOL    H3032948   1.181   2.603   1.476  0.9217 -0.4186 -1.8234
  110MOL    H3132949   1.007   2.598   1.435 -0.7552  2.3227 -0.3820
  110MOL    C3232950   1.216   2.943   1.167  0.4306  0.1133 -0.4142
  110MOL    C3332951   1.295   3.066   1.104 -0.5753 -0.4014  0.5189
  110MOL    C3432952   1.369   3.011   0.975 -0.1134 -0.5858 -0.2812
  110MOL    C3532953   1.200   3.189   1.075 -0.6573  0.4293 -0.2902
  110MOL    O3632954   1.186   3.239   0.958 -0.1190 -0.1810  0.3233
  110MOL    O3732955   1.155   3.235   1.193 -1.3700 -0.8272  0.8227
  110MOL    C3832956   1.071   3.351   1.192  0.0696 -0.0344  0.4307
  110MOL    H3932957   1.301   2.875   1.181  0.3426  0.5743  2.7130
  110MOL    H4032958   1.189   2.969   1.269 -0.3829 -2.3690  0.0363
  110MOL    H4132959   1.416   3.091   0.919 -1.0634 -0.4900 -0.9607
  110MOL    H4232960   1.428   2.921   0.992  0.1697 -0.1805  0.9576
  110MOL    H4332961   1.285   2.995   0.907 -0.5562  1.5853 -0.2701
  110MOL    H4432962   1.100   3.433   1.126 -0.2131 -0.6891 -0.5248
  110MOL    H4532963   1.047   3.383   1.293 -1.8882 -0.6654  0.1879
  110MOL    H4632964   0.984   3.302   1.149 -1.0726  2.7207 -0.4954
  110MOL    C4732965   1.408   3.099   1.210  0.0677  0.4392  0.1108
  110MOL    C4832966   1.505   3.226   1.206 -0.1459  0.2712 -0.0548
  110MOL    C4932967   1.523   3.284   1.061  0.1956 -0.0286 -0.4279
  110MOL    C5032968   1.454   3.346   1.298 -0.2821 -0.4347  0.5975
  110MOL    O5132969   1.413   3.451   1.248 -0.1007 -0.5717 -0.9035
  110MOL    O5232970   1.437   3.318   1.429  0.3892  0.5504 -0.3254
  110MOL    C5332971   1.365   3.406   1.505  0.2710 -0.6292  0.2969
  110MOL    H5432972   1.469   3.009   1.219 -2.1829 -0.9056  2.1118
  110MOL    H5532973   1.355   3.109   1.304  2.6237 -0.4054  1.6864
  110MOL    H5632974   1.569   3.224   0.982  1.7243  3.5693 -2.3721
  110MOL    H5732975   1.436   3.325   1.011  0.1515 -0.7275 -0.9281
  110MOL    H5832976   1.598   3.363   1.064 -0.2136  0.4888 -2.8202
  110MOL    H5932977   1.270   3.413   1.453  0.2656 -1.2147  0.2183
  110MOL    H6032978   1.406   3.506   1.517 -1.0544 -0.0668  0.1908
  110MOL    H6132979   1.342   3.379   1.608 -0.7774  0.5144  0.3588
  110MOL    C6232980   1.647   3.202   1.266 -0.2040  0.7657 -0.6597
  110MOL    C6332981   1.775   3.141   1.196  0.4522 -0.0232  0.2799
  110MOL    C6432982   1.730   3.000   1.133  0.5573 -0.7128 -0.1368
  110MOL    C6532983   1.826   3.222   1.080 -0.2693 -0.6638 -1.0566
  110MOL    O6632984   1.820   3.176   0.967 -0.2595  0.0442  0.3460
  110MOL    O6732985   1.879   3.345   1.112  0.1643  0.3384  0.3378
  110MOL    C6832986   1.927   3.422   1.011 -0.2445  0.5567  0.1187
  110MOL    H6932987   1.632   3.141   1.354  1.3354  2.0190  0.4979
  110MOL    H7032988   1.674   3.294   1.318  0.2459 -0.3835  1.1883
  110MOL    H7132989   1.816   2.940   1.104  1.1738  1.1006 -2.1696
  110MOL    H7232990   1.671   2.948   1.209  1.3322  2.3662  2.6958
  110MOL    H7332991   1.670   3.005   1.042  0.2645 -1.4668  0.0145
  110MOL    H7432992   2.008   3.377   0.952  0.1162 -1.3742  2.0228
  110MOL    H7532993   1.970   3.516   1.044 -1.5447  1.2726 -0.1939
  110MOL    H7632994   1.850   3.450   0.939 -2.0497  0.3290  1.9351
  110MOL    C7732995   1.882   3.113   1.304  0.4742 -0.1854  0.2122
  110MOL    C7832996   2.036   3.085   1.284  0.1019 -1.0351  0.3196
  110MOL    C7932997   2.062   3.001   1.152  0.2256  0.0129  0.2606
  110MOL    C8032998   2.107   3.219   1.261  0.4656  0.1219  0.3312
  110MOL    O8132999   2.174   3.238   1.157 -0.6984 -0.4371  0.2472
  110MOL    O8233000   2.095   3.311   1.360 -1.0586 -0.0154  0.0595
  110MOL    C8333001   2.164   3.434   1.347 -0.4943 -0.4964 -0.0727
  110MOL    H8433002   1.848   3.016   1.341  1.7802 -0.6841  0.1320
  110MOL    H8533003   1.883   3.195   1.375 -1.2781  0.2775 -0.2807
  110MOL    H8633004   2.035   2.897   1.172  1.7719 -0.8823 -2.0629
  110MOL    H8733005   2.005   3.040   1.068 -0.4324  1.6217  1.4337
  110MOL    H8833006   2.164   3.010   1.116  0.1558 -2.4650 -0.6857
  110MOL    H8933007   2.136   3.492   1.434  1.2606  0.6160 -0.2303
  110MOL    H9033008   2.143   3.509   1.270  2.8541  1.7578  1.0993
  110MOL    H9133009   2.270   3.417   1.329 -0.5414 -1.1122  0.2359
  110MOL    C9233010   2.109   3.035   1.416 -0.1195 -0.3167  0.1308
  110MOL    C9333011   2.147   2.889   1.439  0.7598  0.3504 -0.0063
  110MOL    C9433012   2.019   2.806   1.445 -0.8027  0.2568  0.8770
  110MOL    C9533013   2.255   2.830   1.339  0.0802 -0.2467 -0.2461
  110MOL    O9633014   2.322   2.908   1.268 -0.2588 -0.0231 -0.0925
  110MOL    O9733015   2.252   2.692   1.336 -0.1169  0.2508  0.3214
  110MOL    C9833016   2.336   2.626   1.239  0.4299  0.7132  0.2396
  110MOL    H9933017   2.073   3.096   1.498 -3.3778 -1.8084 -0.0899
  110MOL   H10033018   2.207   3.082   1.418  0.0132 -0.5055 -1.0081
  110MOL   H10133019   2.044   2.709   1.487 -0.8141 -0.6609 -1.1732
  110MOL   H10233020   1.939   2.841   1.510 -1.5000 -0.8241  0.5978
  110MOL   H10333021   1.959   2.814   1.355 -0.5170  0.2106  0.6795
  110MOL   H10433022   2.437   2.665   1.247  0.4811  0.5486  0.3920
  110MOL   H10533023   2.302   2.636   1.136  1.7903  2.9002 -0.0291
  110MOL   H10633024   2.341   2.520   1.262 -0.0086  0.4312 -0.9245
  110MOL   C10733025   2.213   2.875   1.584  0.2314  0.0079 -0.4610
  110MOL   C10833026   2.348   2.940   1.646 -0.0786 -0.0554 -0.7551
  110MOL   C10933027   2.459   2.959   1.539 -0.1091 -0.2246  0.4843
  110MOL   C11033028   2.332   3.085   1.699 -0.2463  0.8311  0.5657
  110MOL   O11133029   2.405   3.120   1.788 -0.1660 -0.2628 -0.9330
  110MOL   O11233030   2.262   3.171   1.631  0.7867  0.1778  0.4495
  110MOL   C11333031   2.257   3.313   1.652  0.0764 -0.8371  0.1904
  110MOL   H11433032   2.235   2.769   1.595 -2.1941 -0.3055  1.7185
  110MOL   H11533033   2.130   2.884   1.654 -0.0289 -0.4685 -0.7033
  110MOL   H11633034   2.437   3.025   1.455 -3.2942 -2.1883 -0.3077
  110MOL   H11733035   2.546   3.007   1.584  0.8805 -1.7129  0.2000
  110MOL   H11833036   2.495   2.861   1.507  0.9762  0.7947 -1.5203
  110MOL   H11933037   2.328   3.369   1.590 -0.5815  1.2153  1.2228
  110MOL   H12033038   2.281   3.346   1.753  0.3537  0.7154 -0.3646
  110MOL   H12133039   2.160   3.352   1.621 -0.8718 -1.3653  2.4423
  110MOL   C12233040   2.408   2.850   1.754  0.3409 -0.8930 -0.6081
  110MOL   C12333041   2.325   2.790   1.880  0.1943 -0.2663  1.0542
  110MOL   C12433042   2.228   2.898   1.943 -0.3247 -0.1962  0.8169
  110MOL   C12533043   2.242   2.659   1.828 -0.1707 -0.5089 -0.2084
  110MOL   O12633044   2.281   2.577   1.740 -0.3725 -0.4514  0.3362
  110MOL   O12733045   2.123   2.646   1.890 -0.3817 -0.3473 -0.0340
  110MOL   C12833046   2.026   2.544   1.839 -0.1664  0.0447  1.1673
  110MOL   H12933047   2.497   2.897   1.796  0.6402  1.7404 -3.9933
  110MOL   H13033048   2.448   2.764   1.700  2.9054 -0.5086  0.6176
  110MOL   H13133049   2.153   2.936   1.874  1.0112  1.4907  0.2474
  110MOL   H13233050   2.159   2.850   2.013  0.4613  0.6134  2.1701
  110MOL   H13333051   2.267   2.991   1.984  1.4408 -0.9247  0.8270
  110MOL   H13433052   2.077   2.448   1.839  0.3704  0.2651 -2.3846
  110MOL   H13533053   1.984   2.556   1.738  2.1463 -2.7502 -0.1833
  110MOL   H13633054   1.939   2.532   1.903 -0.8087  0.7127  0.4399
  110MOL   C13733055   2.430   2.743   1.983  0.8759 -0.2578 -0.0715
  110MOL   C13833056   2.406   2.651   2.105  0.3436 -0.1169  1.2115
  110MOL   C13933057   2.278   2.687   2.184  0.2817 -0.5204 -0.2213
  110MOL   C14033058   2.386   2.504   2.069  0.4243  0.4155 -0.2181
  110MOL   O14133059   2.302   2.433   2.127 -0.3166 -0.2320 -0.0522
  110MOL   O14233060   2.471   2.456   1.971  0.0195  0.5017 -0.7943
  110MOL   C14333061   2.460   2.322   1.929 -1.0102  0.0772  0.2601
  110MOL   H14433062   2.472   2.837   2.019  0.1976 -0.0637  0.2110
  110MOL   H14533063   2.509   2.703   1.919  2.6646  2.7996  0.1112
  110MOL   H14633064   2.272   2.791   2.217  0.6218 -0.3404 -0.7220
  110MOL   H14733065   2.180   2.670   2.141 -0.1849  0.4905  0.4170
  110MOL   H14833066   2.262   2.623   2.271  1.6237 -1.1596 -0.4328
  110MOL   H14933067   2.480   2.252   2.010  2.0842  0.0186 -0.4904
  110MOL   H15033068   2.546   2.308   1.865 -2.2984  0.9780 -1.7324
  110MOL   H15133069   2.362   2.311   1.883 -0.2240  0.1646 -1.4600
  110MOL   C15233070   2.516   2.660   2.216  0.2949 -0.2252 -0.1566
  110MOL   C15333071   2.673   2.674   2.194  0.6367  0.2076  0.0494
  110MOL   C15433072   2.732   2.574   2.091  0.3760  0.0937 -0.2145
  110MOL   C15533073   2.697   2.819   2.144  1.2320  0.1294  0.3636
  110MOL   O15633074   2.652   2.911   2.206 -0.7070 -0.6278 -0.0859
  110MOL   O15733075   2.776   2.823   2.027 -0.3013  0.1655 -0.0273
  110MOL   C15833076   2.831   2.953   1.990  0.0481  0.0566  0.8068
  110MOL   H15933077   2.502   2.567   2.272 -0.7571 -0.3143 -0.5594
  110MOL   H16033078   2.489   2.738   2.286 -0.0407  0.0506 -0.5879
  110MOL   H16133079   2.712   2.473   2.129  0.9495 -0.6504 -1.8669
  110MOL   H16233080   2.690   2.591   1.992  0.6105  1.3339 -0.1082
  110MOL   H16333081   2.838   2.595   2.076  0.4700 -0.1546  0.0958
  110MOL   H16433082   2.770   2.983   1.905 -0.2591  1.5625  1.5464
  110MOL   H16533083   2.927   2.926   1.946  0.8931  1.3086  1.8425
  110MOL   H16633084   2.827   3.021   2.075  0.9669  1.6712 -0.4132
  110MOL   C16733085   2.737   2.658   2.334 -0.2398  0.1719 -0.0651
  110MOL   C16833086   2.886   2.610   2.364 -0.4188 -0.2612  0.3798
  110MOL   C16933087   2.911   2.603   2.518 -0.1443 -0.5046  0.3462
  110MOL   C17033088   2.909   2.462   2.311 -0.5272  0.0038  0.0466
  110MOL   O17133089   2.996   2.438   2.227  0.5210  0.3733 -0.5024
  110MOL   O17233090   2.818   2.376   2.344  0.5255  0.3856  0.2464
  110MOL   C17333091   2.832   2.239   2.320  0.1186 -0.1736  0.3051
  110MOL   H17433092   2.672   2.597   2.396  0.7854  0.8969  1.7903
  110MOL   H17533093   2.725   2.752   2.387 -1.6018 -0.2650  0.3999
  110MOL   H17633094   3.017   2.592   2.539  0.2392  1.4741 -0.4750
  110MOL   H17733095   2.871   2.688   2.573 -1.5224 -1.7907  1.3532
  110MOL   H17833096   2.859   2.519   2.563 -0.2960  0.6704  2.4488
  110MOL   H17933097   2.787   2.197   2.410  2.2217 -2.2282  0.4261
  110MOL   H18033098   2.930   2.198   2.298  0.2088 -1.4411  2.9066
  110MOL   H18133099   2.767   2.200   2.242  1.3630  0.2930 -0.9802
  110MOL   C18233100   2.999   2.700   2.298  0.3701 -0.6567  0.2165
  110MOL   C18333101   3.062   2.837   2.360  0.5546 -0.0220 -0.1797
  110MOL   C18433102   2.950   2.939   2.384 -0.2107 -0.7221  0.0805
  110MOL   C18533103   3.143   2.813   2.492 -0.3659  0.1086 -0.5412
  110MOL   O18633104   3.109   2.875   2.592  0.4936  0.3365 -0.1073
  110MOL   O18733105   3.235   2.714   2.490  0.3496 -0.2207  0.0309
  110MOL   C18833106   3.300   2.686   2.616  0.0800 -0.4614  0.1844
  110MOL   H18933107   2.962   2.719   2.198  1.4393  2.3369  0.3519
  110MOL   H19033108   3.087   2.637   2.284  0.8836 -0.2287  1.4496
  110MOL   H19133109   2.904   2.952   2.286  0.1988 -1.5454 -0.2238
  110MOL   H19233110   2.882   2.898   2.459  0.1368 -1.2473  0.1176
  110MOL   H19333111   2.982   3.039   2.411 -0.2912 -0.6429 -0.1197
  110MOL   H19433112   3.357   2.594   2.623  0.4226 -0.1525  1.4207
  110MOL   H19533113   3.234   2.704   2.701  0.7362  0.1237  0.5675
  110MOL   H19633114   3.381   2.759   2.618 -0.7803  0.4722  1.7777
  110MOL   C19733115   3.155   2.890   2.243  0.4411  0.4008 -0.0736
  110MOL   C19833116   3.270   3.004   2.251  0.0769  0.0501 -0.4083
  110MOL   C19933117   3.228   3.125   2.335  0.6214 -0.3550 -0.7667
  110MOL   C20033118   3.399   2.950   2.320  0.1360  0.2759  0.0307
  110MOL   O20133119   3.440   2.835   2.292 -0.0437  0.3295  0.1838
  110MOL   O20233120   3.463   3.038   2.389 -0.0605  0.1410  0.0773
  110MOL   C20333121   3.571   2.996   2.470 -0.2284  0.2478  0.3146
  110MOL   H20433122   3.091   2.911   2.158 -1.6070 -2.2397  0.7290
  110MOL   H20533123   3.203   2.796   2.216  1.0214  0.5414  0.4622
  110MOL   H20633124   3.301   3.206   2.337  0.7543 -0.4861 -0.2794
  110MOL   H20733125   3.138   3.173   2.296  2.1288  1.3976 -2.1734
  110MOL   H20833126   3.205   3.108   2.440 -1.0725  2.0154 -0.7109
  110MOL   H20933127   3.562   2.900   2.521 -2.2365  0.4396  0.3382
  110MOL   H21033128   3.610   3.068   2.542  2.7406  1.1601 -2.0802
  110MOL   H21133129   3.657   2.990   2.403 -0.0749 -0.3695  0.5603
  110MOL   C21233130   3.293   3.055   2.104 -0.0230  0.2020 -0.4078
  110MOL   C21333131   3.390   2.991   1.997 -0.0683  0.0634  0.2581
  110MOL   C21433132   3.534   3.016   2.046  0.7325  0.3220 -0.3363
  110MOL   C21533133   3.365   2.834   1.987  0.3579 -0.0394  0.6603
  110MOL   O21633134   3.457   2.756   1.982 -0.3061 -0.3063 -0.2625
  110MOL   O21733135   3.238   2.800   1.968  0.2942  0.1724  0.5142
  110MOL   C21833136   3.213   2.658   1.956  0.0875  0.5015  0.3023
  110MOL   H21933137   3.310   3.162   2.100  0.0288  0.1410 -2.2034
  110MOL   H22033138   3.197   3.064   2.053  0.9581 -0.9874 -2.5613
  110MOL   H22133139   3.540   3.093   2.123 -0.5194 -0.4819  0.5931
  110MOL   H22233140   3.591   2.933   2.088 -1.4345 -0.1287  1.8513
  110MOL   H22333141   3.594   3.050   1.962  1.6449  0.2369  0.2754
  110MOL   H22433142   3.237   2.607   2.050  0.3123  0.0145 -0.0182
  110MOL   H22533143   3.269   2.610   1.876 -1.7679 -2.3720  0.6531
  110MOL   H22633144   3.110   2.637   1.928  0.3795  0.0811 -0.4708
  110MOL   C22733145   3.350   3.062   1.857 -0.2113 -0.2157 -0.7958
  110MOL   C22833146   3.393   3.013   1.712  0.2630 -0.1192 -0.2449
  110MOL   C22933147   3.385   3.133   1.610  0.3927 -0.0157 -0.1359
  110MOL   C23033148   3.542   2.973   1.704 -0.1487 -0.7827  0.1344
  110MOL   O23133149   3.585   2.855   1.698 -0.5279  0.0853  0.2118
  110MOL   O23233150   3.619   3.075   1.718 -0.4647  0.0867 -0.2095
  110MOL   C23333151   3.763   3.057   1.716 -0.1275  0.5869  1.0175
  110MOL   H23433152   3.372   3.169   1.860 -0.3436 -0.2425  1.9076
  110MOL   H23533153   3.241   3.060   1.851 -0.3199  0.5696  0.6207
  110MOL   H23633154   3.441   3.217   1.650 -1.0691 -0.2895  2.6612
  110MOL   H23733155   3.417   3.096   1.513 -1.5557 -1.7362 -0.1731
  110MOL   H23833156   3.283   3.168   1.594  0.3299 -0.5864 -1.0290
  110MOL   H23933157   3.797   2.967   1.666 -0.6483  0.6584  0.5385
  110MOL   H24033158   3.805   3.061   1.816 -0.1132 -0.3071  1.0445
  110MOL   H24133159   3.816   3.131   1.655 -0.6582 -0.3219 -0.5746
  110MOL   C24233160   3.307   2.890   1.662  0.5785 -0.4070  0.4516
  110MOL   C24333161   3.159   2.901   1.603 -0.1030 -0.4070 -0.2429
  110MOL   C24433162   3.070   2.989   1.689  0.3011 -0.0102  0.1952
  110MOL   C24533163   3.170   2.955   1.455 -0.4173 -1.0001  0.1495
  110MOL   O24633164   3.245   2.905   1.373  0.0544  0.4627 -0.6526
  110MOL   O24733165   3.085   3.052   1.428  0.3831  0.0918  0.9649
  110MOL   C24833166   3.080   3.107   1.290  0.6007  0.1334 -0.2137
  110MOL   H24933167   3.303   2.806   1.731 -0.3366 -2.1549 -1.6645
  110MOL   H25033168   3.361   2.839   1.582  1.1350  0.7978  0.0406
  110MOL   H25133169   2.967   2.997   1.655 -0.0781  1.6774  1.6834
  110MOL   H25233170   3.075   2.955   1.792  0.4565 -0.1550  0.1404
  110MOL   H25333171   3.110   3.090   1.699 -1.1291  0.5115  0.7554
  110MOL   H25433172   3.009   3.190   1.291  1.4003  0.8268 -0.0349
  110MOL   H25533173   3.046   3.030   1.220  1.2822 -0.6839  0.3562
  110MOL   H25633174   3.174   3.150   1.256  1.0414  0.1394  0.9929
  110MOL   C25733175   3.101   2.753   1.605  0.3062  0.1538 -0.0975
  110MOL   C25833176   2.959   2.691   1.569 -0.5146 -0.7845  0.3238
  110MOL   C25933177   2.859   2.732   1.685  0.3854  0.0168 -0.3726
  110MOL   C26033178   2.913   2.754   1.433  0.4104  0.0924 -0.0155
  110MOL   O26133179   2.818   2.826   1.419 -0.3944  0.2762  0.6479
  110MOL   O26233180   2.985   2.707   1.331  0.7112 -0.2173 -0.0931
  110MOL   C26333181   2.931   2.730   1.195 -1.0948 -0.1547  0.5167
  110MOL   H26433182   3.119   2.717   1.707  1.0303  1.4593  0.2429
  110MOL   H26533183   3.173   2.694   1.549 -1.8504 -3.1637  0.4646
  110MOL   H26633184   2.760   2.687   1.678  0.5783 -0.6681  1.0329
  110MOL   H26733185   2.894   2.715   1.787  0.9408  0.9910 -0.3910
  110MOL   H26833186   2.827   2.836   1.678 -1.2706 -0.4623 -0.1178
  110MOL   H26933187   2.848   2.660   1.183  1.0811 -2.6702 -0.3059
  110MOL   H27033188   3.009   2.723   1.119 -2.5958 -1.2523 -0.9844
  110MOL   H27133189   2.904   2.835   1.190  2.7201  0.8540  0.2677
  110MOL   C27233190   2.979   2.528   1.559 -0.0136  0.5195  0.5120
  110MOL   C27333191   2.854   2.427   1.587  0.6663  0.5345 -0.7399
  110MOL   C27433192   2.833   2.419   1.741  0.8869  0.6423  0.3022
  110MOL   C27533193   2.720   2.449   1.512 -0.2374 -0.5422  0.1109
  110MOL   O27633194   2.713   2.472   1.390  0.3324 -0.1232 -0.9142
  110MOL   O27733195   2.613   2.423   1.590  0.1128  0.8583 -0.2468
  110MOL   C27833196   2.480   2.420   1.538 -0.1374 -0.4973 -0.5574
  110MOL   H27933197   3.063   2.502   1.622  0.6747 -0.4989 -0.7958
  110MOL   H28033198   3.013   2.498   1.460  1.2391  0.9577  0.7991
  110MOL   H28133199   2.746   2.356   1.763  0.1954  1.0674 -1.1687
  110MOL   H28233200   2.926   2.396   1.793 -0.6361 -0.2947  2.7509
  110MOL   H28333201   2.788   2.509   1.783 -2.6628 -1.4801  1.3361
  110MOL   H28433202   2.463   2.526   1.517 -0.9246 -0.4260  0.4088
  110MOL   H28533203   2.417   2.379   1.616 -0.3018 -0.0509 -0.4526
  110MOL   H28633204   2.472   2.358   1.449  0.0972  1.1222 -1.7402
  110MOL   C28733205   2.896   2.280   1.543 -0.2702 -0.2784 -0.3383
  110MOL   C28833206   2.796   2.154   1.566  0.0902  0.3317 -0.2357
  110MOL   C28933207   2.788   2.070   1.438  0.0603  0.7819 -0.0680
  110MOL   C29033208   2.827   2.067   1.687  0.4679 -0.4603 -0.1055
  110MOL   O29133209   2.942   2.042   1.721  0.3383  0.4535  0.1904
  110MOL   O29233210   2.719   2.029   1.748 -0.4608 -0.1871 -0.7342
  110MOL   C29333211   2.734   1.972   1.879  0.0317  0.4788  0.3877
  110MOL   H29433212   2.992   2.263   1.592 -0.2369  1.5663  0.2690
  110MOL   H29533213   2.919   2.289   1.437 -1.8226 -0.1309 -0.6724
  110MOL   H29633214   2.761   2.137   1.357 -1.5273  2.0017  1.4363
  110MOL   H29733215   2.887   2.029   1.417  0.7870  0.9048  2.8554
  110MOL   H29833216   2.711   1.994   1.452 -1.0078  1.9138  0.2985
  110MOL   H29933217   2.639   1.961   1.931 -0.1442 -1.1166 -0.2468
  110MOL   H30033218   2.796   2.022   1.954  0.7997 -0.0814  0.1347
  110MOL   H30133219   2.763   1.868   1.864 -1.8410 -0.0667  0.5082
  110MOL   H30233220   2.701   2.199   1.592 -0.6442 -1.8077  0.9242
  111MOL     C133221   4.693   7.727   6.788 -0.8510 -0.2797  0.2231
  111MOL     C233222   4.561   7.795   6.736 -0.2113 -0.6349  0.3585
  111MOL     C333223   4.577   7.816   6.581 -0.1409 -0.0368 -0.3281
  111MOL     C433224   4.446   7.692   6.750  1.1093 -0.3847 -0.4799
  111MOL     O533225   4.469   7.570   6.726  0.7491  0.2353 -0.3094
  111MOL     O633226   4.322   7.751   6.773  0.5499  0.8048 -0.2647
  111MOL     C733227   4.202   7.682   6.796  0.1631 -1.0117 -0.8897
  111MOL     H833228   4.781   7.785   6.761 -0.8859 -0.5468 -0.4686
  111MOL     H933229   4.685   7.705   6.894  1.1356  1.8173  0.8446
  111MOL    H1033230   4.654   0.012   6.560 -1.2695  0.6591 -2.0786
  111MOL    H1133231   4.591   7.721   6.530  0.6335  1.3092 -2.6994
  111MOL    H1233232   4.480   7.854   6.550  0.3438  3.0943  1.7282
  111MOL    H1333233   4.198   7.643   6.898 -1.1750 -2.0652 -1.3280
  111MOL    H1433234   4.191   7.596   6.730  1.6289 -2.0034  0.1237
  111MOL    H1533235   4.116   7.747   6.779 -2.1649 -3.2478  1.8414
  111MOL    H1633236   4.702   7.627   6.746  1.4444  0.3272 -0.7704
  111MOL    C1733237   4.543   0.057   6.800  0.0085 -0.0012  0.7094
  111MOL    C1833238   4.550   0.089   6.946  0.0943 -0.4088  1.0330
  111MOL    C1933239   4.462   7.863   7.030 -0.1524 -0.0348  0.2476
  111MOL    C2033240   4.692   0.085   7.000 -0.2061 -0.3460 -0.3202
  111MOL    O2133241   4.709   0.033   7.109 -0.2600  0.1829 -0.7836
  111MOL    O2233242   4.789   0.140   6.917  0.7217  0.4936 -0.3708
  111MOL    C2333243   4.926   0.143   6.960  0.0091  0.1669 -0.4984
  111MOL    H2433244   4.444   0.092   6.771  0.8988  3.4852  1.6527
  111MOL    H2533245   4.606   0.124   6.741 -2.3212  0.0701 -1.8279
  111MOL    H2633246   4.471   7.756   7.014  1.3727  0.3784 -1.7368
  111MOL    H2733247   4.468   7.858   7.139  0.4638  0.1293  0.2193
  111MOL    H2833248   4.355   7.866   7.005 -0.5467  1.7018  2.0129
  111MOL    H2933249   4.987   0.192   6.885  1.5721  0.0520  0.6762
  111MOL    H3033250   4.959   0.040   6.975  1.7222  0.5904 -1.2779
  111MOL    H3133251   4.945   0.190   7.057  0.7629  1.7913 -1.4177
  111MOL    C3233252   4.476   0.233   6.958  0.7258 -0.1694  0.0655
  111MOL    C3333253   4.489   0.331   7.080  0.2985  0.1574  0.0242
  111MOL    C3433254   4.496   0.258   7.214 -0.0652  0.0703 -0.2252
  111MOL    C3533255   4.618   0.410   7.068  0.3792  0.1471  0.1733
  111MOL    O3633256   4.722   0.373   7.120 -0.2662 -0.3092  0.0833
  111MOL    O3733257   4.610   0.504   6.975  0.3246 -0.2913  0.8342
  111MOL    C3833258   4.731   0.580   6.955  0.3687  0.1798 -0.3518
  111MOL    H3933259   4.372   0.202   6.953  0.9738 -0.8731 -0.7891
  111MOL    H4033260   4.500   0.291   6.868  1.4206  0.1016  0.4165
  111MOL    H4133261   4.518   0.346   7.275  1.5261 -1.1408  1.0121
  111MOL    H4233262   4.402   0.209   7.237 -0.8181  0.8309 -1.6437
  111MOL    H4333263   4.577   0.187   7.232 -0.8760 -0.5527  1.0817
  111MOL    H4433264   4.769   0.632   7.042 -0.2970  1.9975 -1.1307
  111MOL    H4533265   4.719   0.658   6.880  0.1503 -0.0682 -0.5769
  111MOL    H4633266   4.811   0.511   6.927 -0.7265 -1.5310  0.6233
  111MOL    C4733267   4.367   0.424   7.070  0.6154  0.5430  0.1937
  111MOL    C4833268   4.217   0.403   7.143 -0.2005 -0.0490  0.0882
  111MOL    C4933269   4.168   0.255   7.109  0.5371  0.1903  0.4000
  111MOL    C5033270   4.229   0.435   7.296  0.5103 -1.0703 -0.0011
  111MOL    O5133271   4.204   0.357   7.391 -0.0582 -0.0004  0.6560
  111MOL    O5233272   4.269   0.562   7.327 -0.3587 -0.2960  0.1783
  111MOL    C5333273   4.293   0.614   7.457 -0.1477 -0.1023 -0.3379
  111MOL    H5433274   4.356   0.457   6.966  1.1070 -0.3545 -0.1462
  111MOL    H5533275   4.393   0.520   7.113  0.2331  1.5269 -1.7115
  111MOL    H5633276   4.123   0.238   7.011 -2.7386 -2.2990  2.2172
  111MOL    H5733277   4.232   0.170   7.130 -0.0762 -0.4974 -0.4714
  111MOL    H5833278   4.082   0.219   7.165  0.1830  0.6263  0.1446
  111MOL    H5933279   4.357   0.544   7.512 -1.6672 -0.8247  0.5501
  111MOL    H6033280   4.196   0.633   7.503  0.2574  0.7948  0.1688
  111MOL    H6133281   4.343   0.711   7.455  0.0510 -0.1778  0.4431
  111MOL    C6233282   4.118   0.490   7.064  0.4247  0.1217  1.1990
  111MOL    C6333283   3.978   0.538   7.118 -1.2159 -0.0839  0.4222
  111MOL    C6433284   3.893   0.416   7.166  0.0867  0.1787  0.1144
  111MOL    C6533285   3.987   0.639   7.236  0.2975  0.5966  0.1963
  111MOL    O6633286   3.936   0.622   7.345  0.0196  0.2832  0.3785
  111MOL    O6733287   4.054   0.747   7.200  0.7778 -0.2775 -0.1741
  111MOL    C6833288   4.095   0.851   7.296  0.1694  0.1905 -0.2204
  111MOL    H6933289   4.083   0.438   6.975  0.7883 -3.9152  3.2854
  111MOL    H7033290   4.174   0.577   7.030 -0.1154  0.1181  0.3008
  111MOL    H7133291   3.921   0.348   7.247  0.2598 -1.2458 -1.1112
  111MOL    H7233292   3.787   0.437   7.181 -0.5482 -2.8677  0.2831
  111MOL    H7333293   3.884   0.337   7.091 -0.2320  0.8965 -0.6121
  111MOL    H7433294   4.051   0.844   7.395 -1.3905  1.7362 -0.7764
  111MOL    H7533295   4.051   0.945   7.264 -0.8819 -0.6641 -1.3421
  111MOL    H7633296   4.204   0.851   7.292  0.1432 -0.3660 -1.2761
  111MOL    C7733297   3.908   0.603   6.993 -0.1365  0.1453  0.4838
  111MOL    C7833298   3.778   0.701   6.991 -0.6672  0.1787  0.2215
  111MOL    C7933299   3.678   0.670   7.109 -0.1291  0.0922 -0.3026
  111MOL    C8033300   3.816   0.850   7.006  0.6073 -0.2291  0.0149
  111MOL    O8133301   3.758   0.914   7.090  0.0344 -0.5422  0.0248
  111MOL    O8233302   3.918   0.895   6.928 -0.3975 -0.6132  0.7478
  111MOL    C8333303   3.943   1.033   6.926 -0.3999 -0.2632  0.2483
  111MOL    H8433304   3.889   0.518   6.927  0.9610 -0.0527  0.4002
  111MOL    H8533305   3.983   0.666   6.944 -1.2682  0.8749 -0.3173
  111MOL    H8633306   3.631   0.572   7.100  0.7893 -0.5410  1.4603
  111MOL    H8733307   3.726   0.656   7.206 -0.0695 -0.7865 -0.4564
  111MOL    H8833308   3.588   0.731   7.116  0.2505  0.4836  1.5806
  111MOL    H8933309   4.034   1.058   6.873 -0.5336 -1.2513 -0.4570
  111MOL    H9033310   3.954   1.072   7.028 -0.6516 -0.3674  0.3159
  111MOL    H9133311   3.858   1.079   6.876 -1.4015 -0.1018  2.0358
  111MOL    C9233312   3.715   0.664   6.850 -0.2557 -0.2028 -0.6732
  111MOL    C9333313   3.592   0.738   6.791  0.0167 -0.4589  0.3335
  111MOL    C9433314   3.476   0.770   6.893 -0.4636  0.4750 -0.2010
  111MOL    C9533315   3.634   0.882   6.734 -0.1628 -0.2278  0.2610
  111MOL    O9633316   3.586   0.987   6.777  0.2982  0.3931 -0.4917
  111MOL    O9733317   3.718   0.875   6.630 -0.3622 -0.1252 -0.4027
  111MOL    C9833318   3.773   1.001   6.592  0.3420  0.4704 -0.7253
  111MOL    H9933319   3.694   0.557   6.848 -0.0871 -0.3344  2.5058
  111MOL   H10033320   3.793   0.688   6.777 -0.5262  0.7930 -0.6480
  111MOL   H10133321   3.383   0.812   6.853  0.4031  0.5772 -2.1237
  111MOL   H10233322   3.444   0.689   6.959 -1.5969  0.8494 -0.2809
  111MOL   H10333323   3.506   0.859   6.948 -1.5457  0.8949 -0.2654
  111MOL   H10433324   3.828   1.005   6.498  1.6925 -0.0712  0.0293
  111MOL   H10533325   3.822   1.053   6.675 -0.6437  0.8029 -0.3391
  111MOL   H10633326   3.680   1.053   6.567 -0.6391 -1.1208 -0.4394
  111MOL   C10733327   3.527   0.676   6.657  0.6765  0.9404  0.0566
  111MOL   C10833328   3.430   0.555   6.649  0.8357 -0.5970  0.5447
  111MOL   C10933329   3.495   0.432   6.723  0.0697 -0.0062  0.1782
  111MOL   C11033330   3.288   0.591   6.705 -0.2403  0.5635 -0.6800
  111MOL   O11133331   3.237   0.706   6.701 -0.2751 -0.1913  0.0835
  111MOL   O11233332   3.222   0.490   6.766  0.0579  0.0899 -0.0069
  111MOL   C11333333   3.091   0.499   6.801 -0.8333 -0.4252 -0.1862
  111MOL   H11433334   3.602   0.669   6.578 -0.4916 -1.7579 -0.8735
  111MOL   H11533335   3.468   0.759   6.618  0.3374  0.6064 -0.1533
  111MOL   H11633336   3.510   0.462   6.827  0.8204 -2.4061  0.8243
  111MOL   H11733337   3.443   0.337   6.713 -0.1731 -0.0015  1.3205
  111MOL   H11833338   3.598   0.413   6.693 -0.1062  1.0514 -1.0971
  111MOL   H11933339   3.041   0.423   6.741 -2.0813 -0.4955  0.9245
  111MOL   H12033340   3.053   0.601   6.791  2.0740  0.6717 -0.3355
  111MOL   H12133341   3.067   0.481   6.906 -3.3092 -1.1701 -0.8431
  111MOL   C12233342   3.427   0.511   6.495 -0.5503 -0.5231  0.9779
  111MOL   C12333343   3.307   0.442   6.420 -0.7190  0.2755  0.3464
  111MOL   C12433344   3.373   0.373   6.295 -0.1421 -0.2650  0.3635
  111MOL   C12533345   3.238   0.326   6.494 -0.1283 -0.0344  0.0149
  111MOL   O12633346   3.132   0.328   6.555 -0.5123  0.1004  0.0992
  111MOL   O12733347   3.303   0.212   6.489  0.1400 -0.5089  0.1012
  111MOL   C12833348   3.258   0.097   6.560 -0.4083  0.4086 -0.7328
  111MOL   H12933349   3.515   0.452   6.472 -2.5194 -2.9949 -0.4807
  111MOL   H13033350   3.444   0.598   6.432 -3.8480 -1.3985 -1.2490
  111MOL   H13133351   3.425   0.442   6.228 -2.3077 -1.0362 -2.2282
  111MOL   H13233352   3.451   0.304   6.326  0.0969 -0.7441 -1.2253
  111MOL   H13333353   3.296   0.324   6.235  0.2342 -0.1414 -0.2300
  111MOL   H13433354   3.306   0.005   6.527 -1.5261  0.4308 -2.5195
  111MOL   H13533355   3.152   0.080   6.578  0.0472 -1.6294  0.0912
  111MOL   H13633356   3.304   0.108   6.658  0.8021  0.9060 -1.3339
  111MOL   C13733357   3.209   0.553   6.374  0.1572 -0.9898  0.1106
  111MOL   C13833358   3.086   0.543   6.274  0.0384 -0.4184 -0.0781
  111MOL   C13933359   3.137   0.550   6.127  0.7372 -1.0045  0.0069
  111MOL   C14033360   2.986   0.414   6.287 -0.5743 -0.4277 -0.5839
  111MOL   O14133361   2.867   0.417   6.314 -0.4093  0.0728  0.0303
  111MOL   O14233362   3.052   0.301   6.273 -0.5959 -0.2518 -0.5193
  111MOL   C14333363   2.993   0.177   6.306 -0.2732  0.2905 -0.0189
  111MOL   H14433364   3.277   0.625   6.329 -0.6459 -0.5416 -0.4070
  111MOL   H14533365   3.168   0.591   6.468 -0.0808  2.6829 -1.4055
  111MOL   H14633366   3.053   0.563   6.059  0.4572 -2.1500  0.1202
  111MOL   H14733367   3.202   0.637   6.115  1.8181 -1.7852  0.1800
  111MOL   H14833368   3.184   0.457   6.095  0.3174 -1.1910 -0.0682
  111MOL   H14933369   2.887   0.165   6.285 -0.6376  1.0513  1.3564
  111MOL   H15033370   3.017   0.151   6.409 -0.6891 -0.9033 -0.2123
  111MOL   H15133371   3.038   0.108   6.234 -0.6969  0.8129 -0.7929
  111MOL   C15233372   2.997   0.672   6.280  0.1414  0.8378 -0.0460
  111MOL   C15333373   2.967   0.756   6.408  0.0149 -0.1256 -0.4666
  111MOL   C15433374   2.910   0.655   6.514 -0.0136 -0.4409  0.5551
  111MOL   C15533375   3.080   0.847   6.464 -0.4907  0.3052 -0.4537
  111MOL   O15633376   3.188   0.854   6.405 -0.6656  0.3654  0.5047
  111MOL   O15733377   3.044   0.921   6.567  0.1344  0.0083 -0.3776
  111MOL   C15833378   3.128   1.021   6.617 -0.3243  0.5355 -0.3557
  111MOL   H15933379   2.903   0.652   6.229  0.6264 -0.5874 -0.4058
  111MOL   H16033380   3.045   0.744   6.213  2.7863 -0.0768  0.8086
  111MOL   H16133381   2.877   0.692   6.611  1.5116 -2.2431  1.7833
  111MOL   H16233382   2.822   0.607   6.471  0.5926 -0.7028 -0.4029
  111MOL   H16333383   2.982   0.580   6.546  0.5648 -0.3663 -0.5217
  111MOL   H16433384   3.086   1.074   6.702 -2.4535 -0.3352 -0.8197
  111MOL   H16533385   3.149   1.088   6.534  0.1803  0.2833 -0.4341
  111MOL   H16633386   3.221   0.973   6.648  0.9257  3.9003  1.2528
  111MOL   C16733387   2.851   0.859   6.373  0.0414 -0.4015 -0.3674
  111MOL   C16833388   2.848   0.979   6.268 -0.1506 -0.8719  0.0802
  111MOL   C16933389   2.976   1.075   6.284  0.0335 -0.4559  0.8948
  111MOL   C17033390   2.863   0.925   6.126  0.5039  0.6898 -0.1423
  111MOL   O17133391   2.963   0.942   6.058 -0.5034 -0.1897 -0.2152
  111MOL   O17233392   2.765   0.836   6.090  0.3731  0.0199 -0.0375
  111MOL   C17333393   2.771   0.779   5.964 -0.5676  0.1434 -0.2742
  111MOL   H17433394   2.824   0.909   6.466  3.4773  0.4697  0.2269
  111MOL   H17533395   2.758   0.802   6.359 -0.1458 -0.0704 -0.4776
  111MOL   H17633396   2.978   1.142   6.199 -1.1840  1.3552  2.2391
  111MOL   H17733397   2.984   1.129   6.379  2.8865 -0.4880  0.6975
  111MOL   H17833398   3.070   1.020   6.279 -0.6448 -1.5708  0.2731
  111MOL   H17933399   2.804   0.843   5.882  1.3255 -1.7191 -0.9906
  111MOL   H18033400   2.668   0.756   5.939  0.0206 -2.2649 -0.5291
  111MOL   H18133401   2.835   0.692   5.948 -0.9438 -0.3963  1.1020
  111MOL   C18233402   2.708   1.049   6.275  0.2430 -0.2042 -0.1579
  111MOL   C18333403   2.668   1.155   6.379 -0.1183  0.3653 -0.4833
  111MOL   C18433404   2.661   1.095   6.524  0.1924  0.4605  0.2123
  111MOL   C18533405   2.773   1.272   6.368  0.5397  0.0092  0.4252
  111MOL   O18633406   2.837   1.314   6.463  0.1045 -0.6493 -0.4943
  111MOL   O18733407   2.776   1.317   6.241 -0.2976  0.4373  0.1652
  111MOL   C18833408   2.857   1.431   6.207  0.2420 -0.1984  0.5315
  111MOL   H18933409   2.637   0.965   6.278  1.6978 -1.4280  0.6530
  111MOL   H19033410   2.710   1.102   6.179 -1.5941 -0.7078 -0.5050
  111MOL   H19133411   2.763   1.087   6.562  0.5589 -0.1691 -0.9023
  111MOL   H19233412   2.609   1.154   6.600 -0.5789 -0.4003  0.3680
  111MOL   H19333413   2.613   0.998   6.510  1.8682 -0.4221  0.4841
  111MOL   H19433414   2.842   1.510   6.281 -1.2353  2.1423 -2.1418
  111MOL   H19533415   2.842   1.474   6.108  2.7311  0.3074  0.3504
  111MOL   H19633416   2.959   1.397   6.191  0.1071 -0.5393  0.4071
  111MOL   C19733417   2.520   1.201   6.345 -0.4936  0.7860  0.8334
  111MOL   C19833418   2.440   1.329   6.388  1.0521  0.0487 -0.2720
  111MOL   C19933419   2.459   1.348   6.535  0.2815  0.4350 -0.2667
  111MOL   C20033420   2.493   1.442   6.305  0.0449  0.0860 -0.0850
  111MOL   O20133421   2.479   1.445   6.183 -0.0965  0.1042  0.3077
  111MOL   O20233422   2.535   1.552   6.382 -0.1685 -0.0690  0.3484
  111MOL   C20333423   2.570   1.663   6.303 -0.0656  0.6366 -0.1696
  111MOL   H20433424   2.462   1.112   6.371  0.8789 -0.3363  0.1034
  111MOL   H20533425   2.520   1.198   6.236 -0.8855 -0.5992  0.8557
  111MOL   H20633426   2.417   1.440   6.574 -1.2563 -0.6882  0.7927
  111MOL   H20733427   2.405   1.279   6.600  0.2659  0.6123 -0.0908
  111MOL   H20833428   2.566   1.348   6.559 -0.4764 -1.3957  3.4203
  111MOL   H20933429   2.519   1.679   6.208  1.2629 -0.3634 -1.0602
  111MOL   H21033430   2.679   1.663   6.301 -0.0989  0.3034 -2.4076
  111MOL   H21133431   2.559   1.759   6.354 -0.9827  0.4345  0.0257
  111MOL   C21233432   2.292   1.300   6.358 -0.1693  0.7359 -0.3368
  111MOL   C21333433   2.163   1.385   6.397  0.2004  0.7750  0.0854
  111MOL   C21433434   2.102   1.329   6.526 -0.3475 -0.1189 -0.1309
  111MOL   C21533435   2.196   1.534   6.412  0.2492  0.5567  0.4973
  111MOL   O21633436   2.180   1.584   6.525  0.0862  0.0376  0.1756
  111MOL   O21733437   2.232   1.600   6.302  0.3730 -0.2876  0.2674
  111MOL   C21833438   2.238   1.743   6.311  0.4964  0.4422  0.0406
  111MOL   H21933439   2.266   1.207   6.409 -1.9298 -0.1571 -2.7820
  111MOL   H22033440   2.278   1.270   6.254 -0.8208  3.4705 -1.0798
  111MOL   H22133441   2.058   1.230   6.516  0.0545 -0.3151  0.0213
  111MOL   H22233442   2.176   1.314   6.606 -0.4544 -3.1417 -0.5507
  111MOL   H22333443   2.028   1.394   6.572  0.2931  1.1011 -0.7982
  111MOL   H22433444   2.144   1.763   6.362  0.3650  1.2621 -0.5203
  111MOL   H22533445   2.225   1.778   6.209  1.7685  0.2810 -0.1821
  111MOL   H22633446   2.327   1.782   6.361 -2.0839  0.9229  4.5850
  111MOL   C22733447   2.054   1.355   6.281 -0.3628 -0.6311 -0.1787
  111MOL   C22833448   1.918   1.430   6.264  0.6394  0.6688  0.4346
  111MOL   C22933449   1.833   1.465   6.389 -0.6096 -0.1345  0.4209
  111MOL   C23033450   1.936   1.564   6.188 -0.1511 -0.1687 -0.4048
  111MOL   O23133451   1.908   1.672   6.242 -0.0048 -0.5669  0.3840
  111MOL   O23233452   1.995   1.544   6.069 -0.7685 -0.7508 -0.0397
  111MOL   C23333453   2.022   1.649   5.978  0.2818  0.2264 -0.1843
  111MOL   H23433454   2.048   1.246   6.276  1.3718 -0.6346 -3.5700
  111MOL   H23533455   2.103   1.369   6.185  0.6825  0.8059  0.5468
  111MOL   H23633456   1.799   1.382   6.451  0.9063 -1.6801 -0.7669
  111MOL   H23733457   1.888   1.531   6.458  3.1339 -2.1301 -0.5116
  111MOL   H23833458   1.745   1.515   6.350 -0.4655 -0.8245 -0.8164
  111MOL   H23933459   2.102   1.610   5.914  0.1931 -0.5078  0.1413
  111MOL   H24033460   2.056   1.735   6.036 -2.0546 -0.0382  1.6555
  111MOL   H24133461   1.937   1.675   5.915  0.5892 -1.2780 -1.2524
  111MOL   C24233462   1.820   1.347   6.161 -0.2338 -0.4045  0.3874
  111MOL   C24333463   1.723   1.225   6.196 -0.1403 -0.2798  0.3311
  111MOL   C24433464   1.816   1.134   6.285 -0.0265  0.1494  0.6114
  111MOL   C24533465   1.599   1.279   6.271  0.9582  0.1789 -0.0921
  111MOL   O24633466   1.532   1.366   6.225  0.8616  0.3890  0.2266
  111MOL   O24733467   1.554   1.206   6.370  0.3218  0.0679 -0.0018
  111MOL   C24833468   1.429   1.239   6.419 -0.5459 -1.5815 -0.8097
  111MOL   H24933469   1.893   1.306   6.092 -1.5553  1.1777 -2.0265
  111MOL   H25033470   1.760   1.413   6.098 -0.8899 -3.4925 -2.3743
  111MOL   H25133471   1.850   1.194   6.369 -1.4276 -2.8300  3.4822
  111MOL   H25233472   1.764   1.050   6.333 -2.0378  1.3518  0.5764
  111MOL   H25333473   1.898   1.097   6.224 -0.1053  0.1982  0.4752
  111MOL   H25433474   1.406   1.345   6.421  0.1855 -1.4381  0.5678
  111MOL   H25533475   1.416   1.189   6.515  0.6656 -2.1094 -0.9129
  111MOL   H25633476   1.347   1.198   6.360  0.6677 -3.7383 -1.0612
  111MOL   C25733477   1.686   1.165   6.058  0.6193  0.6242 -1.1914
  111MOL   C25833478   1.585   1.043   6.047 -0.1462  0.0603  0.9430
  111MOL   C25933479   1.625   0.929   6.151  0.4440 -0.3205  0.2412
  111MOL   C26033480   1.440   1.089   6.070 -0.0879 -0.2884  0.0354
  111MOL   O26133481   1.369   1.029   6.150 -0.8826 -0.1027  0.2713
  111MOL   O26233482   1.407   1.193   5.993 -0.4952 -0.3892 -0.2538
  111MOL   C26333483   1.279   1.237   5.988  0.1532 -0.7507  0.0112
  111MOL   H26433484   1.779   1.120   6.025 -0.1965 -1.2014 -1.0567
  111MOL   H26533485   1.665   1.241   5.982  1.3353  0.1776 -1.8334
  111MOL   H26633486   1.726   0.892   6.135  0.5136 -1.0715  2.2722
  111MOL   H26733487   1.599   0.956   6.254  0.7839  0.3238  0.1596
  111MOL   H26833488   1.556   0.848   6.126 -0.1960  0.2674  0.1071
  111MOL   H26933489   1.205   1.161   5.966 -1.8787  1.3384 -0.6176
  111MOL   H27033490   1.271   1.316   5.913 -0.5583 -1.6029 -0.8057
  111MOL   H27133491   1.255   1.288   6.082  1.7945  0.8388 -0.3939
  111MOL   C27233492   1.608   0.994   5.898 -0.0563 -0.3865 -0.2516
  111MOL   C27333493   1.556   0.862   5.840 -0.2569  0.1579 -0.3917
  111MOL   C27433494   1.600   0.851   5.695 -0.0884  0.2719  0.1813
  111MOL   C27533495   1.602   0.734   5.911  0.3500 -0.1134 -0.4517
  111MOL   O27633496   1.522   0.658   5.968 -0.2776  0.3565 -0.3273
  111MOL   O27733497   1.733   0.712   5.902  0.2849 -0.2342  0.9056
  111MOL   C27833498   1.784   0.614   6.000 -0.0707 -0.2416 -0.1576
  111MOL   H27933499   1.715   0.997   5.874 -0.5614 -0.2582 -2.5957
  111MOL   H28033500   1.570   1.078   5.840  0.7738  0.9119  1.0276
  111MOL   H28133501   1.606   0.749   5.657 -0.6038  0.8996 -1.6325
  111MOL   H28233502   1.547   0.916   5.625 -2.0235 -0.8223  0.5975
  111MOL   H28333503   1.700   0.894   5.691 -1.2327  2.9405 -0.7942
  111MOL   H28433504   1.812   0.663   6.094  2.7560 -1.8606 -0.0848
  111MOL   H28533505   1.877   0.577   5.956  0.9343  2.1555 -0.1673
  111MOL   H28633506   1.732   0.521   6.020  2.1899 -1.8603 -1.5375
  111MOL   C28733507   1.401   0.857   5.840 -0.0408 -0.5953  0.1211
  111MOL   C28833508   1.320   0.742   5.774 -0.0105  0.0425  0.9840
  111MOL   C28933509   1.185   0.732   5.840  0.2407  0.4379  0.2126
  111MOL   C29033510   1.313   0.742   5.624  0.5037 -0.9474 -0.1503
  111MOL   O29133511   1.301   0.639   5.558  0.2983  0.5144  0.8679
  111MOL   O29233512   1.326   0.866   5.575 -0.1214  0.4020 -0.2918
  111MOL   C29333513   1.305   0.892   5.442  0.0492 -0.0866 -0.1954
  111MOL   H29433514   1.347   0.950   5.824  0.0099 -0.7512 -1.0306
  111MOL   H29533515   1.375   0.844   5.945  0.0329  0.6242  0.3015
  111MOL   H29633516   1.124   0.819   5.815  0.2984  0.2008 -0.7682
  111MOL   H29733517   1.138   0.662   5.771  0.1752  0.4935  0.1994
  111MOL   H29833518   1.170   0.701   5.944 -0.2099 -0.2789 -0.0640
  111MOL   H29933519   1.198   0.907   5.426  0.4304  2.4629 -0.6386
  111MOL   H30033520   1.350   0.814   5.380 -0.0521 -1.1777  1.0944
  111MOL   H30133521   1.349   0.992   5.436 -1.4985  0.6028 -0.1343
  111MOL   H30233522   1.363   0.646   5.802 -1.3533 -1.5138 -2.0096
  112MOL     C133523   5.184   4.682   3.027  0.0533  0.2202  0.0114
  112MOL     C233524   5.225   4.831   3.024 -0.0208 -0.3134  0.3419
  112MOL     C333525   5.127   4.902   2.928  0.2252  0.3853  0.2295
  112MOL     C433526   5.206   4.907   3.155 -0.7920 -0.3436 -0.0360
  112MOL     O533527   5.302   4.963   3.223 -0.4503  0.1385  0.7113
  112MOL     O633528   5.081   4.900   3.196  0.3376  0.1748 -0.1157
  112MOL     C733529   5.031   4.983   3.303 -0.2737 -0.3588  0.2358
  112MOL     H833530   5.164   4.639   3.125  0.7628 -1.0456 -0.3794
  112MOL     H933531   5.100   4.666   2.960 -0.6590  0.5412  0.8277
  112MOL    H1033532   5.023   4.905   2.962  0.7862  1.5504  1.9418
  112MOL    H1133533   5.152   5.008   2.918  0.8540  0.1880 -0.2820
  112MOL    H1233534   5.123   4.872   2.823  0.1622 -1.3379  0.7194
  112MOL    H1333535   5.032   5.088   3.274  0.2405 -0.4032  0.0870
  112MOL    H1433536   5.091   4.974   3.393  1.1998 -0.6649 -0.7602
  112MOL    H1533537   4.930   4.951   3.329 -1.2285 -0.4200 -3.2275
  112MOL    H1633538   5.253   4.611   2.982 -0.3741 -0.0055 -0.2846
  112MOL    C1733539   5.367   4.853   2.963 -0.8004 -0.9807  0.2621
  112MOL    C1833540   5.494   4.763   2.989  0.4948 -0.2708 -0.0479
  112MOL    C1933541   5.495   4.742   3.138  0.7847  0.2381 -0.3772
  112MOL    C2033542   5.485   4.627   2.912  0.5576 -0.3550 -0.0170
  112MOL    O2133543   5.509   4.517   2.962 -1.0272 -0.4294 -0.3236
  112MOL    O2233544   5.425   4.640   2.789  0.2108 -0.1051  0.2467
  112MOL    C2333545   5.421   4.526   2.687  0.6104 -0.5396 -0.0571
  112MOL    H2433546   5.389   4.959   2.972 -0.0729 -1.2019  1.0872
  112MOL    H2533547   5.348   4.844   2.856  0.2000  0.9534 -0.0826
  112MOL    H2633548   5.515   4.838   3.186 -0.5481  0.5904 -0.5112
  112MOL    H2733549   5.398   4.708   3.172  0.2007  0.3938 -1.8663
  112MOL    H2833550   5.548   4.654   3.173  0.1859  0.7300  1.8343
  112MOL    H2933551   5.321   4.483   2.682  0.8014 -0.8919 -0.9685
  112MOL    H3033552   5.512   4.467   2.700 -0.1917 -2.0821 -1.3054
  112MOL    H3133553   5.422   4.575   2.590  3.8852  0.4108  0.3801
  112MOL    C3233554   5.609   4.856   2.931 -0.2517  0.4354 -1.1244
  112MOL    C3333555   5.764   4.812   2.933 -0.5331  0.4076  0.8576
  112MOL    C3433556   5.788   4.738   3.066 -0.0795 -0.0716  0.6081
  112MOL    C3533557   5.792   4.717   2.813 -0.6551  0.6670 -0.6607
  112MOL    O3633558   5.722   4.704   2.713  0.2190 -0.2770 -0.3260
  112MOL    O3733559   5.908   4.656   2.827 -0.3254  0.2088 -0.2357
  112MOL    C3833560   5.951   4.570   2.721  0.5611 -0.0080  1.3154
  112MOL    H3933561   5.613   4.936   3.005  1.0730 -1.1686  0.5966
  112MOL    H4033562   5.577   4.896   2.835 -3.0335 -2.7083 -1.5736
  112MOL    H4133563   5.892   4.737   3.099  0.3917  2.4000 -0.7217
  112MOL    H4233564   5.734   4.782   3.150 -1.6521 -0.6822 -0.0563
  112MOL    H4333565   5.766   4.631   3.065 -0.6303  0.0331  1.0254
  112MOL    H4433566   5.952   4.615   2.622  2.7017  0.5445  1.5669
  112MOL    H4533567   5.913   4.468   2.718  0.9746 -0.1153 -2.8851
  112MOL    H4633568   6.058   4.554   2.734  0.6106  0.3842  1.3950
  112MOL    C4733569   5.869   4.929   2.938 -0.0485 -0.2762  0.0813
  112MOL    C4833570   5.871   5.049   2.827  0.2616 -0.4145 -0.0867
  112MOL    C4933571   5.837   5.006   2.685  0.2586 -0.2959 -0.3116
  112MOL    C5033572   5.767   5.156   2.866  0.1894 -0.9143 -0.4703
  112MOL    O5133573   5.721   5.169   2.978 -0.3719  0.1612  0.5202
  112MOL    O5233574   5.732   5.236   2.768 -0.4613  0.6129 -0.0734
  112MOL    C5333575   5.638   5.341   2.779 -0.5536 -0.7496  0.9369
  112MOL    H5433576   5.966   4.880   2.928 -0.2202 -0.2912 -1.5168
  112MOL    H5533577   5.868   4.973   3.038 -0.9769  0.7495 -0.3737
  112MOL    H5633578   5.847   5.085   2.611 -1.0973 -0.3157 -0.5206
  112MOL    H5733579   5.896   4.920   2.652  0.0164  0.0976 -1.7871
  112MOL    H5833580   5.734   4.969   2.683 -0.5053  1.7048  0.9017
  112MOL    H5933581   5.538   5.300   2.790 -0.5844 -1.2548 -1.0312
  112MOL    H6033582   5.637   5.389   2.682 -1.3795 -0.8952  0.8695
  112MOL    H6133583   5.669   5.411   2.856  0.1939 -0.0627  0.0185
  112MOL    C6233584   6.015   5.110   2.808  0.0448 -0.4704 -0.7515
  112MOL    C6333585   6.089   5.193   2.911  0.1383  0.0646 -0.2518
  112MOL    C6433586   6.057   5.342   2.879  0.4518 -0.4121  0.0293
  112MOL    C6533587   6.063   5.150   3.057  0.1824 -0.2626  0.6194
  112MOL    O6633588   5.979   5.215   3.125 -0.5429  0.0063 -0.1088
  112MOL    O6733589   6.117   5.039   3.096  0.0007  0.0882 -0.1853
  112MOL    C6833590   6.107   4.999   3.231 -0.4035 -0.4449 -0.2817
  112MOL    H6933591   6.022   5.151   2.707  0.6804  1.3516  0.0149
  112MOL    H7033592   6.069   5.015   2.804  2.8186  0.9638  1.3377
  112MOL    H7133593   5.952   5.361   2.858  0.5175 -0.0257  0.0541
  112MOL    H7233594   6.087   5.411   2.958 -0.6476 -0.4950  0.5335
  112MOL    H7333595   6.109   5.384   2.793 -1.8551  3.0261  0.2124
  112MOL    H7433596   6.136   5.071   3.307 -2.4456 -0.5587  0.6309
  112MOL    H7533597   6.172   4.912   3.243  0.1618  0.0633  0.3368
  112MOL    H7633598   6.007   4.973   3.264 -0.1068  0.7042  1.5857
  112MOL    C7733599   6.244   5.163   2.876 -0.3872  0.1902 -0.2771
  112MOL    C7833600   6.372   5.243   2.931  0.1615 -0.1404 -0.5180
  112MOL    C7933601   6.377   5.378   2.859 -0.0273 -0.5598  0.2766
  112MOL    C8033602   6.371   5.257   3.084  0.4326  0.6969 -0.2950
  112MOL    O8133603   6.432   5.171   3.156  0.1578  0.8386  0.8227
  112MOL    O8233604   6.296   5.358   3.132  0.2277  1.0660  0.2600
  112MOL    C8333605   6.288   5.381   3.264  0.1091  0.0137 -0.5062
  112MOL    H8433606   6.248   5.180   2.769 -0.2250 -5.4093 -1.3040
  112MOL    H8533607   6.260   5.057   2.896  1.2420  0.3480 -0.6703
  112MOL    H8633608   6.286   5.436   2.876  0.6606  0.8979 -0.8722
  112MOL    H8733609   6.444   5.448   2.908  0.5242 -1.4359  0.7858
  112MOL    H8833610   6.404   5.373   2.754 -1.4444 -0.3681 -0.1180
  112MOL    H8933611   6.262   5.290   3.318 -1.3505  0.5486 -0.2930
  112MOL    H9033612   6.194   5.437   3.265  0.5168  0.7167 -1.4426
  112MOL    H9133613   6.371   5.443   3.298  0.2499  1.7291 -3.7480
  112MOL    C9233614   6.492   5.153   2.874 -0.0891 -0.2041  0.3227
  112MOL    C9333615   6.650   5.187   2.877  0.9189 -0.0624 -0.0320
  112MOL    C9433616   6.712   5.049   2.845 -0.1235  0.3576 -0.8976
  112MOL    C9533617   6.684   5.280   2.757  0.1431  0.1429  0.2148
  112MOL    O9633618   6.747   5.240   2.654  0.3421 -0.1474  0.4542
  112MOL    O9733619   6.654   5.407   2.776  0.0267 -0.0081 -0.1985
  112MOL    C9833620   6.654   5.500   2.664  0.0311 -0.3244 -0.3210
  112MOL    H9933621   6.459   5.108   2.781 -2.2422  0.0882  0.9262
  112MOL   H10033622   6.488   5.066   2.940  0.6594  0.8344  1.7673
  112MOL   H10133623   6.820   5.057   2.832 -0.2740  4.6622 -0.3178
  112MOL   H10233624   6.696   4.980   2.927  1.1323 -0.3990 -1.2799
  112MOL   H10333625   6.672   5.000   2.755 -2.8790 -2.4260  1.7193
  112MOL   H10433626   6.584   5.582   2.678 -1.8456 -2.0259  0.4300
  112MOL   H10533627   6.624   5.459   2.567 -2.1572  2.2294 -0.7666
  112MOL   H10633628   6.755   5.541   2.664  0.0538 -0.3757 -0.6264
  112MOL   C10733629   6.697   5.242   3.016  1.3172 -0.2937  0.4626
  112MOL   C10833630   6.835   5.307   3.055  0.1502 -0.0518  0.6891
  112MOL   C10933631   6.950   5.239   2.977  0.3138 -0.2815  0.2231
  112MOL   C11033632   6.835   5.456   3.020 -0.4794 -0.0208  0.2736
  112MOL   O11133633   6.906   5.502   2.923 -0.7568  0.4442  0.2707
  112MOL   O11233634   6.759   5.533   3.109  0.5302  0.8089  0.5194
  112MOL   C11333635   6.741   5.674   3.081  0.2743 -0.3522  0.6087
  112MOL   H11433636   6.672   5.163   3.087 -2.5665 -0.1847 -0.6907
  112MOL   H11533637   6.625   5.323   3.026  0.0822 -1.2802 -0.2619
  112MOL   H11633638   7.042   5.296   2.972  1.3264 -1.7045  2.2342
  112MOL   H11733639   6.972   5.138   3.011  0.6086 -0.2236  0.2025
  112MOL   H11833640   6.929   5.222   2.871 -1.4810 -1.5156  0.7600
  112MOL   H11933641   6.835   5.712   3.041 -0.4669 -1.9001 -2.7762
  112MOL   H12033642   6.719   5.740   3.165  2.8550  0.8907  0.3387
  112MOL   H12133643   6.667   5.701   3.006 -1.6222  0.3783  2.6985
  112MOL   C12233644   6.850   5.281   3.210  0.1322  0.4522  0.0000
  112MOL   C12333645   6.970   5.326   3.306  0.8985 -0.3202 -0.0851
  112MOL   C12433646   6.916   5.297   3.453  1.1500  0.2687 -0.0529
  112MOL   C12533647   7.093   5.230   3.281  0.2909 -0.2408  0.2163
  112MOL   O12633648   7.167   5.255   3.187  0.7659  0.1417 -0.3040
  112MOL   O12733649   7.105   5.123   3.358 -0.1037 -0.3063 -0.5413
  112MOL   C12833650   7.220   5.048   3.336 -0.9868 -0.5632  0.4436
  112MOL   H12933651   6.852   5.172   3.214 -1.7208  0.4055  0.1292
  112MOL   H13033652   6.759   5.307   3.265  0.5102  1.5551  0.1093
  112MOL   H13133653   6.835   5.224   3.447 -0.0390  1.4427  1.2882
  112MOL   H13233654   6.995   5.251   3.514  2.3100 -0.7212 -2.2271
  112MOL   H13333655   6.877   5.387   3.500  3.2320  1.3695 -0.3769
  112MOL   H13433656   7.302   5.112   3.369 -0.8579  0.1109 -1.1416
  112MOL   H13533657   7.227   5.019   3.231  2.0720  1.0248  0.1533
  112MOL   H13633658   7.233   4.961   3.400  1.2278 -0.4350  0.1960
  112MOL   C13733659   7.003   5.483   3.300 -0.3215  0.5358  0.4519
  112MOL   C13833660   7.119   5.565   3.368  0.5575  0.0485 -0.2212
  112MOL   C13933661   7.133   5.514   3.515  0.5967 -0.6996  0.6048
  112MOL   C14033662   7.260   5.531   3.298  0.0775  0.4401  0.8595
  112MOL   O14133663   7.359   5.495   3.363 -0.4788  0.0271  0.2818
  112MOL   O14233664   7.262   5.555   3.167 -0.0393 -0.2975 -0.3988
  112MOL   C14333665   7.371   5.531   3.080 -1.3132  0.2867 -0.0123
  112MOL   H14433666   6.907   5.531   3.319 -0.2942  0.8175 -0.1041
  112MOL   H14533667   7.015   5.496   3.192 -1.3044 -1.7328  0.0457
  112MOL   H14633668   7.141   5.406   3.523  1.7872 -0.6175  0.5795
  112MOL   H14733669   7.212   5.568   3.567 -0.2383  1.2318 -0.0908
  112MOL   H14833670   7.039   5.541   3.563  0.3775  1.5050 -0.9936
  112MOL   H14933671   7.349   5.449   3.011 -0.5925  0.5323 -0.5382
  112MOL   H15033672   7.457   5.500   3.140 -0.6190 -0.7858 -1.5378
  112MOL   H15133673   7.387   5.623   3.024  0.0696 -0.2461 -0.5093
  112MOL   C15233674   7.078   5.717   3.358  0.5228  0.2546  0.6266
  112MOL   C15333675   7.185   5.834   3.375  0.1335 -0.0694  0.0925
  112MOL   C15433676   7.297   5.797   3.477 -0.0463  0.6112  0.1067
  112MOL   C15533677   7.266   5.860   3.246 -0.0514  0.2694 -0.6149
  112MOL   O15633678   7.387   5.854   3.239 -0.6585 -0.5552  0.4136
  112MOL   O15733679   7.194   5.905   3.149  0.7888  0.1969  0.1910
  112MOL   C15833680   7.260   5.946   3.029 -0.6981 -0.0073 -0.1714
  112MOL   H15933681   6.997   5.731   3.430 -1.3136  4.2605 -2.0588
  112MOL   H16033682   7.029   5.732   3.262 -0.7126  0.6781  1.3035
  112MOL   H16133683   7.264   5.778   3.579 -0.9079 -0.8767 -0.4260
  112MOL   H16233684   7.369   5.721   3.447 -0.5321 -0.3865  1.4355
  112MOL   H16333685   7.367   5.879   3.486 -0.2739  1.0040 -1.3850
  112MOL   H16433686   7.329   6.030   3.042 -1.4341  0.5877 -0.0319
  112MOL   H16533687   7.180   5.987   2.966 -0.3375  1.7524  0.4681
  112MOL   H16633688   7.305   5.861   2.978  1.1664  1.0369 -0.3125
  112MOL   C16733689   7.113   5.967   3.408  0.4952  0.0403  0.2002
  112MOL   C16833690   7.055   6.020   3.543 -0.3085  0.4307  0.8020
  112MOL   C16933691   6.914   5.965   3.580  0.4338  0.0045 -0.5130
  112MOL   C17033692   7.147   5.996   3.660 -0.8298 -0.1217  0.1429
  112MOL   O17133693   7.121   5.903   3.742 -0.4635 -0.3244  0.6992
  112MOL   O17233694   7.263   6.077   3.660 -0.1507 -0.2044 -0.2033
  112MOL   C17333695   7.357   6.074   3.767  0.4141  0.2236  0.2366
  112MOL   H17433696   7.040   5.978   3.328  0.9812  2.5437  0.0700
  112MOL   H17533697   7.191   6.040   3.392 -0.9138  1.2934 -1.0648
  112MOL   H17633698   6.837   5.992   3.508  0.1935 -0.1955 -0.3312
  112MOL   H17733699   6.934   5.858   3.572 -0.2552  0.0759 -4.5136
  112MOL   H17833700   6.872   5.995   3.676  2.1661  2.0320 -0.3414
  112MOL   H17933701   7.363   5.976   3.814 -2.3016  0.0351  0.2887
  112MOL   H18033702   7.321   6.136   3.849 -0.9549 -1.2894  0.8106
  112MOL   H18133703   7.453   6.110   3.730  0.9614 -1.9278 -0.4887
  112MOL   C18233704   7.035   6.170   3.517 -0.2465 -0.1366  0.0293
  112MOL   C18333705   6.958   6.268   3.612 -0.1848  0.1813  0.6518
  112MOL   C18433706   6.811   6.276   3.583 -0.5323 -0.7815  0.1413
  112MOL   C18533707   6.965   6.233   3.762 -0.7532  0.0658 -0.4691
  112MOL   O18633708   6.867   6.194   3.826  0.2061 -0.2328 -0.3938
  112MOL   O18733709   7.085   6.252   3.815  0.2639  0.2628  0.3011
  112MOL   C18833710   7.095   6.261   3.956  0.1066  1.1584 -0.2799
  112MOL   H18933711   6.989   6.170   3.418 -0.7666  0.6940  0.2695
  112MOL   H19033712   7.134   6.213   3.500 -0.7714  0.9043 -0.4576
  112MOL   H19133713   6.760   6.180   3.591  1.9574 -2.1933 -0.5378
  112MOL   H19233714   6.755   6.348   3.643 -1.1667 -0.6680 -0.5791
  112MOL   H19333715   6.790   6.301   3.479  1.8965 -0.0411 -0.1817
  112MOL   H19433716   7.139   6.359   3.973 -1.4448  1.5584  1.4775
  112MOL   H19533717   7.160   6.181   3.991 -1.0438  0.2284 -0.2267
  112MOL   H19633718   7.013   6.266   4.027  1.1784 -0.6320  1.1172
  112MOL   C19733719   7.028   6.405   3.602  0.1663 -0.5398 -0.5291
  112MOL   C19833720   7.005   6.509   3.481 -0.4758 -0.0947 -0.4842
  112MOL   C19933721   7.024   6.439   3.346 -0.8190 -0.6400 -0.5698
  112MOL   C20033722   6.873   6.580   3.506  0.0054 -0.0155 -0.4203
  112MOL   O20133723   6.776   6.573   3.430 -0.3039  0.0556 -0.2687
  112MOL   O20233724   6.881   6.649   3.623  0.4471  0.2874 -0.8605
  112MOL   C20333725   6.771   6.738   3.665  0.6834  0.6978 -0.6541
  112MOL   H20433726   7.136   6.391   3.603  0.3688  1.0431  1.0646
  112MOL   H20533727   7.005   6.466   3.689 -1.1043  0.4616 -1.5537
  112MOL   H20633728   7.121   6.389   3.343 -0.0558  0.6753  1.2479
  112MOL   H20733729   6.953   6.360   3.319 -0.7808 -0.5329 -0.9878
  112MOL   H20833730   7.016   6.519   3.273  1.9088  0.1031 -0.1257
  112MOL   H20933731   6.791   6.835   3.620  1.3354  1.0552  0.3791
  112MOL   H21033732   6.783   6.753   3.772 -0.2627 -1.2089 -0.2667
  112MOL   H21133733   6.671   6.700   3.645  0.9745 -0.3841 -0.1229
  112MOL   C21233734   7.131   6.607   3.489 -0.4548  0.5389 -0.4414
  112MOL   C21333735   7.159   6.732   3.390  0.1321  0.0615  0.2602
  112MOL   C21433736   7.021   6.808   3.362  0.3589 -0.0379  0.2161
  112MOL   C21533737   7.249   6.834   3.469  0.5212  0.0754  0.6478
  112MOL   O21633738   7.322   6.799   3.565  0.0775 -0.1017  0.7450
  112MOL   O21733739   7.251   6.960   3.419  0.2125 -0.1001  0.1989
  112MOL   C21833740   7.308   7.066   3.494 -0.0183  0.0435 -0.0942
  112MOL   H21933741   7.228   6.558   3.501  0.2097  1.9208 -0.0409
  112MOL   H22033742   7.117   6.659   3.584  0.4616 -0.9947  0.5588
  112MOL   H22133743   6.975   6.828   3.459 -0.6445  1.0234 -0.4578
  112MOL   H22233744   7.031   6.907   3.318  3.0992 -0.9349 -1.2688
  112MOL   H22333745   6.950   6.748   3.306 -0.6792  0.9339  0.4728
  112MOL   H22433746   7.325   7.151   3.427 -1.9856  0.5484  0.0086
  112MOL   H22533747   7.394   7.032   3.551 -0.5281  0.5138  0.9635
  112MOL   H22633748   7.232   7.098   3.565 -1.2845  0.0916 -1.4302
  112MOL   C22733749   7.218   6.676   3.249  0.2113  1.2602  0.1982
  112MOL   C22833750   7.354   6.723   3.183 -0.0894 -0.5121 -0.0942
  112MOL   C22933751   7.345   6.876   3.141 -0.1187 -0.9233 -0.0449
  112MOL   C23033752   7.476   6.698   3.278 -0.2073  0.2882 -0.3368
  112MOL   O23133753   7.566   6.775   3.293 -0.0756 -0.1641  0.8468
  112MOL   O23233754   7.470   6.577   3.349  0.6675 -0.0480  0.0390
  112MOL   C23333755   7.566   6.559   3.455 -0.1167 -0.0123 -0.3816
  112MOL   H23433756   7.146   6.690   3.168  1.1797  0.8642 -0.7425
  112MOL   H23533757   7.225   6.568   3.250  0.2941  1.2625  2.9322
  112MOL   H23633758   7.252   6.903   3.091 -0.6423  0.0886  1.4539
  112MOL   H23733759   7.362   6.946   3.223  3.0881 -0.1207 -1.2950
  112MOL   H23833760   7.421   6.913   3.072  0.8445 -1.0418  0.9314
  112MOL   H23933761   7.664   6.553   3.408  0.1713  0.0670  0.2185
  112MOL   H24033762   7.557   6.461   3.502 -1.8445  1.3019  2.1552
  112MOL   H24133763   7.557   6.635   3.533  0.6986  0.0802 -0.3729
  112MOL   C24233764   7.362   6.623   3.054 -0.4191  0.5209  0.7327
  112MOL   C24333765   7.457   6.634   2.930 -0.1571 -0.0994 -0.4951
  112MOL   C24433766   7.393   6.746   2.843  0.3292 -1.0758  0.0589
  112MOL   C24533767   7.600   6.673   2.969 -0.0678 -0.3563  0.6407
  112MOL   O24633768   7.657   6.774   2.937  0.3799 -0.0194  0.5494
  112MOL   O24733769   7.658   6.581   3.043 -0.3069 -0.2744 -0.1643
  112MOL   C24833770   7.795   6.603   3.084  0.0995 -0.2424 -0.4448
  112MOL   H24933771   7.259   6.616   3.020 -0.4953  0.9832  0.8759
  112MOL   H25033772   7.380   6.526   3.100 -0.3651 -0.6435 -1.6679
  112MOL   H25133773   7.463   6.788   2.770  0.4498  1.5014  1.5948
  112MOL   H25233774   7.305   6.730   2.781  0.4532  2.4043 -1.1633
  112MOL   H25333775   7.364   6.831   2.905  3.8695  0.4774 -0.3128
  112MOL   H25433776   7.863   6.610   2.999  1.7555  0.8471  0.9275
  112MOL   H25533777   7.812   6.516   3.147  0.3613 -0.6520 -1.0803
  112MOL   H25633778   7.815   6.695   3.141  0.8236 -0.9996  0.5414
  112MOL   C25733779   7.466   6.502   2.838  0.4790 -0.3054  0.9136
  112MOL   C25833780   7.443   6.351   2.878 -0.3651  0.3925 -1.5599
  112MOL   C25933781   7.547   6.310   2.977  0.3590 -0.0007  0.5162
  112MOL   C26033782   7.306   6.326   2.939 -0.1994 -0.3784 -0.0266
  112MOL   O26133783   7.292   6.260   3.041  0.0940  0.1581 -0.5228
  112MOL   O26233784   7.208   6.372   2.862 -0.7317 -0.2557  0.6314
  112MOL   C26333785   7.067   6.333   2.878 -0.7219  0.4283 -0.0076
  112MOL   H26433786   7.552   6.528   2.775 -0.2444  0.8114  0.3737
  112MOL   H26533787   7.391   6.519   2.761  0.9923  0.5641  0.5913
  112MOL   H26633788   7.543   6.358   3.075 -1.7470 -2.4227  1.6542
  112MOL   H26733789   7.547   6.204   3.002  2.7872  0.4147  2.4090
  112MOL   H26833790   7.644   6.340   2.937  1.6032 -1.8821  2.0817
  112MOL   H26933791   7.017   6.352   2.783 -0.5671 -1.8692 -0.5905
  112MOL   H27033792   7.018   6.375   2.965 -1.6601  2.9663 -1.6996
  112MOL   H27133793   7.070   6.224   2.887  1.8978  0.5601  1.0298
  112MOL   C27233794   7.436   6.252   2.756 -1.1853  0.0942 -0.5081
  112MOL   C27333795   7.565   6.193   2.682  0.2084 -0.0678 -0.0721
  112MOL   C27433796   7.662   6.304   2.627  0.3215  0.4073  0.3002
  112MOL   C27533797   7.636   6.100   2.777 -0.2937  0.0823 -0.5010
  112MOL   O27633798   7.757   6.104   2.794 -0.4524  0.1976 -0.5502
  112MOL   O27733799   7.558   6.006   2.828 -0.3259 -0.4442 -0.1558
  112MOL   C27833800   7.605   5.908   2.922  0.2799 -0.6440 -0.1093
  112MOL   H27933801   7.392   6.298   2.668 -0.5730  0.2901 -0.7153
  112MOL   H28033802   7.387   6.158   2.782 -1.3819  0.1018 -0.8491
  112MOL   H28133803   7.607   6.394   2.600 -0.8051 -0.2184  0.4715
  112MOL   H28233804   7.745   6.339   2.689  0.9374 -0.0076 -0.2857
  112MOL   H28333805   7.706   6.274   2.532  0.3200 -1.2792  0.8071
  112MOL   H28433806   7.523   5.866   2.980 -0.7668 -0.8871 -1.7290
  112MOL   H28533807   7.678   5.959   2.985 -0.9875 -0.9578  1.6343
  112MOL   H28633808   7.650   5.822   2.872  1.7075 -0.4874  0.8843
  112MOL   C28733809   7.509   6.114   2.557  0.4186  1.1573 -0.1300
  112MOL   C28833810   7.614   6.032   2.478 -0.3988 -0.1967  0.2104
  112MOL   C28933811   7.609   5.880   2.502 -0.2500  0.2856 -0.1709
  112MOL   C29033812   7.604   6.059   2.326 -0.1556 -0.2338 -0.1887
  112MOL   O29133813   7.702   6.062   2.256 -0.0581  0.0205  0.0239
  112MOL   O29233814   7.476   6.072   2.287  0.1835  0.5990 -0.5407
  112MOL   C29333815   7.456   6.075   2.152 -0.0064 -0.1216 -0.0500
  112MOL   H29433816   7.457   6.188   2.496 -1.8729 -0.8093 -0.6373
  112MOL   H29533817   7.423   6.052   2.583  1.4277 -1.1334 -2.1550
  112MOL   H29633818   7.507   5.848   2.478  0.2445 -2.4506  1.2710
  112MOL   H29733819   7.688   5.821   2.457 -0.1732 -1.9438  2.7680
  112MOL   H29833820   7.625   5.861   2.608 -2.1326  0.8735  0.2404
  112MOL   H29933821   7.492   6.172   2.118  1.5908 -1.5170 -2.5254
  112MOL   H30033822   7.348   6.058   2.145  0.2053 -1.3639 -0.4478
  112MOL   H30133823   7.516   5.994   2.111  2.8729  1.7844  0.3169
  112MOL   H30233824   7.711   6.059   2.518 -0.6168  0.7337  0.1101
  113MOL     C133825   5.400   2.129   6.983  1.1301 -0.0523 -0.0167
  113MOL     C233826   5.453   2.074   6.847 -0.1142  0.4762 -0.6813
  113MOL     C333827   5.576   1.986   6.875  0.5386  0.0607 -1.0070
  113MOL     C433828   5.347   1.983   6.779  0.4497  0.3799 -0.5735
  113MOL     O533829   5.372   1.867   6.747  0.0805 -0.1673  0.5078
  113MOL     O633830   5.229   2.041   6.766 -0.7761  0.0097 -0.7588
  113MOL     C733831   5.123   1.983   6.686  0.1641 -0.4725  0.1673
  113MOL     H833832   5.347   2.047   7.031  0.7518 -1.1343 -2.2151
  113MOL     H933833   5.480   2.167   7.047  2.5858 -1.7181 -0.8127
  113MOL    H1033834   5.552   1.898   6.935 -0.8536  0.2069 -1.3254
  113MOL    H1133835   5.618   1.953   6.780 -2.0952  1.6162 -2.7944
  113MOL    H1233836   5.647   2.048   6.928 -1.5359 -0.1453  2.1239
  113MOL    H1333837   5.158   1.960   6.585  0.1653  2.7269 -0.6059
  113MOL    H1433838   5.037   2.049   6.673  0.0084 -0.7403 -0.1748
  113MOL    H1533839   5.096   1.888   6.733 -1.4112 -0.4643 -0.6903
  113MOL    H1633840   5.325   2.208   6.976  0.8932 -0.2943 -0.2108
  113MOL    C1733841   5.487   2.206   6.770 -0.3706  0.3767 -0.4863
  113MOL    C1833842   5.557   2.226   6.634 -0.1938  0.4027  1.1200
  113MOL    C1933843   5.710   2.251   6.659 -0.3223  0.3282 -0.4301
  113MOL    C2033844   5.534   2.101   6.544 -0.3469  0.3028 -0.1993
  113MOL    O2133845   5.434   2.083   6.472  0.8397  0.5857  0.1719
  113MOL    O2233846   5.638   2.009   6.557  0.0086 -0.0541 -0.0318
  113MOL    C2333847   5.638   1.883   6.484 -0.3879 -0.7062  0.0971
  113MOL    H2433848   5.530   2.272   6.846 -0.4539  0.0353 -0.1418
  113MOL    H2533849   5.386   2.237   6.741  1.1918  3.3596 -3.0626
  113MOL    H2633850   5.764   2.262   6.565  0.4989 -2.3427 -0.3205
  113MOL    H2733851   5.715   2.336   6.726  1.1405 -0.1221  0.0469
  113MOL    H2833852   5.757   2.169   6.713 -1.3333  0.1625  0.2136
  113MOL    H2933853   5.536   1.846   6.474 -0.9283  0.3306  1.6645
  113MOL    H3033854   5.690   1.807   6.542  0.0919 -0.8597 -0.5288
  113MOL    H3133855   5.691   1.894   6.389 -3.4221  0.2587 -1.5502
  113MOL    C3233856   5.494   2.339   6.537  0.2662  0.3512 -0.5091
  113MOL    C3333857   5.503   2.491   6.562 -0.0376 -0.3107 -0.0130
  113MOL    C3433858   5.455   2.511   6.709 -0.3716  0.7034 -0.8427
  113MOL    C3533859   5.648   2.547   6.543  0.8366  0.1567  0.5900
  113MOL    O3633860   5.706   2.616   6.628 -0.1172  0.0370  0.3995
  113MOL    O3733861   5.704   2.521   6.427 -0.9003 -0.3511  0.3016
  113MOL    C3833862   5.841   2.548   6.416 -0.5059  0.2409  0.1683
  113MOL    H3933863   5.386   2.327   6.533 -0.0672  2.9999 -0.8902
  113MOL    H4033864   5.521   2.323   6.432 -0.6577  1.5534 -0.9514
  113MOL    H4133865   5.531   2.483   6.782  0.7368 -0.0147 -2.2324
  113MOL    H4233866   5.443   2.613   6.745 -1.3331 -0.2639  1.6569
  113MOL    H4333867   5.360   2.463   6.730  0.4400  0.2527  1.9424
  113MOL    H4433868   5.867   2.568   6.312  0.5807  0.4228  0.4664
  113MOL    H4533869   5.904   2.461   6.433  0.1474  0.8879  1.2069
  113MOL    H4633870   5.874   2.632   6.478  1.3276 -1.2235  1.2358
  113MOL    C4733871   5.402   2.570   6.476  0.5778 -1.0669  0.5324
  113MOL    C4833872   5.415   2.725   6.441 -0.0914 -0.3760 -0.1503
  113MOL    C4933873   5.436   2.809   6.573 -0.1537  0.4187 -0.0436
  113MOL    C5033874   5.521   2.757   6.335  0.4021 -0.0459 -0.3726
  113MOL    O5133875   5.586   2.864   6.331  0.3222  0.5816 -0.6069
  113MOL    O5233876   5.526   2.658   6.246 -0.3770  0.3132 -0.5131
  113MOL    C5333877   5.621   2.678   6.142  0.1343  0.2233 -0.0354
  113MOL    H5433878   5.303   2.564   6.521 -1.0327  0.2972 -2.6650
  113MOL    H5533879   5.387   2.505   6.389 -0.0761 -0.6161  0.3111
  113MOL    H5633880   5.518   2.767   6.631 -0.0899 -1.3995 -1.4239
  113MOL    H5733881   5.475   2.910   6.557 -0.0567  0.5242  0.8235
  113MOL    H5833882   5.348   2.813   6.637  0.6685 -0.2867  1.1367
  113MOL    H5933883   5.620   2.599   6.067  1.0156  1.5520 -1.4914
  113MOL    H6033884   5.722   2.683   6.181  0.5391 -1.2169 -0.8635
  113MOL    H6133885   5.620   2.774   6.090 -0.3298  0.1006 -0.2562
  113MOL    C6233886   5.275   2.765   6.386 -0.0769  0.5336 -0.1267
  113MOL    C6333887   5.233   2.896   6.312 -0.7076  0.2448  0.5123
  113MOL    C6433888   5.277   3.025   6.398  0.1727  0.2690 -0.1784
  113MOL    C6533889   5.288   2.911   6.167 -0.0238  0.5883 -0.5705
  113MOL    O6633890   5.314   2.812   6.101  0.1780 -0.8702 -0.1994
  113MOL    O6733891   5.306   3.037   6.123  0.4238 -0.6152 -0.2792
  113MOL    C6833892   5.376   3.067   6.000  0.1282  0.4386 -0.3980
  113MOL    H6933893   5.213   2.760   6.475  0.0088  1.3168 -0.0211
  113MOL    H7033894   5.248   2.681   6.321  0.1257 -0.7546  1.4231
  113MOL    H7133895   5.385   3.040   6.397  0.1550  0.4416  0.4342
  113MOL    H7233896   5.223   3.110   6.354  1.6157  2.1524  1.5925
  113MOL    H7333897   5.236   3.022   6.499  0.1292 -1.3474 -0.2374
  113MOL    H7433898   5.306   3.085   5.919  0.2480  0.0285 -0.5935
  113MOL    H7533899   5.443   2.984   5.975  0.1709 -0.2861  1.9289
  113MOL    H7633900   5.420   3.165   6.018 -0.8240  0.3191  2.8319
  113MOL    C7733901   5.081   2.912   6.311 -0.1191  0.0151  0.0651
  113MOL    C7833902   4.972   2.805   6.261  0.1085  0.5319 -0.5078
  113MOL    C7933903   5.017   2.757   6.120  0.6619 -0.1261 -0.1604
  113MOL    C8033904   4.963   2.687   6.365 -0.8166  0.3941  0.6730
  113MOL    O8133905   4.990   2.566   6.335  0.2176  0.2219  0.4520
  113MOL    O8233906   4.936   2.736   6.491  0.3931  0.2292  0.3738
  113MOL    C8333907   4.916   2.649   6.599  0.1587 -0.1724 -0.4857
  113MOL    H8433908   5.061   3.001   6.250  0.1446 -0.6599 -1.0310
  113MOL    H8533909   5.050   2.941   6.411 -1.6440  0.0453 -0.4005
  113MOL    H8633910   5.101   2.688   6.131  0.4734 -0.2637  0.4372
  113MOL    H8733911   4.939   2.705   6.063  2.8222 -0.6027 -2.7826
  113MOL    H8833912   5.035   2.848   6.063 -0.5243 -0.1947 -0.6648
  113MOL    H8933913   4.930   2.693   6.697  1.1258  0.1487 -0.7621
  113MOL    H9033914   4.984   2.564   6.593  1.6838  1.0238 -0.4873
  113MOL    H9133915   4.813   2.612   6.602  0.5591 -1.2542  0.2483
  113MOL    C9233916   4.838   2.890   6.248 -0.1542 -0.1285 -0.5459
  113MOL    C9333917   4.682   2.840   6.232  0.3952 -0.3732 -0.1939
  113MOL    C9433918   4.593   2.965   6.169 -0.1845 -0.1012 -0.8222
  113MOL    C9533919   4.672   2.715   6.138  0.6867 -0.6037  0.2212
  113MOL    O9633920   4.617   2.723   6.028  0.8430  0.0356  0.4880
  113MOL    O9733921   4.727   2.601   6.200 -0.4579 -0.4088 -0.5125
  113MOL    C9833922   4.729   2.473   6.140  0.3839  0.2209  0.0508
  113MOL    H9933923   4.859   2.954   6.163 -3.7488 -0.6012 -1.8645
  113MOL   H10033924   4.831   2.956   6.334 -0.1500  1.5791 -1.8434
  113MOL   H10133925   4.495   2.932   6.133  0.6180 -1.5596 -1.7157
  113MOL   H10233926   4.582   3.029   6.256 -0.2771  0.7458 -1.4562
  113MOL   H10333927   4.641   3.025   6.092  2.5956 -0.0773  0.8631
  113MOL   H10433928   4.627   2.435   6.146  0.3027  0.5782  0.9351
  113MOL   H10533929   4.791   2.410   6.202  0.3898  1.1898  1.0456
  113MOL   H10633930   4.757   2.477   6.034  2.1872  1.0025  0.5391
  113MOL   C10733931   4.628   2.812   6.380 -0.1966 -0.2837 -0.4413
  113MOL   C10833932   4.494   2.736   6.416 -0.5172  0.2127 -0.4266
  113MOL   C10933933   4.384   2.779   6.321 -1.2576 -0.0242  0.1747
  113MOL   C11033934   4.510   2.582   6.408  0.3851 -0.1832  0.2931
  113MOL   O11133935   4.425   2.515   6.343 -0.3035 -0.1366 -0.1649
  113MOL   O11233936   4.604   2.534   6.483  0.0091 -0.0424  0.0435
  113MOL   C11333937   4.617   2.384   6.489  0.0689 -0.4611 -0.3215
  113MOL   H11433938   4.617   2.908   6.432 -0.3010 -0.8423  0.5865
  113MOL   H11533939   4.707   2.762   6.435 -0.0863 -0.3843 -0.6963
  113MOL   H11633940   4.405   2.751   6.218  0.4755  0.4262  0.4028
  113MOL   H11733941   4.295   2.718   6.340 -0.8116  0.3009  3.5348
  113MOL   H11833942   4.341   2.877   6.341  2.1358  1.7701 -1.0162
  113MOL   H11933943   4.691   2.347   6.559  1.0723  1.7226 -0.1713
  113MOL   H12033944   4.633   2.339   6.391  2.0010 -0.5062  0.0007
  113MOL   H12133945   4.523   2.351   6.532  1.2428 -2.3055  0.8641
  113MOL   C12233946   4.459   2.771   6.564  0.1546  0.0135 -0.7102
  113MOL   C12333947   4.319   2.741   6.642 -0.0835  0.0126 -0.2176
  113MOL   C12433948   4.228   2.859   6.626 -0.2432 -0.1859 -0.4107
  113MOL   C12533949   4.252   2.605   6.599 -0.1730  1.0480 -0.7572
  113MOL   O12633950   4.147   2.602   6.533 -0.1568 -0.1627 -0.1164
  113MOL   O12733951   4.317   2.497   6.635  0.1161  0.1981  0.3228
  113MOL   C12833952   4.269   2.376   6.583 -0.6633 -0.0403 -0.8523
  113MOL   H12933953   4.470   2.877   6.586 -1.4413  0.0256  0.0963
  113MOL   H13033954   4.539   2.728   6.625  0.0160 -0.2291 -0.6970
  113MOL   H13133955   4.240   2.912   6.531  0.7103 -0.3499 -0.3819
  113MOL   H13233956   4.120   2.852   6.640 -0.1016  0.2840  1.0152
  113MOL   H13333957   4.259   2.934   6.698 -0.4520 -0.3033 -0.1961
  113MOL   H13433958   4.287   2.375   6.475 -1.7146  0.0145 -1.0316
  113MOL   H13533959   4.164   2.354   6.599 -0.9224  2.5298  1.2667
  113MOL   H13633960   4.327   2.290   6.617  1.6352  2.4800  1.8048
  113MOL   C13733961   4.352   2.727   6.796 -0.3306 -0.3633 -0.0694
  113MOL   C13833962   4.250   2.730   6.919  0.3104 -0.3016  0.3551
  113MOL   C13933963   4.195   2.868   6.947 -0.4923  0.3350  0.4403
  113MOL   C14033964   4.125   2.640   6.883  0.1591 -0.4159 -1.0382
  113MOL   O14133965   4.015   2.686   6.855 -0.3488  0.1662 -0.4358
  113MOL   O14233966   4.155   2.504   6.890 -0.1550  0.0490  0.1883
  113MOL   C14333967   4.054   2.412   6.869  0.6610  0.0643 -0.5660
  113MOL   H14433968   4.423   2.807   6.816  1.0613 -1.6396  0.1159
  113MOL   H14533969   4.425   2.648   6.810  0.0595 -0.9057 -4.5122
  113MOL   H14633970   4.280   2.936   6.954  0.6678 -0.7457 -2.3011
  113MOL   H14733971   4.126   2.914   6.877 -0.5445  0.7502  0.7615
  113MOL   H14833972   4.144   2.865   7.043  1.8865 -1.9094  1.7130
  113MOL   H14933973   3.999   2.426   6.776 -0.0202  1.3035  0.0167
  113MOL   H15033974   3.992   2.398   6.957  2.4275 -1.0826  0.5316
  113MOL   H15133975   4.101   2.315   6.849  0.9088 -0.0637  0.6352
  113MOL   C15233976   4.341   2.668   7.037  0.0575 -0.0386  0.2873
  113MOL   C15333977   4.308   2.682   7.193 -0.0359 -0.2544  0.6175
  113MOL   C15433978   4.343   2.823   7.243 -0.1148 -0.8160 -0.4873
  113MOL   C15533979   4.161   2.650   7.223  0.0558  0.7467 -0.8034
  113MOL   O15633980   4.082   2.731   7.271 -0.2403 -0.4374 -0.0614
  113MOL   O15733981   4.128   2.519   7.188 -0.1580  0.0338  0.3390
  113MOL   C15833982   4.001   2.466   7.217  0.0785  0.1344 -0.0090
  113MOL   H15933983   4.437   2.716   7.020 -1.0450  2.4660  0.8919
  113MOL   H16033984   4.364   2.566   7.006 -1.2571 -0.2751  0.0312
  113MOL   H16133985   4.448   2.845   7.264 -0.1954 -2.4287  1.8085
  113MOL   H16233986   4.318   2.897   7.168  0.5677  1.3656  1.3893
  113MOL   H16333987   4.289   2.845   7.335 -3.3586 -3.2830 -1.7108
  113MOL   H16433988   3.921   2.528   7.178 -0.4971 -1.3837 -1.3168
  113MOL   H16533989   3.992   2.457   7.325 -1.4160  2.9458  0.1399
  113MOL   H16633990   3.980   2.365   7.182 -2.4834  0.8538 -0.6126
  113MOL   C16733991   4.393   2.571   7.267 -0.4506 -0.3133 -1.1347
  113MOL   C16833992   4.552   2.568   7.297 -0.3870  0.3658 -0.0806
  113MOL   C16933993   4.627   2.607   7.169 -0.2218 -0.0167  0.3055
  113MOL   C17033994   4.587   2.660   7.415  0.0509 -0.0320  0.4292
  113MOL   O17133995   4.512   2.740   7.464 -0.2334 -0.7432 -0.1825
  113MOL   O17233996   4.719   2.646   7.449  0.0803  0.1597  0.2587
  113MOL   C17333997   4.768   2.698   7.576 -0.0914 -0.3023  0.6231
  113MOL   H17433998   4.379   2.479   7.210 -0.3485 -1.0790  0.0633
  113MOL   H17533999   4.363   2.544   7.368  1.7075 -1.0092 -0.6416
  113MOL   H17634000   4.595   2.575   7.070 -2.3763  1.6671  0.4190
  113MOL   H17734001   4.610   2.713   7.154 -0.2127 -0.1616 -0.7283
  113MOL   H17834002   4.735   2.596   7.166 -0.3795 -1.6957  0.3916
  113MOL   H17934003   4.763   2.807   7.584 -0.6961 -0.1645 -1.3546
  113MOL   H18034004   4.868   2.661   7.594 -0.3000 -1.2217 -0.0976
  113MOL   H18134005   4.705   2.653   7.652 -0.1706 -1.6027 -0.2003
  113MOL   C18234006   4.613   2.414   7.323 -0.6728 -0.5847 -0.2755
  113MOL   C18334007   4.542   2.313   7.428 -0.0256 -0.2571 -0.0010
  113MOL   C18434008   4.524   2.379   7.565  0.0798  0.3049  0.3639
  113MOL   C18534009   4.407   2.270   7.370 -0.5794  0.2426  0.0825
  113MOL   O18634010   4.301   2.304   7.416  0.0168 -0.2126 -0.3203
  113MOL   O18734011   4.422   2.196   7.251  0.1617  0.1002  0.8951
  113MOL   C18834012   4.304   2.171   7.173  0.4193  0.1832  0.0461
  113MOL   H18934013   4.717   2.415   7.354 -0.6205 -3.0227 -0.2306
  113MOL   H19034014   4.624   2.370   7.224  2.2192 -1.3140  0.3292
  113MOL   H19134015   4.468   2.320   7.638 -0.1812 -1.5554 -1.2813
  113MOL   H19234016   4.619   2.404   7.612 -0.2083  1.8600  0.1191
  113MOL   H19334017   4.471   2.473   7.551 -0.0691 -0.3334 -4.0932
  113MOL   H19434018   4.219   2.134   7.231  0.0833  0.9755  0.0578
  113MOL   H19534019   4.321   2.095   7.096 -1.3433 -0.5757  0.3798
  113MOL   H19634020   4.281   2.263   7.121 -1.0536 -0.0346  0.3067
  113MOL   C19734021   4.639   2.192   7.445 -0.3716  0.6696 -0.1262
  113MOL   C19834022   4.628   2.078   7.557  0.3497 -0.8620  0.3541
  113MOL   C19934023   4.717   1.962   7.506 -0.1685 -0.0848 -0.2426
  113MOL   C20034024   4.692   2.137   7.682 -0.5132  0.2483  0.5805
  113MOL   O20134025   4.628   2.157   7.788  0.0384 -0.2799  0.1443
  113MOL   O20234026   4.822   2.157   7.669  0.7602 -0.1050 -0.3159
  113MOL   C20334027   4.900   2.187   7.786  0.2245 -0.7931  0.0425
  113MOL   H20434028   4.738   2.234   7.463  0.3810 -1.8661  1.9906
  113MOL   H20534029   4.649   2.143   7.348 -1.7923  3.6889 -1.8697
  113MOL   H20634030   4.819   2.000   7.500 -0.5620  1.5760  2.5403
  113MOL   H20734031   4.719   1.873   7.569 -0.3531  0.7410  0.9548
  113MOL   H20834032   4.692   1.927   7.406  0.8859 -0.1503 -0.4870
  113MOL   H20934033   4.973   2.263   7.756  0.7675 -1.9323 -1.6053
  113MOL   H21034034   4.949   2.102   7.834  2.0501 -0.1126 -0.5437
  113MOL   H21134035   4.830   2.234   7.855  2.9412  0.8129  1.8131
  113MOL   C21234036   4.478   2.031   7.574  0.2128  0.5504 -0.0108
  113MOL   C21334037   4.427   1.896   7.642  0.7666  0.2195 -0.2436
  113MOL   C21434038   4.400   1.806   7.518  0.0542  1.0172 -0.0452
  113MOL   C21534039   4.525   1.824   7.739 -0.2624  0.3227  0.7536
  113MOL   O21634040   4.561   1.705   7.722 -0.4783 -0.2216 -0.8940
  113MOL   O21734041   4.562   1.902   7.845  0.0794  0.1120  0.2203
  113MOL   C21834042   4.650   1.845   0.069 -0.9409 -0.3164 -0.4148
  113MOL   H21934043   4.439   2.026   7.472 -1.8787  1.2027  0.7314
  113MOL   H22034044   4.422   2.116   7.613 -0.1960 -0.8180  2.4776
  113MOL   H22134045   4.365   1.706   7.545  2.0265  1.2684  3.7376
  113MOL   H22234046   4.337   1.852   7.442  0.3655 -1.0436 -1.5863
  113MOL   H22334047   4.502   1.794   7.483 -0.6259 -4.1972 -0.6627
  113MOL   H22434048   4.611   1.765   0.131 -0.5612 -0.0211  0.2098
  113MOL   H22534049   4.709   1.922   0.121  1.5567 -0.9208 -2.2261
  113MOL   H22634050   4.735   1.796   0.021  1.4413  1.8566  1.4096
  113MOL   C22734051   4.301   1.932   7.733 -0.1791  0.0800  0.1233
  113MOL   C22834052   4.154   1.969   7.678  0.6254 -0.2313 -0.4281
  113MOL   C22934053   4.161   2.086   7.578  0.4168 -0.2117 -0.6662
  113MOL   C23034054   4.104   1.846   7.595  1.0967 -1.1870 -0.1428
  113MOL   O23134055   4.064   1.852   7.478 -0.4478 -0.2137  0.2202
  113MOL   O23234056   4.108   1.727   7.668 -1.0374 -0.0266  0.4391
  113MOL   C23334057   4.066   1.602   7.616 -0.4090 -0.7035 -0.0619
  113MOL   H23434058   4.335   2.025   7.780 -0.3188  0.1609  0.0632
  113MOL   H23534059   4.291   1.862   7.816 -0.0144  0.1181  0.1752
  113MOL   H23634060   4.061   2.102   7.538  0.1230 -2.9160 -1.1230
  113MOL   H23734061   4.202   2.180   7.616 -0.2456 -0.6410  1.1449
  113MOL   H23834062   4.218   2.056   7.489  0.8260  0.6950 -0.7115
  113MOL   H23934063   3.975   1.610   7.557 -0.6532 -1.4428  0.2013
  113MOL   H24034064   4.066   1.521   7.689  1.2426  0.1317  0.9020
  113MOL   H24134065   4.145   1.570   7.548  0.1198 -1.5039  0.9137
  113MOL   C24234066   4.061   2.001   7.798 -0.5229 -0.4839 -0.1820
  113MOL   C24334067   3.904   2.048   7.787  0.8527 -0.1560  0.2766
  113MOL   C24434068   3.905   2.196   7.752  0.5189 -0.3756  0.4995
  113MOL   C24534069   3.811   1.968   7.689  0.6356  0.2751 -0.7000
  113MOL   O24634070   3.753   2.027   7.596 -0.8830 -0.5644  0.5125
  113MOL   O24734071   3.807   1.836   7.712 -0.2230 -0.0195  0.2262
  113MOL   C24834072   3.709   1.758   7.646 -0.1113 -0.4513 -0.3535
  113MOL   H24934073   4.111   2.075   7.859 -2.2963  1.7803 -1.3609
  113MOL   H25034074   4.068   1.910   7.856 -0.7819 -0.3594  0.0459
  113MOL   H25134075   3.964   2.257   7.819  0.9105 -0.0919 -0.1068
  113MOL   H25234076   3.936   2.216   7.649  0.7223 -0.8492  0.4647
  113MOL   H25334077   3.803   2.235   7.760  1.1565  1.6118 -0.6897
  113MOL   H25434078   3.676   1.795   7.549 -0.8473 -1.1776 -0.3775
  113MOL   H25534079   3.628   1.740   7.716 -0.4014 -1.1853 -0.8781
  113MOL   H25634080   3.748   1.664   7.606  4.3774  1.3618 -0.5834
  113MOL   C25734081   3.855   2.040   0.067 -0.2931 -0.0600 -0.3995
  113MOL   C25834082   3.724   2.104   0.118 -0.0781  0.1233  0.3491
  113MOL   C25934083   3.708   2.055   0.267  0.3100  0.4783 -0.1849
  113MOL   C26034084   3.733   2.264   0.143 -0.0524  0.1260 -0.4641
  113MOL   O26134085   3.658   2.350   0.100 -0.2800  0.1873  0.4811
  113MOL   O26234086   3.843   2.286   0.217 -0.3993  0.4268 -0.4269
  113MOL   C26334087   3.881   2.415   0.248  0.2307  1.0297  1.1309
  113MOL   H26434088   3.946   2.072   0.118 -0.4764  1.1507 -0.8173
  113MOL   H26534089   3.841   1.935   0.090 -0.2357  0.3731  1.7936
  113MOL   H26634090   3.633   2.093   0.337  0.7521 -1.4386  1.3629
  113MOL   H26734091   3.699   1.946   0.269 -3.4913  0.7430  2.6570
  113MOL   H26834092   3.800   2.063   0.324 -0.2638 -1.1019  1.0137
  113MOL   H26934093   3.983   2.429   0.284  0.0801  1.2191  1.4932
  113MOL   H27034094   3.823   2.444   0.335 -2.3958 -0.4652 -0.0627
  113MOL   H27134095   3.870   2.478   0.160  0.7156  0.7630  0.8731
  113MOL   C27234096   3.603   2.050   0.029  0.8438 -0.6389 -0.0854
  113MOL   C27334097   3.450   2.073   0.059 -0.0262  0.5359  0.3293
  113MOL   C27434098   3.413   2.215   0.097  0.3390  0.3248 -0.1923
  113MOL   C27534099   3.376   2.028   7.811 -0.2400  0.4372  0.0050
  113MOL   O27634100   3.275   2.089   7.764 -0.3950 -0.4028 -0.3484
  113MOL   O27734101   3.433   1.908   7.764  0.5226  0.2298  0.0943
  113MOL   C27834102   3.365   1.836   7.662  0.9727  0.0979  0.4048
  113MOL   H27934103   3.626   1.949   7.873  1.3400 -0.3666 -0.5687
  113MOL   H28034104   3.615   2.104   7.813  2.4611 -2.4903 -0.9833
  113MOL   H28134105   3.304   2.214   0.109  0.4959 -0.3822  1.2721
  113MOL   H28234106   3.448   2.253   0.192  2.0727  0.2276 -0.7711
  113MOL   H28334107   3.439   2.286   0.018 -1.6344  1.9760  0.5933
  113MOL   H28434108   3.257   1.836   7.670  0.8982 -3.2871  0.1707
  113MOL   H28534109   3.394   1.730   7.657  1.2574  0.1231  1.4747
  113MOL   H28634110   3.388   1.876   7.563  0.6070 -2.3170 -0.7078
  113MOL   C28734111   3.406   1.977   0.177 -0.5664 -0.0043  0.1080
  113MOL   C28834112   3.251   1.946   0.185 -0.3528 -0.3518 -0.2714
  113MOL   C28934113   3.216   1.808   0.132  0.1383  0.0458  0.0161
  113MOL   C29034114   3.185   1.981   0.321 -0.9193 -0.0733  0.2939
  113MOL   O29134115   3.216   1.914   0.415  0.4135 -0.1325  0.4924
  113MOL   O29234116   3.103   2.098   0.324 -0.1033 -0.3395  0.1077
  113MOL   C29334117   3.029   2.120   0.439 -0.4185  0.0495  0.1148
  113MOL   H29434118   3.436   2.025   0.271  0.5581 -0.3888 -0.0410
  113MOL   H29534119   3.472   1.890   0.177  0.4128  0.7156 -0.7941
  113MOL   H29634120   3.309   1.753   0.114  1.7065  2.5581  0.1550
  113MOL   H29734121   3.166   1.743   0.204  1.5010  0.5725  1.4922
  113MOL   H29834122   3.165   1.819   0.037  2.5489 -1.6231 -1.5313
  113MOL   H29934123   2.958   2.200   0.419 -0.1864  0.7149  1.8440
  113MOL   H30034124   3.085   2.176   0.514 -2.9148  0.8422  1.4566
  113MOL   H30134125   2.992   2.026   0.481 -1.1005  0.4195  0.3551
  113MOL   H30234126   3.212   2.021   0.116 -1.3421 -0.6349 -0.0212
  114MOL     C134127   4.155   0.750   6.458  0.3975 -0.7594 -0.1214
  114MOL     C234128   4.228   0.616   6.488 -0.2256  0.2391  0.6585
  114MOL     C334129   4.344   0.591   6.388 -0.1954  0.0352  0.4026
  114MOL     C434130   4.291   0.614   6.626 -1.5883  0.0648  0.3002
  114MOL     O534131   4.292   0.515   6.695 -0.4911  0.0463 -0.2323
  114MOL     O634132   4.336   0.736   6.665 -0.1213 -0.3007 -0.0040
  114MOL     C734133   4.369   0.758   6.801  0.3392 -0.3194  0.0753
  114MOL     H834134   4.106   0.756   6.361  3.7483  1.2301 -1.7807
  114MOL     H934135   4.087   0.775   6.539  2.0803 -1.3763  1.5426
  114MOL    H1034136   4.313   0.606   6.285  1.1279 -1.3678 -0.2168
  114MOL    H1134137   4.416   0.672   6.400  0.4397 -0.4225 -0.2794
  114MOL    H1234138   4.405   0.502   6.402 -0.6962 -0.4399 -0.3798
  114MOL    H1334139   4.273   0.745   6.851 -0.7980  0.7923 -1.7600
  114MOL    H1434140   4.407   0.860   6.810 -1.7034  0.5027 -0.3596
  114MOL    H1534141   4.450   0.691   6.829  1.2036 -0.9869 -3.7302
  114MOL    H1634142   4.217   0.839   6.469 -1.5582  0.7570 -1.0946
  114MOL    C1734143   4.143   0.481   6.457 -0.6777  0.4536 -0.5449
  114MOL    C1834144   4.004   0.456   6.516  0.5278  0.0473 -0.0588
  114MOL    C1934145   3.993   0.482   6.669 -0.3179  0.2069  0.0655
  114MOL    C2034146   3.902   0.551   6.445  0.3112 -0.0137 -0.7995
  114MOL    O2134147   3.836   0.633   6.508 -0.1960 -0.3221  0.5719
  114MOL    O2234148   3.896   0.532   6.308 -0.1233 -0.7539 -0.1851
  114MOL    C2334149   3.802   0.615   6.235 -0.3966 -1.1843  0.4203
  114MOL    H2434150   4.217   0.407   6.488  0.9378  2.2673 -0.0174
  114MOL    H2534151   4.143   0.457   6.351  1.5153 -1.9915 -0.0474
  114MOL    H2634152   4.023   0.583   6.695 -2.3573  0.5411  1.2003
  114MOL    H2734153   3.890   0.465   6.700 -0.6705  0.4895 -0.9404
  114MOL    H2834154   4.063   0.417   6.723 -2.4282  0.0306  2.6934
  114MOL    H2934155   3.718   0.644   6.299  0.2551 -1.6087  1.4758
  114MOL    H3034156   3.761   0.574   6.143  2.3742 -1.3555 -0.7546
  114MOL    H3134157   3.865   0.695   6.197  1.1832 -2.3177  0.6306
  114MOL    C3234158   3.963   0.303   6.475 -0.0948  0.1583  0.0808
  114MOL    C3334159   4.009   0.166   6.555 -0.8343 -0.3114 -0.0052
  114MOL    C3434160   4.163   0.162   6.577 -0.3053  0.5054  0.5522
  114MOL    C3534161   3.944   0.144   6.694  0.4727  0.1575 -0.2434
  114MOL    O3634162   4.007   0.087   6.787  0.2890  0.4388 -0.0644
  114MOL    O3734163   3.829   0.212   6.714  0.0554  0.0742  0.0311
  114MOL    C3834164   3.748   0.200   6.829  0.1847 -0.1315 -0.2577
  114MOL    H3934165   3.967   0.284   6.368  0.8450 -2.0035  0.4787
  114MOL    H4034166   3.855   0.309   6.487 -0.1030 -0.3442  0.2439
  114MOL    H4134167   4.227   0.200   6.497  0.7256  2.0634  2.0697
  114MOL    H4234168   4.181   0.233   6.658  1.5070 -1.1581  1.6513
  114MOL    H4334169   4.206   0.072   6.619 -2.1006  0.2572  1.8722
  114MOL    H4434170   3.793   0.247   6.917 -1.6672 -0.5905  0.9618
  114MOL    H4534171   3.723   0.099   6.864  1.1318 -0.2371  0.1407
  114MOL    H4634172   3.649   0.239   6.811 -0.4480 -1.0846  1.0670
  114MOL    C4734173   3.980   0.037   6.465  0.6455 -1.0402  0.1697
  114MOL    C4834174   3.846   7.840   6.446 -0.1176 -0.0173 -0.0365
  114MOL    C4934175   3.790   7.799   6.585  0.1580  0.7452 -0.0242
  114MOL    C5034176   3.732   0.040   6.379  0.0494 -0.5467  0.4498
  114MOL    O5134177   3.748   0.147   6.329  0.1527 -0.4271 -0.3016
  114MOL    O5234178   3.616   7.840   6.360  0.7785  0.4140 -0.1844
  114MOL    C5334179   3.507   0.022   6.282  0.4319  0.5825  0.6485
  114MOL    H5434180   4.049   7.836   6.495  1.5651 -0.0867  0.5996
  114MOL    H5534181   4.021   0.077   6.373 -0.5703 -0.0498  0.0461
  114MOL    H5634182   3.722   7.874   6.625  0.2963 -0.0575  1.7689
  114MOL    H5734183   3.720   7.715   6.587  0.1568  0.7355 -0.4835
  114MOL    H5834184   3.867   7.768   6.655  1.2259  0.9270 -1.1097
  114MOL    H5934185   3.486   0.125   6.311  0.2658  0.9670 -0.8353
  114MOL    H6034186   3.414   7.842   6.284  1.1933 -0.6800  0.3722
  114MOL    H6134187   3.536   0.035   6.178  0.9948 -0.2775  0.6885
  114MOL    C6234188   3.864   7.700   6.367 -0.2723 -0.0092  0.7775
  114MOL    C6334189   3.926   7.681   6.224  0.0591  0.4357  0.1182
  114MOL    C6434190   3.845   7.779   6.127 -0.6784  0.1225  0.0372
  114MOL    C6534191   4.076   7.714   6.208  0.1033 -0.6287 -0.3239
  114MOL    O6634192   4.126   7.756   6.101  0.3800 -0.8002  0.0103
  114MOL    O6734193   4.153   7.687   6.316 -0.1087 -0.2901 -0.1568
  114MOL    C6834194   4.294   7.690   6.310  0.2968 -1.0880 -0.0284
  114MOL    H6934195   3.765   7.654   6.362 -1.3045  2.3221 -1.2867
  114MOL    H7034196   3.928   7.640   6.432  0.3412  1.3790  1.4764
  114MOL    H7134197   3.737   7.763   6.132 -0.4219 -1.7228 -0.2186
  114MOL    H7234198   3.877   0.005   6.138 -0.8435  0.2955 -1.0425
  114MOL    H7334199   3.868   7.758   6.023 -1.9940 -0.6155 -0.1233
  114MOL    H7434200   4.331   7.790   6.285  1.2289 -1.9982 -2.4748
  114MOL    H7534201   4.337   7.615   6.244  0.7893 -0.6320 -0.2257
  114MOL    H7634202   4.325   7.672   6.413 -0.7414 -0.0116  0.4922
  114MOL    C7734203   3.902   7.532   6.165 -0.3667 -0.2234  0.1509
  114MOL    C7834204   4.002   7.405   6.160 -0.0287  0.3775  0.3804
  114MOL    C7934205   4.104   7.427   6.051  1.0411  0.1637  0.0842
  114MOL    C8034206   4.064   7.386   6.299  0.4985  0.3261 -1.2557
  114MOL    O8134207   3.992   7.410   6.400 -0.9817 -0.9589  0.4393
  114MOL    O8234208   4.184   7.336   6.303 -0.5615  0.0952 -0.2848
  114MOL    C8334209   4.241   7.302   6.425  0.1130 -0.1361 -0.0466
  114MOL    H8434210   3.868   7.545   6.062  1.7322  1.3089 -0.3944
  114MOL    H8534211   3.814   7.496   6.218  1.0458 -0.6345  2.2452
  114MOL    H8634212   4.052   7.470   5.964  1.0689 -1.0036 -0.5216
  114MOL    H8734213   4.178   7.504   6.071  1.9517 -0.8752  0.7308
  114MOL    H8834214   4.165   7.342   6.024  0.2600 -0.7814  1.2534
  114MOL    H8934215   4.175   7.240   6.487  1.2559 -0.7010  0.6382
  114MOL    H9034216   4.270   7.383   6.492  0.5575 -3.5643  4.1939
  114MOL    H9134217   4.328   7.236   6.416 -0.5845 -0.8184 -1.9755
  114MOL    C9234218   3.925   7.274   6.113  0.1325 -0.3273 -0.4386
  114MOL    C9334219   3.848   7.171   6.205 -0.7038 -0.0375 -0.1827
  114MOL    C9434220   3.950   7.078   6.262 -0.1484 -0.0953  0.0436
  114MOL    C9534221   3.758   7.244   6.313  0.0499  0.1125 -0.1638
  114MOL    O9634222   3.674   7.332   6.285 -0.0141  0.2406  0.3035
  114MOL    O9734223   3.782   7.205   6.444  0.2831  0.0870  0.3648
  114MOL    C9834224   3.698   7.257   6.546  0.1837 -0.3326  1.0309
  114MOL    H9934225   3.989   7.212   6.049 -1.3830 -1.9425 -0.4244
  114MOL   H10034226   3.854   7.318   6.043 -1.2349 -0.1417  1.0372
  114MOL   H10134227   3.988   6.996   6.201 -0.6579 -0.7959  0.6605
  114MOL   H10234228   4.040   7.126   6.300 -0.3466  2.0601 -2.0284
  114MOL   H10334229   3.918   7.033   6.356  0.2405 -2.2951 -0.8604
  114MOL   H10434230   3.725   7.203   6.637  0.8013 -0.5268  0.7317
  114MOL   H10534231   3.596   7.233   6.515 -0.3383  1.5038  1.2611
  114MOL   H10634232   3.706   7.366   6.541 -1.9166 -0.2613 -3.9819
  114MOL   C10734233   3.754   7.089   6.105  0.2713  0.2856  0.0390
  114MOL   C10834234   3.637   6.994   6.160  0.1466 -0.2235  0.1550
  114MOL   C10934235   3.511   7.080   6.198 -0.5756 -0.4500  0.1728
  114MOL   C11034236   3.613   6.902   6.037 -0.6261 -0.1094  0.1855
  114MOL   O11134237   3.509   6.905   5.972  0.3190  0.3536 -0.1259
  114MOL   O11234238   3.724   6.839   5.999  0.5800 -0.2818  0.0934
  114MOL   C11334239   3.712   6.751   5.887  0.5929 -0.1602  0.2695
  114MOL   H11434240   3.829   7.035   6.049 -1.1988  1.4423 -3.1702
  114MOL   H11534241   3.704   7.157   6.036  0.4012  2.0808  1.6639
  114MOL   H11634242   3.512   7.114   6.301 -1.2530  0.2964 -0.0585
  114MOL   H11734243   3.488   7.159   6.126 -2.4967  0.0042  1.2501
  114MOL   H11834244   3.420   7.021   6.204 -1.1342  0.3568 -0.2673
  114MOL   H11934245   3.683   6.799   5.794  2.3585 -1.1532 -0.8116
  114MOL   H12034246   3.643   6.668   5.897  2.2090 -1.4955  0.5286
  114MOL   H12134247   3.808   6.702   5.872  0.1310 -0.9145 -0.1946
  114MOL   C12234248   3.693   6.911   6.282  0.0292  0.1855 -0.7055
  114MOL   C12334249   3.629   6.782   6.351  0.6069  0.2126  0.5478
  114MOL   C12434250   3.714   6.760   6.481  0.2187  0.1529  0.4474
  114MOL   C12534251   3.491   6.825   6.395 -0.2619  0.9523  0.2582
  114MOL   O12634252   3.467   6.849   6.519 -1.1894 -0.2274  0.3490
  114MOL   O12734253   3.395   6.819   6.299  0.1076 -0.0521 -0.0562
  114MOL   C12834254   3.255   6.825   6.341 -0.1558  0.2424  0.5394
  114MOL   H12934255   3.706   6.984   6.362 -1.4447 -1.4944  1.1486
  114MOL   H13034256   3.785   6.864   6.246  0.7207  0.3895  0.7450
  114MOL   H13134257   3.709   6.853   6.538 -1.8118 -0.1853  0.8623
  114MOL   H13234258   3.689   6.673   6.541 -2.2234  0.2456 -0.3813
  114MOL   H13334259   3.817   6.755   6.447 -0.0396  1.2449 -0.5236
  114MOL   H13434260   3.242   6.908   6.411  2.6575  0.5141  0.7950
  114MOL   H13534261   3.226   6.733   6.392  0.3422 -1.1185 -1.5915
  114MOL   H13634262   3.185   6.829   6.257 -0.4589 -2.7035  0.6129
  114MOL   C13734263   3.628   6.654   6.260 -0.3689  0.8277  0.4275
  114MOL   C13834264   3.629   6.504   6.309  0.3021 -0.2168 -0.4076
  114MOL   C13934265   3.776   6.466   6.350  0.2212  0.0104 -0.3250
  114MOL   C14034266   3.529   6.481   6.423 -0.0049  1.0516 -0.2631
  114MOL   O14134267   3.569   6.452   6.538  0.2003  0.6219  0.0474
  114MOL   O14234268   3.398   6.493   6.392 -0.0325 -0.7346  0.3391
  114MOL   C14334269   3.305   6.465   6.492  0.7759 -0.6709 -0.8905
  114MOL   H14434270   3.707   6.662   6.185 -0.8549 -0.2965 -0.2231
  114MOL   H14534271   3.539   6.666   6.199 -0.5235 -0.1889  0.4498
  114MOL   H14634272   3.817   6.513   6.440  3.5662 -0.3552 -1.5931
  114MOL   H14734273   3.780   6.363   6.383  1.7537  0.4426  0.9127
  114MOL   H14834274   3.844   6.462   6.265  2.4320  0.4801  1.3808
  114MOL   H14934275   3.213   6.506   6.451  0.6821 -0.7905 -0.7946
  114MOL   H15034276   3.326   6.519   6.585 -1.1561  0.0192 -0.8315
  114MOL   H15134277   3.315   6.360   6.519  1.1345 -0.0606  1.4750
  114MOL   C15234278   3.584   6.415   6.185  0.1444 -0.0853  0.1916
  114MOL   C15334279   3.528   6.260   6.187 -0.0501 -0.6949 -0.7521
  114MOL   C15434280   3.596   6.171   6.302  0.2227  0.5272  0.3229
  114MOL   C15534281   3.373   6.261   6.212  0.0199 -0.7082  0.6268
  114MOL   O15634282   3.307   6.184   6.281  0.9860  0.0314 -0.3188
  114MOL   O15734283   3.314   6.364   6.146  0.0995 -0.4860 -0.0174
  114MOL   C15834284   3.170   6.379   6.145 -0.3859  0.6146  0.3366
  114MOL   H15934285   3.672   6.423   6.121 -0.8077  2.0375 -0.9110
  114MOL   H16034286   3.511   6.471   6.127 -2.6741 -2.4097  1.3588
  114MOL   H16134287   3.547   6.076   6.321 -0.5838  0.8192 -0.2473
  114MOL   H16234288   3.697   6.140   6.274  0.2990  0.5477  0.5744
  114MOL   H16334289   3.587   6.216   6.401 -0.4789 -0.6496  0.8066
  114MOL   H16434290   3.112   6.288   6.128  0.3139  0.1666  0.3187
  114MOL   H16534291   3.141   6.456   6.074 -2.3620  1.1632  1.7216
  114MOL   H16634292   3.141   6.416   6.243 -1.1819  0.2951  0.2261
  114MOL   C16734293   3.554   6.171   6.058  0.2764 -0.8557 -0.2910
  114MOL   C16834294   3.549   6.222   5.914  0.3044  0.0992  0.4496
  114MOL   C16934295   3.414   6.283   5.885 -0.5188 -0.3722 -1.0044
  114MOL   C17034296   3.670   6.319   5.882 -0.9276 -0.4580  0.4910
  114MOL   O17134297   3.648   6.432   5.851  0.0250  0.2467  0.1079
  114MOL   O17234298   3.783   6.260   5.905 -0.1597 -0.0529 -0.1626
  114MOL   C17334299   3.906   6.321   5.886 -0.8855 -0.2236  0.2851
  114MOL   H17434300   3.481   6.091   6.068 -2.8402  2.0233  0.9476
  114MOL   H17534301   3.657   6.139   6.070 -0.0634 -1.2870  1.7178
  114MOL   H17634302   3.382   6.310   5.784 -2.0178 -2.0166 -0.9869
  114MOL   H17734303   3.340   6.211   5.920  1.6048 -1.9739  0.3193
  114MOL   H17834304   3.404   6.383   5.928  0.6925 -0.1102 -1.3146
  114MOL   H17934305   3.922   6.406   5.952  0.8570 -0.8317  0.6838
  114MOL   H18034306   3.914   6.365   5.787  2.7819 -0.6627  0.3153
  114MOL   H18134307   3.984   6.246   5.898  0.4284  0.9361 -0.8969
  114MOL   C18234308   3.561   6.086   5.829  0.7411  0.0379  0.1271
  114MOL   C18334309   3.593   6.085   5.672 -1.0692  0.2235 -0.3013
  114MOL   C18434310   3.530   6.206   5.598  0.1913  0.3587  0.1074
  114MOL   C18534311   3.747   6.091   5.654 -0.4660 -0.1472 -0.5086
  114MOL   O18634312   3.808   6.188   5.602  0.0085 -0.2395  0.1289
  114MOL   O18734313   3.809   5.979   5.682 -0.8556  0.0894 -0.2338
  114MOL   C18834314   3.949   5.965   5.697 -0.5092 -0.5329  0.1736
  114MOL   H18934315   3.469   6.035   5.854  1.1362  0.2964  2.2267
  114MOL   H19034316   3.637   6.029   5.883  0.0217  0.9577  2.1724
  114MOL   H19134317   3.565   6.303   5.633  1.7001 -0.0306 -0.2551
  114MOL   H19234318   3.567   6.208   5.495 -0.5973 -1.1918 -0.2215
  114MOL   H19334319   3.422   6.204   5.585  0.5373  0.8844 -3.5800
  114MOL   H19434320   3.995   6.039   5.763 -2.1693 -0.1240  0.8942
  114MOL   H19534321   3.993   5.974   5.598  1.4485  2.8249  1.2307
  114MOL   H19634322   3.971   5.868   5.741 -1.1204 -0.5149  0.5229
  114MOL   C19734323   3.543   5.940   5.616 -0.0985  0.0785 -0.5910
  114MOL   C19834324   3.545   5.903   5.467  0.0974 -0.5444 -0.3653
  114MOL   C19934325   3.431   5.970   5.396  0.4955 -0.3319 -0.7413
  114MOL   C20034326   3.673   5.941   5.389 -0.5533  0.7211 -0.3434
  114MOL   O20134327   3.762   5.865   5.370 -0.4766 -0.0778  0.2389
  114MOL   O20234328   3.673   6.058   5.346  0.0849  0.1674 -0.0377
  114MOL   C20334329   3.786   6.113   5.282  0.2660  0.1795  0.0307
  114MOL   H20434330   3.438   5.947   5.642  0.0923 -1.3386  0.6035
  114MOL   H20534331   3.569   5.864   5.689  0.2301  0.9394  0.2069
  114MOL   H20634332   3.336   5.923   5.421  0.8644 -0.2746  0.8221
  114MOL   H20734333   3.405   6.073   5.420  1.8679 -0.4672  1.4613
  114MOL   H20834334   3.441   5.966   5.287  0.2199 -3.7223 -0.6848
  114MOL   H20934335   3.756   6.211   5.244  1.5044  0.9394  0.9898
  114MOL   H21034336   3.819   6.043   5.205 -0.0578 -2.9091  2.5755
  114MOL   H21134337   3.871   6.117   5.350 -0.2712 -0.0057  0.7239
  114MOL   C21234338   3.514   5.746   5.455  0.3161  0.0588 -0.1621
  114MOL   C21334339   3.570   5.628   5.543 -0.0178  0.5117 -0.1526
  114MOL   C21434340   3.722   5.634   5.572 -0.3097 -0.3712 -0.5954
  114MOL   C21534341   3.486   5.613   5.678 -0.1159  1.1574 -0.1497
  114MOL   O21634342   3.378   5.671   5.699  0.2873 -0.0639  0.3576
  114MOL   O21734343   3.542   5.524   5.761  0.0090  0.5858 -0.5715
  114MOL   C21834344   3.458   5.483   5.874 -0.0246  0.0314  0.8071
  114MOL   H21934345   3.525   5.723   5.349  1.0551 -0.1095 -0.0500
  114MOL   H22034346   3.407   5.743   5.477  0.4256 -1.9509  0.1776
  114MOL   H22134347   3.763   5.551   5.629 -0.0128  0.1459 -0.0477
  114MOL   H22234348   3.787   5.647   5.486 -0.0772 -0.6128 -0.4583
  114MOL   H22334349   3.735   5.730   5.623 -1.8234  0.2010 -1.2817
  114MOL   H22434350   3.425   5.567   5.936  1.3430  1.6105 -0.5491
  114MOL   H22534351   3.531   5.420   5.925  1.7051 -2.5807 -4.5402
  114MOL   H22634352   3.376   5.426   5.830 -1.6290  2.9377 -0.0899
  114MOL   C22734353   3.557   5.495   5.459  0.5286  0.3955  0.1857
  114MOL   C22834354   3.419   5.417   5.432  0.1617 -0.4821  0.6327
  114MOL   C22934355   3.393   5.326   5.548 -0.3395  0.5367 -0.6508
  114MOL   C23034356   3.298   5.515   5.419 -0.2043 -0.0731 -0.2857
  114MOL   O23134357   3.208   5.518   5.503 -0.0877 -0.7739 -0.2795
  114MOL   O23234358   3.294   5.580   5.309 -0.4126  0.0863 -0.2638
  114MOL   C23334359   3.190   5.662   5.274  0.2312 -0.1397 -0.6790
  114MOL   H23434360   3.629   5.434   5.513  1.2040  0.3837 -0.7385
  114MOL   H23534361   3.598   5.513   5.360 -0.3458  1.8209  0.0607
  114MOL   H23634362   3.468   5.250   5.568 -1.1136 -0.3215 -0.9896
  114MOL   H23734363   3.380   5.385   5.639 -0.2614  0.1207 -0.3682
  114MOL   H23834364   3.301   5.270   5.534  0.5565 -1.1754  0.1191
  114MOL   H23934365   3.094   5.622   5.306 -0.1769 -0.3178 -2.1102
  114MOL   H24034366   3.165   5.671   5.168 -0.1079 -0.3574 -0.6190
  114MOL   H24134367   3.205   5.764   5.311 -1.5945  0.5880 -1.8436
  114MOL   C24234368   3.456   5.337   5.295  0.0673  0.0358 -0.1437
  114MOL   C24334369   3.368   5.223   5.227  0.1658 -0.3160  1.4423
  114MOL   C24434370   3.224   5.266   5.207  0.4949 -0.4914  0.8268
  114MOL   C24534371   3.425   5.190   5.086 -0.4494 -0.0486  0.4884
  114MOL   O24634372   3.361   5.206   4.982  0.1957  0.0192 -0.2080
  114MOL   O24734373   3.557   5.171   5.090  0.4603 -0.0024  0.0583
  114MOL   C24834374   3.622   5.121   4.973  0.1896 -0.1394  1.2833
  114MOL   H24934375   3.554   5.289   5.303  0.1869  0.6440  2.6178
  114MOL   H25034376   3.478   5.409   5.216 -1.9418 -0.8727 -1.5699
  114MOL   H25134377   3.165   5.191   5.154  0.7765  1.9137 -3.0395
  114MOL   H25234378   3.170   5.272   5.302  2.9369  1.1926  2.1801
  114MOL   H25334379   3.221   5.352   5.140 -1.6431 -1.4369 -0.3533
  114MOL   H25434380   3.728   5.097   4.985  0.3175  0.0350  0.4897
  114MOL   H25534381   3.603   5.180   4.883  2.0026  0.2604  1.1426
  114MOL   H25634382   3.583   5.026   4.938  2.0933 -0.4084 -0.1982
  114MOL   C25734383   3.360   5.106   5.329  0.1605  0.8695  0.0598
  114MOL   C25834384   3.346   4.952   5.283 -0.2319 -0.1726  1.1165
  114MOL   C25934385   3.241   4.928   5.178  0.8748  0.1740  0.7610
  114MOL   C26034386   3.484   4.901   5.231  0.0989 -0.2896  0.4058
  114MOL   O26134387   3.494   4.827   5.131  0.3894  0.2282 -0.1491
  114MOL   O26234388   3.582   4.938   5.309 -0.2420 -0.3922  0.3068
  114MOL   C26334389   3.709   4.882   5.292  1.1520 -0.2839 -0.2186
  114MOL   H26434390   3.272   5.107   5.394 -1.2466  2.0404 -1.8267
  114MOL   H26534391   3.447   5.118   5.395 -0.8091  0.6242  1.4100
  114MOL   H26634392   3.228   4.826   5.143 -0.3758  1.7328 -3.5870
  114MOL   H26734393   3.143   4.964   5.208 -0.2581 -0.5033 -2.0632
  114MOL   H26834394   3.268   4.986   5.090 -2.1666 -0.3187 -0.5572
  114MOL   H26934395   3.701   4.783   5.337 -0.0717  0.1628  0.5785
  114MOL   H27034396   3.777   4.953   5.339  1.6282  0.2607 -1.6791
  114MOL   H27134397   3.736   4.874   5.187  1.4027 -2.0496 -0.0371
  114MOL   C27234398   3.300   4.863   5.406 -0.1174 -0.8034  0.0155
  114MOL   C27334399   3.368   4.835   5.544  0.5532  0.2667  0.9074
  114MOL   C27434400   3.263   4.761   5.630 -1.2573 -0.2751  0.0545
  114MOL   C27534401   3.488   4.736   5.526  0.0824  0.0197  0.6263
  114MOL   O27634402   3.602   4.764   5.568  0.4257 -0.4519  0.2275
  114MOL   O27734403   3.446   4.620   5.477 -0.2162  0.4811  0.0628
  114MOL   C27834404   3.524   4.510   5.450 -0.5319 -0.6597  0.0536
  114MOL   H27934405   3.287   4.769   5.354  2.1150 -1.9571  1.4508
  114MOL   H28034406   3.199   4.903   5.419  1.3586  2.6806  1.2994
  114MOL   H28134407   3.310   4.689   5.697 -0.4761  2.3928  2.4685
  114MOL   H28234408   3.199   4.824   5.691  0.4125  1.5926 -0.0708
  114MOL   H28334409   3.188   4.705   5.574 -1.4392 -0.7600  0.7853
  114MOL   H28434410   3.585   4.492   5.539 -0.1570 -0.4520 -0.1565
  114MOL   H28534411   3.584   4.507   5.359 -2.1015 -0.7501 -0.9948
  114MOL   H28634412   3.459   4.423   5.450  0.0607 -1.1118 -0.4419
  114MOL   C28734413   3.416   4.970   5.605 -0.5083 -0.2662  0.7185
  114MOL   C28834414   3.460   4.966   5.750 -0.1869 -0.3742 -0.3779
  114MOL   C28934415   3.582   5.060   5.781  0.0235 -0.1018 -0.0771
  114MOL   C29034416   3.348   5.007   5.851  0.1882  0.9917 -0.1241
  114MOL   O29134417   3.274   5.105   5.826 -0.0140 -0.4843 -0.2348
  114MOL   O29234418   3.345   4.944   5.967 -0.4250  0.0068  0.2254
  114MOL   C29334419   3.267   4.981   6.072  0.2271  0.5585 -0.5328
  114MOL   H29434420   3.333   5.040   5.601 -1.2946 -1.2794 -1.8125
  114MOL   H29534421   3.501   5.006   5.547 -1.7770  0.4858 -0.6733
  114MOL   H29634422   3.656   5.050   5.701  1.4782 -3.8034  1.5986
  114MOL   H29734423   3.554   5.165   5.787 -1.0677 -0.3810 -0.0857
  114MOL   H29834424   3.633   5.037   5.874 -1.0323  1.2155  0.8365
  114MOL   H29934425   3.168   4.941   6.047  0.2271  1.8128 -2.6606
  114MOL   H30034426   3.252   5.089   6.076  1.5542  0.7182  0.3870
  114MOL   H30134427   3.307   4.946   6.167  1.8927 -0.8899 -1.7232
  114MOL   H30234428   3.492   4.866   5.779 -2.2179 -0.8811  0.1582
  115MOL     C134429   0.475   2.151   4.101 -0.4796  0.8590  0.1608
  115MOL     C234430   0.566   2.116   3.982 -0.3279 -0.6846  0.1622
  115MOL     C334431   0.702   2.097   4.045 -0.2527 -0.3219 -0.7026
  115MOL     C434432   0.530   1.971   3.931  0.7236  0.2489  0.1028
  115MOL     O534433   0.443   1.907   3.992 -0.2126  0.2898  0.2323
  115MOL     O634434   0.606   1.919   3.826  0.5102  0.1499  0.6631
  115MOL     C734435   0.590   1.781   3.797  0.1108 -1.0779  0.3305
  115MOL     H834436   0.369   2.155   4.077  0.2654  1.2786 -3.3499
  115MOL     H934437   0.474   2.072   4.176  1.0735  0.0605 -0.6279
  115MOL    H1034438   0.748   2.193   4.067 -1.0907 -0.8355  3.8984
  115MOL    H1134439   0.695   2.049   4.143  1.3584 -0.2649 -0.5408
  115MOL    H1234440   0.776   2.045   3.984  0.2190  0.8402 -1.1263
  115MOL    H1334441   0.643   1.718   3.868  2.3058  0.8213  0.4559
  115MOL    H1434442   0.622   1.750   3.697 -1.9958 -1.0562 -0.3767
  115MOL    H1534443   0.484   1.756   3.788 -0.1985 -0.4655  2.0453
  115MOL    H1634444   0.513   2.243   4.146 -0.1638  1.6099 -1.5907
  115MOL    C1734445   0.552   2.229   3.871 -0.2074  0.4343 -0.5545
  115MOL    C1834446   0.419   2.307   3.832 -0.5493 -0.0335  0.0756
  115MOL    C1934447   0.312   2.200   3.792 -0.0604 -0.0569  0.0325
  115MOL    C2034448   0.377   2.397   3.951 -0.3271 -0.3724  0.4508
  115MOL    O2134449   0.269   2.398   4.010 -0.1794 -0.5604 -0.1955
  115MOL    O2234450   0.479   2.480   3.999 -0.3405 -0.0362 -0.0007
  115MOL    C2334451   0.471   2.554   4.117  0.8095 -0.4223  0.0441
  115MOL    H2434452   0.590   2.185   3.779  1.2559  1.1929 -0.3208
  115MOL    H2534453   0.628   2.297   3.909  0.8949  0.8300 -3.3456
  115MOL    H2634454   0.234   2.241   3.728  0.2972  0.7848  0.1376
  115MOL    H2734455   0.366   2.121   3.740  0.8556  0.0187  0.8539
  115MOL    H2834456   0.255   2.163   3.878 -1.5864  2.0207 -0.0507
  115MOL    H2934457   0.462   2.483   4.200 -0.4139  0.0956  0.3678
  115MOL    H3034458   0.401   2.637   4.119  2.6074  1.1358  1.2897
  115MOL    H3134459   0.570   2.595   4.137  2.0348 -4.0526  1.9481
  115MOL    C3234460   0.436   2.410   3.709  0.2019  0.6634  0.5424
  115MOL    C3334461   0.535   2.380   3.592  0.2055  0.9238  0.1486
  115MOL    C3434462   0.677   2.400   3.644  0.1704 -0.3570  0.4345
  115MOL    C3534463   0.514   2.234   3.538  0.4185 -0.1544 -0.0540
  115MOL    O3634464   0.602   2.145   3.532  0.3846  0.1161 -0.1441
  115MOL    O3734465   0.390   2.210   3.504 -0.1724  0.2963 -0.0839
  115MOL    C3834466   0.362   2.079   3.468  0.5379  0.0003 -0.5037
  115MOL    H3934467   0.462   2.508   3.749 -0.5058  0.6191  1.1154
  115MOL    H4034468   0.338   2.435   3.669 -0.4516 -0.0740  1.6712
  115MOL    H4134469   0.750   2.388   3.564  2.5701 -0.4228  2.5575
  115MOL    H4234470   0.696   2.492   3.699  1.2234  0.0166 -0.5269
  115MOL    H4334471   0.721   2.323   3.707  1.1011 -0.8107 -0.7455
  115MOL    H4434472   0.428   2.036   3.393  1.4534 -3.2387  2.0171
  115MOL    H4534473   0.266   2.077   3.416  0.3848 -0.8973 -0.1953
  115MOL    H4634474   0.369   2.006   3.549  1.4884 -2.0030 -2.3336
  115MOL    C4734475   0.508   2.486   3.486  0.0542 -0.7233  0.2856
  115MOL    C4834476   0.610   2.518   3.365 -0.0539 -0.2764  0.6067
  115MOL    C4934477   0.660   2.380   3.303  0.2188 -0.6125  0.0250
  115MOL    C5034478   0.516   2.583   3.252  0.1461 -0.2706  0.6870
  115MOL    O5134479   0.408   2.639   3.273  0.6492  0.7502 -0.1232
  115MOL    O5234480   0.571   2.577   3.133 -0.3028  0.0232  0.6701
  115MOL    C5334481   0.523   2.670   3.041 -0.0216  0.3876 -0.2013
  115MOL    H5434482   0.489   2.581   3.537 -1.6146 -1.9433  2.0163
  115MOL    H5534483   0.410   2.457   3.447 -0.1603 -0.1635  0.3947
  115MOL    H5634484   0.730   2.327   3.366 -0.2420 -1.5419 -0.2266
  115MOL    H5734485   0.577   2.311   3.285 -1.3282  0.8188  1.5465
  115MOL    H5834486   0.704   2.399   3.205 -1.1665  1.9336 -0.1449
  115MOL    H5934487   0.497   2.613   2.951 -1.4989  1.0132 -0.1781
  115MOL    H6034488   0.597   2.744   3.008  1.1058 -0.2245  0.9210
  115MOL    H6134489   0.428   2.720   3.061 -0.8067 -0.8256 -0.8420
  115MOL    C6234490   0.730   2.602   3.426 -0.3130 -0.1846  0.1810
  115MOL    C6334491   0.759   2.751   3.391  0.0815 -0.3951 -0.2055
  115MOL    C6434492   0.825   2.749   3.250  0.7899  0.5601 -0.2790
  115MOL    C6534493   0.629   2.837   3.398  0.3076  0.2331  0.2933
  115MOL    O6634494   0.599   2.912   3.303 -0.5356 -0.2012  0.3726
  115MOL    O6734495   0.560   2.816   3.514 -0.0405 -0.1205 -0.5529
  115MOL    C6834496   0.435   2.883   3.534  0.9975  0.0427  0.0243
  115MOL    H6934497   0.817   2.540   3.410 -0.8612 -1.1656  0.9837
  115MOL    H7034498   0.711   2.611   3.533  1.0219  1.0602  0.3300
  115MOL    H7134499   0.842   2.849   3.209 -0.0993  0.9184  0.2219
  115MOL    H7234500   0.912   2.685   3.234  0.3368  0.4281 -2.3102
  115MOL    H7334501   0.757   2.713   3.173  0.4067  0.4471  0.1120
  115MOL    H7434502   0.453   2.979   3.582 -0.5935  0.2146  0.3008
  115MOL    H7534503   0.392   2.831   3.620  0.9735  0.3198  0.1781
  115MOL    H7634504   0.377   2.900   3.444  0.4573 -1.5032  0.0622
  115MOL    C7734505   0.864   2.796   3.499 -0.8783  0.3351 -0.3619
  115MOL    C7834506   0.939   2.932   3.501  0.7963  0.5816  0.1710
  115MOL    C7934507   1.009   2.936   3.640 -0.3035  0.1856  0.2988
  115MOL    C8034508   1.050   2.928   3.396  0.4504 -0.5584  0.2785
  115MOL    O8134509   1.035   2.983   3.281 -0.7781  0.9807 -0.2662
  115MOL    O8234510   1.148   2.846   3.432 -0.3056 -0.0758 -0.3851
  115MOL    C8334511   1.253   2.818   3.344  0.0370  0.1983  0.0702
  115MOL    H8434512   0.940   2.718   3.494 -1.0510  0.1769 -0.5628
  115MOL    H8534513   0.812   2.799   3.595  0.4368  2.6847  0.3138
  115MOL    H8634514   0.932   2.941   3.717 -0.7243  0.3384 -0.1329
  115MOL    H8734515   1.077   2.852   3.657 -0.6223 -0.2710 -0.6661
  115MOL    H8834516   1.076   3.022   3.639 -0.6491  0.4549 -0.7652
  115MOL    H8934517   1.221   2.792   3.243  0.3610  1.7051 -0.4444
  115MOL    H9034518   1.324   2.745   3.384 -1.1523 -0.3364  1.2326
  115MOL    H9134519   1.304   2.911   3.319  1.0117 -0.4636 -0.4180
  115MOL    C9234520   0.848   3.054   3.495 -0.6057  0.1087  0.0284
  115MOL    C9334521   0.873   3.205   3.533 -0.6001 -0.0372 -0.2292
  115MOL    C9434522   0.879   3.225   3.687 -0.0698 -0.4427 -0.1419
  115MOL    C9534523   1.012   3.246   3.478  0.1095 -0.7410 -0.5145
  115MOL    O9634524   1.112   3.250   3.550  0.0070  0.2477  0.3070
  115MOL    O9734525   1.011   3.272   3.345  0.2854 -0.2020 -0.0375
  115MOL    C9834526   1.136   3.291   3.277 -0.3867 -0.0612 -0.4225
  115MOL    H9934527   0.756   3.027   3.547 -0.1408 -0.5921  0.5008
  115MOL   H10034528   0.804   3.050   3.395  1.7120 -0.8057 -0.9902
  115MOL   H10134529   0.920   3.325   3.701  0.7317 -1.2739  4.1598
  115MOL   H10234530   0.779   3.213   3.729  0.6493 -0.8458  1.4969
  115MOL   H10334531   0.950   3.169   3.748  0.8488  0.3640 -0.4673
  115MOL   H10434532   1.207   3.213   3.305 -0.4715 -0.5171 -1.4846
  115MOL   H10534533   1.174   3.393   3.287 -1.7016  0.5209 -1.3778
  115MOL   H10634534   1.106   3.252   3.180 -0.8691  1.4795 -0.9055
  115MOL   C10734535   0.769   3.301   3.467  0.1799 -1.0591  0.1978
  115MOL   C10834536   0.615   3.327   3.511  0.2296 -0.0103 -0.2880
  115MOL   C10934537   0.546   3.189   3.521  0.0179 -0.2449 -0.6873
  115MOL   C11034538   0.609   3.401   3.649  0.0494 -0.5459  0.1730
  115MOL   O11134539   0.537   3.360   3.745 -0.2755  0.0513  0.0563
  115MOL   O11234540   0.685   3.509   3.653 -0.2633  0.4175 -0.0122
  115MOL   C11334541   0.707   3.564   3.779  0.4623 -0.5327  0.4240
  115MOL   H11434542   0.759   3.274   3.362 -0.5185 -1.1493  0.2866
  115MOL   H11534543   0.810   3.401   3.459 -2.0028 -0.0867  0.7569
  115MOL   H11634544   0.546   3.134   3.426  2.6302 -0.1317 -0.7755
  115MOL   H11734545   0.590   3.129   3.600  0.1817  2.8905  1.7055
  115MOL   H11834546   0.446   3.210   3.558 -1.2106  0.7249 -4.3482
  115MOL   H11934547   0.740   3.668   3.781  1.2097 -0.7193 -1.1033
  115MOL   H12034548   0.772   3.496   3.835 -0.0353 -0.8393  0.6293
  115MOL   H12134549   0.627   3.569   3.852  1.1943 -2.3808  1.3874
  115MOL   C12234550   0.552   3.413   3.386 -0.1706  0.4887  0.3051
  115MOL   C12334551   0.427   3.511   3.396  0.1098  0.4723  0.0707
  115MOL   C12434552   0.325   3.424   3.471 -0.5943  0.6734  0.1208
  115MOL   C12534553   0.444   3.637   3.480 -0.6970  0.1790 -0.3832
  115MOL   O12634554   0.357   3.685   3.555 -0.5013 -0.4441  0.9608
  115MOL   O12734555   0.556   3.707   3.445  0.1781 -0.3002  0.3754
  115MOL   C12834556   0.598   3.827   3.519 -0.4379  0.4489 -0.4563
  115MOL   H12934557   0.535   3.339   3.307 -1.3317 -1.0445  1.9480
  115MOL   H13034558   0.629   3.482   3.351 -0.3914  0.6570  0.1491
  115MOL   H13134559   0.225   3.469   3.472 -1.5819 -1.4295  2.0479
  115MOL   H13234560   0.300   3.329   3.424 -1.9366  1.3394 -0.5542
  115MOL   H13334561   0.345   3.415   3.578 -0.0794  1.8233  0.1350
  115MOL   H13434562   0.528   3.910   3.524  1.7430  2.3724 -0.7778
  115MOL   H13534563   0.696   3.867   3.491 -0.3563  0.5041 -0.0949
  115MOL   H13634564   0.618   3.790   3.619 -1.3962  0.0832 -0.4025
  115MOL   C13734565   0.352   3.538   3.261 -0.8110 -0.1846 -0.5395
  115MOL   C13834566   0.399   3.654   3.157  0.3933 -0.4599 -0.1924
  115MOL   C13934567   0.547   3.643   3.113  0.4312 -0.3021 -0.2660
  115MOL   C14034568   0.323   3.628   3.018 -0.0490 -0.2816 -0.4095
  115MOL   O14134569   0.376   3.654   2.909  0.0367  0.1834 -1.1086
  115MOL   O14234570   0.200   3.571   3.028 -0.1331 -0.1001 -0.3957
  115MOL   C14334571   0.129   3.568   2.902  0.1215  0.0240 -0.3303
  115MOL   H14434572   0.244   3.550   3.271 -0.6839  0.3685  0.2236
  115MOL   H14534573   0.367   3.444   3.208  1.4473  1.3396 -2.7126
  115MOL   H14634574   0.565   3.716   3.034  1.2400 -0.2013  0.0053
  115MOL   H14734575   0.605   3.664   3.203 -0.4749 -5.1973  1.5911
  115MOL   H14834576   0.586   3.546   3.083  1.8973  0.0572  0.3874
  115MOL   H14934577   0.130   3.467   2.860 -1.5217 -0.3297  0.4410
  115MOL   H15034578   0.167   3.638   2.828 -1.2284  0.2002 -0.8601
  115MOL   H15134579   0.024   3.596   2.915  0.3394  1.0298 -0.6846
  115MOL   C15234580   0.377   3.808   3.199  0.3996  0.7100  0.7029
  115MOL   C15334581   0.247   3.894   3.165  0.1389  1.0312 -0.5362
  115MOL   C15434582   0.238   3.918   3.009 -0.5170  0.1051  0.0162
  115MOL   C15534583   0.121   3.819   3.214  0.4990  0.6071  0.7889
  115MOL   O15634584   0.022   3.804   3.136 -0.0902  0.0357  0.0465
  115MOL   O15734585   0.121   3.785   3.340 -0.0055  0.1143 -0.3323
  115MOL   C15834586   0.018   3.703   3.393  0.5731 -0.2335 -0.1796
  115MOL   H15934587   0.461   3.873   3.179 -0.2922  0.6450 -2.7841
  115MOL   H16034588   0.378   3.803   3.308  1.3601 -1.1424  0.6244
  115MOL   H16134589   0.184   4.011   2.991 -0.5414  0.3196  1.1452
  115MOL   H16234590   0.343   3.936   2.983 -0.0522  0.6654  2.1631
  115MOL   H16334591   0.195   3.842   2.944 -0.6353 -0.0625  0.2906
  115MOL   H16434592   0.042   3.663   3.491 -0.0567  2.9008  1.3181
  115MOL   H16534593   0.010   3.613   3.331  0.5636 -0.6052  0.3578
  115MOL   H16634594   7.797   3.748   3.402  1.4013  1.6157 -0.2886
  115MOL   C16734595   0.261   4.036   3.241 -0.4901  0.2504 -0.1015
  115MOL   C16834596   0.148   4.126   3.305  0.1558 -0.6605  0.0612
  115MOL   C16934597   0.041   4.163   3.193  0.2966  0.0040  0.0151
  115MOL   C17034598   0.073   4.058   3.421  0.2589  0.2445 -0.1021
  115MOL   O17134599   7.831   4.035   3.427  0.0876 -0.5660  0.0899
  115MOL   O17234600   0.166   4.020   3.520  0.0934 -0.1660  0.0220
  115MOL   C17334601   0.118   3.970   3.646  0.0379 -0.2826 -0.3682
  115MOL   H17434602   0.312   4.104   3.172 -2.0516  0.2739 -1.2642
  115MOL   H17534603   0.331   4.027   3.323 -0.8972  4.1618  0.8031
  115MOL   H17634604   7.832   4.222   3.225 -0.0081  0.9536 -2.4580
  115MOL   H17734605   0.094   4.213   3.112  0.8408  0.7598  0.8271
  115MOL   H17834606   7.869   4.074   3.154 -0.9183  1.2445 -1.3173
  115MOL   H17934607   0.207   3.940   3.700  0.2799 -1.3406 -1.3170
  115MOL   H18034608   0.054   3.884   3.626  0.2951 -0.8245  1.1437
  115MOL   H18134609   0.064   4.047   3.700 -0.1566  1.2506 -2.6673
  115MOL   C18234610   0.195   4.272   3.353 -0.6605 -0.8986  0.1961
  115MOL   C18334611   0.300   4.307   3.467 -0.5278 -0.3235 -0.6436
  115MOL   C18434612   0.426   4.211   3.469 -0.3085  0.8814  0.5440
  115MOL   C18534613   0.366   4.449   3.429 -0.0254 -0.0533 -0.6811
  115MOL   O18634614   0.486   4.471   3.431 -0.0238  0.0859  0.2177
  115MOL   O18734615   0.275   4.543   3.416 -0.9788 -1.0091 -0.2541
  115MOL   C18834616   0.308   4.678   3.395 -0.3284  0.5584 -0.1759
  115MOL   H18934617   0.106   4.329   3.379 -0.2960 -0.6946  1.0204
  115MOL   H19034618   0.222   4.321   3.260 -1.2272 -0.9563 -0.0035
  115MOL   H19134619   0.504   4.252   3.534  0.8136  0.6854 -0.6570
  115MOL   H19234620   0.395   4.115   3.510 -0.0808  1.4170  2.0011
  115MOL   H19334621   0.477   4.197   3.373 -1.4842 -0.3036  0.0761
  115MOL   H19434622   0.341   4.698   3.293 -0.6691 -0.9658 -0.6039
  115MOL   H19534623   0.393   4.696   3.461 -0.6033  0.6519  0.1512
  115MOL   H19634624   0.223   4.742   3.417 -1.4074 -0.7520 -0.4381
  115MOL   C19734625   0.220   4.330   3.600  1.4940 -0.8029  0.8990
  115MOL   C19834626   0.283   4.352   3.740 -0.2360  0.3298 -0.7727
  115MOL   C19934627   0.339   4.211   3.783 -0.3300 -0.8833 -0.5514
  115MOL   C20034628   0.391   4.460   3.750  0.1721  0.1127  0.3029
  115MOL   O20134629   0.500   4.436   3.808  0.5954 -0.0745 -0.5795
  115MOL   O20234630   0.363   4.570   3.689 -0.1621  0.4737 -0.0318
  115MOL   C20334631   0.457   4.682   3.698 -0.0740  0.2897  0.1107
  115MOL   H20434632   0.143   4.253   3.601 -0.0605  0.6637 -0.4430
  115MOL   H20534633   0.167   4.425   3.591  0.4327 -1.6382 -2.0586
  115MOL   H20634634   0.424   4.173   3.726 -0.2346 -1.5713  0.0383
  115MOL   H20734635   0.372   4.225   3.886 -1.6312 -1.6857 -0.0119
  115MOL   H20834636   0.262   4.134   3.774 -1.6255  0.3020  0.2603
  115MOL   H20934637   0.548   4.659   3.642 -0.6421 -0.0927 -0.6631
  115MOL   H21034638   0.477   4.715   3.800  0.2391  2.4979 -0.6309
  115MOL   H21134639   0.403   4.761   3.645 -1.5533 -0.3067  0.6895
  115MOL   C21234640   0.171   4.376   3.847  0.2463 -0.1009 -0.7021
  115MOL   C21334641   0.049   4.485   3.834 -0.4523 -0.1598 -0.5864
  115MOL   C21434642   0.085   4.624   3.766 -0.1242 -0.2593  0.4317
  115MOL   C21534643   7.813   4.416   3.746 -0.8353  0.1462  0.3300
  115MOL   O21634644   7.754   4.482   3.659  0.3571 -0.1114  0.3170
  115MOL   O21734645   7.790   4.291   3.786  0.4702 -0.2218 -0.6821
  115MOL   C21834646   7.703   4.199   3.711 -0.2244  0.4157 -0.3014
  115MOL   H21934647   0.227   4.400   3.937 -0.2899  1.8453 -0.8598
  115MOL   H22034648   0.131   4.281   3.884 -0.8673  0.4140 -0.5506
  115MOL   H22134649   7.877   4.691   3.769  1.6370  2.0535 -0.0700
  115MOL   H22234650   0.173   4.678   3.800  2.5068 -2.2018 -2.9666
  115MOL   H22334651   0.095   4.616   3.658 -0.7189  1.4955  0.2268
  115MOL   H22434652   7.682   4.226   3.608 -1.5145 -2.5157 -0.8854
  115MOL   H22534653   7.604   4.183   3.755  0.4225  0.4613  1.2019
  115MOL   H22634654   7.744   4.098   3.717  0.0179  0.4602 -1.2004
  115MOL   C22734655   7.854   4.508   3.971  0.5710 -0.0619 -0.0855
  115MOL   C22834656   0.027   4.599   4.087  0.1360  0.3588 -0.4665
  115MOL   C22934657   0.173   4.568   4.118 -0.9082  0.0611  0.1536
  115MOL   C23034658   0.017   4.746   4.050  0.6752 -0.8005  0.5868
  115MOL   O23134659   0.109   4.827   4.041 -0.0110 -0.1675  0.2911
  115MOL   O23234660   7.772   4.776   4.011 -0.3459 -0.0802  0.3615
  115MOL   C23334661   7.736   4.908   3.974 -0.3161 -0.5159 -0.2010
  115MOL   H23434662   7.837   4.413   4.022  0.5002 -0.6019 -1.0909
  115MOL   H23534663   7.748   4.530   3.957  0.6588  0.2559 -0.2354
  115MOL   H23634664   0.198   4.615   4.213  1.5148 -0.3629 -0.2375
  115MOL   H23734665   0.188   4.462   4.137 -3.8151 -0.9721 -2.9072
  115MOL   H23834666   0.244   4.588   4.038 -2.2866 -0.5693 -1.2516
  115MOL   H23934667   7.811   4.939   3.901 -0.1279  0.5481  0.4476
  115MOL   H24034668   7.749   4.976   4.057 -1.6484  0.4205 -0.7507
  115MOL   H24134669   7.638   4.913   3.927  0.1747 -2.6900 -1.5757
  115MOL   C24234670   7.813   4.573   4.219  0.5749 -0.1732 -0.3576
  115MOL   C24334671   7.823   4.631   4.364 -0.6109 -0.5227 -0.2806
  115MOL   C24434672   0.062   4.586   4.453 -0.1317 -0.0443  0.0679
  115MOL   C24534673   7.819   4.785   4.351  0.2352  0.8779  0.0237
  115MOL   O24634674   7.719   4.846   4.324 -0.3466  0.3345  0.3021
  115MOL   O24734675   0.057   4.847   4.360 -0.3020 -0.5772  0.2185
  115MOL   C24834676   0.061   4.988   4.351 -0.2776  0.0224  0.6940
  115MOL   H24934677   7.812   4.464   4.229  0.0532 -0.1952 -0.6069
  115MOL   H25034678   7.711   4.605   4.196 -0.3595 -0.0087  3.6266
  115MOL   H25134679   0.060   4.478   4.460  1.3015  0.0159  1.8303
  115MOL   H25234680   0.157   4.623   4.414  0.3162 -1.3806 -0.1058
  115MOL   H25334681   0.061   4.629   4.554 -1.4387 -3.7475  1.7014
  115MOL   H25434682   0.002   5.050   4.418  0.4133  1.1097  0.3130
  115MOL   H25534683   0.033   5.015   4.249 -4.9336 -1.0118  1.6007
  115MOL   H25634684   0.166   5.016   4.357  0.7933 -2.5591 -3.4462
  115MOL   C25734685   7.687   4.576   4.432  0.0980  0.4625  0.2300
  115MOL   C25834686   7.657   4.550   4.589  0.3261  0.1900  0.6970
  115MOL   C25934687   7.719   4.415   4.643  0.4124  0.1301  0.6548
  115MOL   C26034688   7.712   4.668   4.676 -0.3172 -0.2126 -0.3554
  115MOL   O26134689   7.784   4.655   4.777  0.3909 -0.6067  0.4170
  115MOL   O26234690   7.666   4.798   4.642  0.0387 -0.1576  0.6606
  115MOL   C26334691   7.718   4.913   4.693 -0.1965 -0.0123 -0.1516
  115MOL   H26434692   7.679   4.476   4.389 -0.2457 -0.2579  1.9294
  115MOL   H26534693   7.603   4.637   4.398 -0.3859 -0.0852  0.4372
  115MOL   H26634694   7.702   4.398   4.749  0.1270 -0.3240  0.5360
  115MOL   H26734695   7.680   4.331   4.586  2.0826  1.2026 -2.1876
  115MOL   H26834696   7.827   4.413   4.628  0.4288 -2.4201  0.9560
  115MOL   H26934697   7.699   4.915   4.800  1.1059 -1.5955  0.1296
  115MOL   H27034698   7.662   4.999   4.655 -0.1764 -0.7175 -1.8380
  115MOL   H27134699   7.825   4.920   4.672 -0.1886 -1.2419 -0.5251
  115MOL   C27234700   7.500   4.544   4.606  0.3308 -0.4259  0.0561
  115MOL   C27334701   7.401   4.420   4.562  0.0042  0.1506 -0.7251
  115MOL   C27434702   7.257   4.483   4.554 -0.2840  0.0873  0.4846
  115MOL   C27534703   7.443   4.373   4.419  0.3253 -0.2143  0.3640
  115MOL   O27634704   7.498   4.259   4.399 -0.1572 -0.3050  0.0107
  115MOL   O27734705   7.413   4.465   4.323 -0.1785 -0.1729 -0.3465
  115MOL   C27834706   7.427   4.424   4.180 -0.9691  0.2089  0.7214
  115MOL   H27934707   7.456   4.635   4.567 -2.1901 -2.0127 -0.9245
  115MOL   H28034708   7.477   4.555   4.712 -0.6769 -1.0244 -0.0983
  115MOL   H28134709   7.248   4.579   4.503 -2.1624 -0.2567  0.1329
  115MOL   H28234710   7.200   4.423   4.484 -2.1603  1.5499  0.7237
  115MOL   H28334711   7.206   4.482   4.650  2.8795 -3.1307  2.2526
  115MOL   H28434712   7.367   4.334   4.164 -1.0170  0.4068 -0.2645
  115MOL   H28534713   7.527   4.399   4.146  0.1268  1.1919  3.1499
  115MOL   H28634714   7.390   4.504   4.114 -0.7836 -2.3438 -2.6140
  115MOL   C28734715   7.402   4.299   4.672  0.0263 -0.1494 -0.3119
  115MOL   C28834716   7.305   4.175   4.641 -0.4192 -0.8294  0.3288
  115MOL   C28934717   7.388   4.044   4.630 -0.2430 -0.6490  0.1886
  115MOL   C29034718   7.196   4.166   4.751 -0.0071  0.2241  0.1653
  115MOL   O29134719   7.161   4.260   4.822 -0.5447 -0.0823 -0.4953
  115MOL   O29234720   7.142   4.044   4.770 -0.6189 -0.4030  0.1702
  115MOL   C29334721   7.052   4.012   4.878 -0.0123 -0.0531 -0.4462
  115MOL   H29434722   7.387   4.325   4.777 -0.7387  0.7455 -0.6331
  115MOL   H29534723   7.500   4.253   4.685  0.5422  1.6397  2.8402
  115MOL   H29634724   7.476   4.057   4.567 -0.3024 -1.6622 -0.1143
  115MOL   H29734725   7.411   3.996   4.725 -0.1817 -0.5035  0.2471
  115MOL   H29834726   7.325   3.975   4.574  0.2671  0.2754 -1.5685
  115MOL   H29934727   7.052   3.905   4.901  0.8368  0.2496  1.0589
  115MOL   H30034728   6.949   4.037   4.852  0.4172 -1.0885 -3.3016
  115MOL   H30134729   7.091   4.052   4.972 -0.4253 -3.6670  1.3733
  115MOL   H30234730   7.250   4.187   4.547 -1.3228 -2.1772  0.6591
  116MOL     C134731   6.340   4.295   1.473  0.3233  0.3742  0.4579
  116MOL     C234732   6.346   4.425   1.398  0.2062  1.2694 -0.2579
  116MOL     C334733   6.257   4.423   1.270  0.4666  0.0519 -0.3133
  116MOL     C434734   6.285   4.546   1.476  0.1225  0.4621  0.5178
  116MOL     O534735   6.220   4.513   1.576 -0.3171 -0.0153 -0.1936
  116MOL     O634736   6.296   4.665   1.412 -0.2730  0.2009 -0.3166
  116MOL     C734737   6.250   4.781   1.480  0.1573  0.4796  0.3328
  116MOL     H834738   6.379   4.303   1.575  0.5563  1.2251  0.3108
  116MOL     H934739   6.236   4.275   1.499  0.6049 -1.8323 -0.0262
  116MOL    H1034740   6.156   4.396   1.299  1.3954 -0.4344  2.6843
  116MOL    H1134741   6.261   4.523   1.227  0.7968  0.3011  0.2953
  116MOL    H1234742   6.290   4.346   1.200  0.4566  0.2646 -0.5552
  116MOL    H1334743   6.329   4.844   1.518  0.2170  1.5762 -1.5565
  116MOL    H1434744   6.176   4.769   1.559  0.1829  1.5665  0.5300
  116MOL    H1534745   6.201   4.839   1.401  3.0693  0.5318 -1.4986
  116MOL    H1634746   6.378   4.204   1.428  0.3035  1.1923 -1.2381
  116MOL    C1734747   6.495   4.450   1.361 -0.2346  0.7262  0.0159
  116MOL    C1834748   6.616   4.442   1.464  1.0990  0.5297 -0.2797
  116MOL    C1934749   6.584   4.510   1.607  0.9364  0.1521  0.0851
  116MOL    C2034750   6.650   4.295   1.481  0.5728 -0.1341 -0.0648
  116MOL    O2134751   6.662   4.218   1.383 -0.5369  0.0801 -0.1738
  116MOL    O2234752   6.672   4.249   1.606  0.0189 -0.0833 -0.2575
  116MOL    C2334753   6.696   4.113   1.628 -0.1359  0.8487 -0.0405
  116MOL    H2434754   6.505   4.553   1.324 -0.4737  0.2434 -1.4341
  116MOL    H2534755   6.520   4.398   1.269 -0.8931 -2.1540  1.4192
  116MOL    H2634756   6.659   4.505   1.686 -0.3637 -1.1762  1.2607
  116MOL    H2734757   6.558   4.615   1.597  0.3654 -0.1199 -1.5471
  116MOL    H2834758   6.508   4.457   1.665  1.4510 -0.1335  0.4997
  116MOL    H2934759   6.741   4.058   1.545  1.0215  0.9568  0.5075
  116MOL    H3034760   6.610   4.061   1.672  1.1247 -1.4136 -0.1615
  116MOL    H3134761   6.774   4.105   1.704 -2.2657  2.4464  2.4009
  116MOL    C3234762   6.737   4.521   1.406  0.1393  0.3123 -0.6861
  116MOL    C3334763   6.895   4.507   1.436  0.3355  0.0930  0.1385
  116MOL    C3434764   6.923   4.498   1.594  0.1505  0.3400  0.1968
  116MOL    C3534765   6.953   4.376   1.368 -0.3835  0.2471  0.5281
  116MOL    O3634766   7.017   4.286   1.430  0.0222 -0.2705  0.1901
  116MOL    O3734767   6.920   4.372   1.243  0.3765  1.1598  0.0985
  116MOL    C3834768   6.967   4.248   1.176 -0.0864  0.3206  0.0267
  116MOL    H3934769   6.712   4.627   1.409 -1.8728 -0.1617  1.1182
  116MOL    H4034770   6.732   4.491   1.302 -0.1930 -1.3929 -0.1852
  116MOL    H4134771   6.871   4.410   1.632 -1.1709  0.2288 -1.8118
  116MOL    H4234772   7.030   4.487   1.617  0.0422  0.7488  0.9118
  116MOL    H4334773   6.888   4.582   1.654  0.5750  1.2135 -0.7671
  116MOL    H4434774   6.915   4.230   1.082  1.6429 -0.2967 -0.8178
  116MOL    H4534775   6.962   4.157   1.235  2.4133  0.5417  0.6354
  116MOL    H4634776   7.068   4.263   1.138 -0.4794  1.1684 -0.7082
  116MOL    C4734777   6.960   4.635   1.372 -0.0097  0.0848 -0.3711
  116MOL    C4834778   7.113   4.673   1.364 -0.1825  0.1789 -0.3334
  116MOL    C4934779   7.200   4.559   1.308  0.0669 -0.0449 -0.3355
  116MOL    C5034780   7.125   4.794   1.273 -0.2738  0.3544  0.4053
  116MOL    O5134781   7.047   4.889   1.272 -0.1600 -0.1776 -0.2601
  116MOL    O5234782   7.228   4.791   1.187  0.7952 -0.7460 -0.1485
  116MOL    C5334783   7.234   4.900   1.094 -0.2736  0.0403 -0.6170
  116MOL    H5434784   6.921   4.720   1.427  0.7054 -0.2899  0.7255
  116MOL    H5534785   6.917   4.628   1.272  4.1606  1.0925 -2.3875
  116MOL    H5634786   7.302   4.588   1.284 -0.7191  1.1128 -2.3971
  116MOL    H5734787   7.203   4.476   1.379  1.0254  0.1349 -0.1615
  116MOL    H5834788   7.151   4.515   1.221 -1.2254  0.2708  0.2212
  116MOL    H5934789   7.171   4.865   1.011 -0.5095 -1.0685  0.0178
  116MOL    H6034790   7.331   4.895   1.045  1.0047  0.4223  1.8256
  116MOL    H6134791   7.219   5.002   1.131 -2.2690 -0.0779 -1.0451
  116MOL    C6234792   7.157   4.708   1.510  0.1556 -0.4865  0.7841
  116MOL    C6334793   7.268   4.817   1.549 -0.5310 -0.0133  0.2577
  116MOL    C6434794   7.394   4.803   1.455 -0.3390  0.9437 -0.0914
  116MOL    C6534795   7.210   4.969   1.528  0.1303 -0.0383  0.7311
  116MOL    O6634796   7.270   5.052   1.467  0.1363 -0.5089 -0.5087
  116MOL    O6734797   7.099   4.983   1.603 -0.6262  0.4826 -0.2468
  116MOL    C6834798   7.059   5.116   1.634  0.2791 -0.2688 -0.0734
  116MOL    H6934799   7.181   4.613   1.559 -2.8622 -1.2592  0.8782
  116MOL    H7034800   7.066   4.735   1.564 -0.1015 -1.9681  1.1131
  116MOL    H7134801   7.381   4.855   1.360 -0.9765 -1.1047 -1.1633
  116MOL    H7234802   7.484   4.847   1.497  0.0398  0.0737  0.0153
  116MOL    H7334803   7.425   4.704   1.422 -1.4986  1.1244 -1.8116
  116MOL    H7434804   7.042   5.178   1.546  0.7008  0.0483  0.0689
  116MOL    H7534805   7.136   5.155   1.701 -0.3133  0.9286 -0.0694
  116MOL    H7634806   6.969   5.131   1.694  0.5103  2.0477 -0.2662
  116MOL    C7734807   7.306   4.779   1.701 -0.5313  0.0791  0.1797
  116MOL    C7834808   7.363   4.862   1.820 -0.1390 -0.3822  0.0337
  116MOL    C7934809   7.456   4.958   1.756 -0.5241 -0.4528 -0.6174
  116MOL    C8034810   7.243   4.933   1.892 -0.0353  0.2468 -0.5189
  116MOL    O8134811   7.260   5.050   1.925 -0.0014  0.6090 -0.6825
  116MOL    O8234812   7.137   4.861   1.916 -0.1253  0.3495 -0.5761
  116MOL    C8334813   7.033   4.923   1.994  0.5164 -0.0882  0.3502
  116MOL    H8434814   7.383   4.702   1.696 -0.8792 -0.4621  2.6914
  116MOL    H8534815   7.219   4.724   1.737  0.0206  0.4287  2.0779
  116MOL    H8634816   7.543   4.909   1.713 -0.1902 -1.0963  0.7498
  116MOL    H8734817   7.418   5.024   1.678 -1.3463 -1.5036 -1.1087
  116MOL    H8834818   7.499   5.020   1.836  1.1626 -0.7669 -1.2554
  116MOL    H8934819   7.061   4.959   2.093  1.0358  0.9078 -0.1538
  116MOL    H9034820   6.973   4.836   2.019 -0.4884  0.1540 -1.1627
  116MOL    H9134821   6.977   4.999   1.940 -0.1216 -1.0052 -0.3058
  116MOL    C9234822   7.457   4.774   1.917  0.1596 -0.1611 -0.1019
  116MOL    C9334823   7.402   4.667   2.022 -0.3200 -0.2769 -1.1914
  116MOL    C9434824   7.354   4.740   2.150 -0.0334 -0.3335 -0.4458
  116MOL    C9534825   7.293   4.578   1.961 -0.3368  0.4937  0.1671
  116MOL    O9634826   7.191   4.559   2.024 -0.1089  0.3855  0.3954
  116MOL    O9734827   7.333   4.516   1.847  0.4023  0.2073 -0.2054
  116MOL    C9834828   7.243   4.424   1.785 -0.3337  0.4126 -0.0148
  116MOL    H9934829   7.525   4.842   1.967  1.2807 -1.1329 -0.2752
  116MOL   H10034830   7.526   4.720   1.852 -1.4748 -2.4742  0.0150
  116MOL   H10134831   7.298   4.675   2.218  0.5439  0.6202  0.9651
  116MOL   H10234832   7.434   4.790   2.204  0.5340 -1.2467 -0.4363
  116MOL   H10334833   7.277   4.817   2.142 -0.5452 -0.3896  3.3063
  116MOL   H10434834   7.252   4.468   1.686  0.4985  1.4349  0.5016
  116MOL   H10534835   7.137   4.439   1.805 -0.9403 -2.5610 -0.7214
  116MOL   H10634836   7.259   4.316   1.788  1.8373  0.6705 -1.3590
  116MOL   C10734837   7.538   4.588   2.051  0.4946 -0.5344 -0.6222
  116MOL   C10834838   7.559   4.460   2.148  0.7133 -0.8628 -0.6060
  116MOL   C10934839   7.536   4.495   2.301  0.6199 -0.3807 -0.5582
  116MOL   C11034840   7.467   4.339   2.104 -0.5491 -0.4085 -0.4441
  116MOL   O11134841   7.459   4.304   1.984  0.1562  0.5148  0.2723
  116MOL   O11234842   7.425   4.262   2.206  0.0239 -0.1012 -0.6211
  116MOL   C11334843   7.313   4.176   2.177 -0.0533 -0.2652 -0.5324
  116MOL   H11434844   7.616   4.658   2.080 -0.2375  0.0036  0.1000
  116MOL   H11534845   7.570   4.552   1.953  3.0536  1.0003 -0.3911
  116MOL   H11634846   7.430   4.518   2.314  1.0886  0.6090  1.6828
  116MOL   H11734847   7.556   4.414   2.372  1.7864 -0.9985 -1.5813
  116MOL   H11834848   7.612   4.566   2.332  0.6288 -0.9126  0.7070
  116MOL   H11934849   7.348   4.086   2.126  0.9799 -0.4659  0.5140
  116MOL   H12034850   7.248   4.223   2.103 -1.5920 -3.2216 -1.1711
  116MOL   H12134851   7.261   4.150   2.270 -2.0802  1.3948 -1.1526
  116MOL   C12234852   7.713   4.417   2.147  0.0483 -0.2288 -0.3706
  116MOL   C12334853   7.804   4.384   2.026 -0.2131  0.7527 -0.0983
  116MOL   C12434854   7.832   4.516   1.955  0.1871  0.7379  0.0851
  116MOL   C12534855   0.065   4.347   2.082 -0.5892  0.3878  0.2541
  116MOL   O12634856   0.164   4.423   2.078  0.0799  1.0319  0.0748
  116MOL   O12734857   0.067   4.228   2.132  0.1963 -0.2114  0.0289
  116MOL   C12834858   0.177   4.172   2.205 -0.0685  0.1653  0.8991
  116MOL   H12934859   7.719   4.322   2.199 -0.0110 -1.5807 -2.7225
  116MOL   H13034860   7.763   4.490   2.211  0.8483  0.1618 -1.4176
  116MOL   H13134861   7.752   4.543   1.885 -1.0479  0.7276  1.4617
  116MOL   H13234862   7.846   4.603   2.019  0.5737  1.5357 -1.0704
  116MOL   H13334863   0.046   4.521   1.896 -0.3546  0.3417 -0.8036
  116MOL   H13434864   0.266   4.172   2.143  2.2645  1.2006  4.1087
  116MOL   H13534865   0.168   4.066   2.228 -0.8537 -0.1296 -0.6966
  116MOL   H13634866   0.192   4.228   2.297  0.3512  0.6697  0.5268
  116MOL   C13734867   7.750   4.279   1.915 -0.4403 -0.0429 -0.1330
  116MOL   C13834868   7.840   4.211   1.799  0.1073  0.0002  0.1575
  116MOL   C13934869   0.052   4.320   1.731  0.0382 -0.5669  0.1534
  116MOL   C14034870   0.054   4.103   1.860  0.2422  0.3649  0.7092
  116MOL   O14134871   0.177   4.107   1.838  0.0475 -0.4282  0.6837
  116MOL   O14234872   7.872   4.010   1.929  0.4852 -0.3066  0.2782
  116MOL   C14334873   0.059   3.895   1.993  0.9635  0.1754 -0.0847
  116MOL   H14434874   7.669   4.328   1.862  1.2262  0.8587 -1.9037
  116MOL   H14534875   7.706   4.194   1.968  1.8473 -1.0302  0.2659
  116MOL   H14634876   0.127   4.351   1.803 -1.2928 -1.7480  2.1260
  116MOL   H14734877   0.113   4.282   1.649 -1.7844  1.9982 -2.4612
  116MOL   H14834878   7.874   4.403   1.689 -0.8734 -1.0144  0.4572
  116MOL   H14934879   0.089   3.818   1.923  0.0666 -0.9161  0.7264
  116MOL   H15034880   7.861   3.853   2.059  2.4388 -4.8707 -1.4485
  116MOL   H15134881   0.146   3.912   2.057  1.9525 -2.0968 -0.8113
  116MOL   C15234882   7.742   4.165   1.684 -0.2333  0.1930  0.2382
  116MOL   C15334883   7.753   4.032   1.591  0.8425  0.5005 -0.2420
  116MOL   C15434884   0.022   4.013   1.548 -0.2336  0.2065 -0.1584
  116MOL   C15534885   7.705   3.906   1.666 -0.2678 -0.1255 -0.0878
  116MOL   O15634886   7.655   3.906   1.777 -0.4968  0.4912  0.8106
  116MOL   O15734887   7.704   3.796   1.593  0.3192 -0.9628 -0.0503
  116MOL   C15834888   7.661   3.677   1.654  0.2562 -0.4038  0.2828
  116MOL   H15934889   7.735   4.249   1.615  1.2931  0.8707  0.8810
  116MOL   H16034890   7.639   4.160   1.721  1.0084 -2.5593  3.5547
  116MOL   H16134891   0.031   3.937   1.471  0.3454 -1.4065  1.4665
  116MOL   H16234892   0.059   4.101   1.496 -2.6797  1.6848  0.5160
  116MOL   H16334893   0.100   3.979   1.616 -0.1499  0.4899 -0.1113
  116MOL   H16434894   7.558   3.684   1.692 -0.3012 -1.5294 -0.9909
  116MOL   H16534895   7.720   3.640   1.738  1.6468  1.0875 -0.0125
  116MOL   H16634896   7.655   3.595   1.583 -1.9834  0.3684 -0.4770
  116MOL   C16734897   7.671   4.046   1.458  0.0935 -0.3639  0.7082
  116MOL   C16834898   7.512   4.071   1.438 -0.1147 -0.0356 -0.1640
  116MOL   C16934899   7.424   3.974   1.526 -0.0749  0.0006  1.0479
  116MOL   C17034900   7.477   4.214   1.491  0.1447  0.4545 -0.8913
  116MOL   O17134901   7.392   4.240   1.576 -0.8609  0.1712  0.0184
  116MOL   O17234902   7.551   4.305   1.429  0.3215  0.3960  0.6202
  116MOL   C17334903   7.522   4.436   1.459  0.6739  0.8760  0.4144
  116MOL   H17434904   7.700   3.958   1.400  0.4966  0.1137  0.1861
  116MOL   H17534905   7.716   4.124   1.397  2.2103  0.4976  3.2954
  116MOL   H17634906   7.322   3.999   1.497  0.0069  0.6129  1.2723
  116MOL   H17734907   7.448   3.869   1.512  1.0510  0.2971  0.7275
  116MOL   H17834908   7.429   4.001   1.631  1.7823  3.2193  0.2133
  116MOL   H17934909   7.547   4.460   1.563 -0.0219 -3.0593  1.5935
  116MOL   H18034910   7.416   4.460   1.464  0.1681 -1.1985  0.2846
  116MOL   H18134911   7.591   4.483   1.389  1.3255 -0.5950  0.0501
  116MOL   C18234912   7.471   4.077   1.284  0.0571  0.5149  0.3306
  116MOL   C18334913   7.436   3.956   1.195  0.4602  0.0381 -0.5777
  116MOL   C18434914   7.564   3.867   1.194  0.0185 -0.4763 -0.3629
  116MOL   C18534915   7.313   3.883   1.241 -0.0562  0.3402  0.2570
  116MOL   O18634916   7.205   3.941   1.263 -0.5099 -0.0115 -0.5195
  116MOL   O18734917   7.329   3.753   1.251 -0.4307 -0.2414 -0.4628
  116MOL   C18834918   7.242   3.680   1.337 -0.8758 -0.3218 -0.0344
  116MOL   H18934919   7.547   4.136   1.233 -2.3907  2.1407 -1.5425
  116MOL   H19034920   7.389   4.148   1.279  0.5932  1.3664  2.6544
  116MOL   H19134921   7.543   3.778   1.134  1.9952 -0.2867 -1.3652
  116MOL   H19234922   7.652   3.907   1.144 -0.3879 -1.7591 -2.1634
  116MOL   H19334923   7.599   3.817   1.285 -0.2481 -1.1954 -0.6485
  116MOL   H19434924   7.137   3.697   1.315 -0.8960  1.0879  1.1002
  116MOL   H19534925   7.265   3.704   1.441  2.0612  1.5305 -1.0382
  116MOL   H19634926   7.270   3.576   1.319  1.5586  0.4613 -0.9536
  116MOL   C19734927   7.416   4.020   1.049 -0.2051  0.1538  0.0402
  116MOL   C19834928   7.360   3.945   0.921 -0.4325  0.4383 -0.3097
  116MOL   C19934929   7.406   3.799   0.921 -0.0002 -0.0945 -0.8406
  116MOL   C20034930   7.205   3.941   0.910 -0.0583  0.1412 -0.0274
  116MOL   O20134931   7.130   3.996   0.991  0.4760 -0.1350  0.4401
  116MOL   O20234932   7.158   3.857   0.809  0.0130 -0.5316  0.7384
  116MOL   C20334933   7.018   3.840   0.796  0.1470 -0.4278 -0.0517
  116MOL   H20434934   7.511   4.068   1.025 -0.7802  1.6179  0.6329
  116MOL   H20534935   7.354   4.107   1.071 -0.5159  0.1936 -0.9616
  116MOL   H20634936   7.511   3.787   0.947 -0.5621 -0.1053  1.5630
  116MOL   H20734937   7.348   3.723   0.973  0.6431 -0.1404 -0.1779
  116MOL   H20834938   7.397   3.761   0.819  0.3938  0.3412 -1.0402
  116MOL   H20934939   6.996   3.820   0.691 -0.4249 -0.9786  0.1770
  116MOL   H21034940   6.950   3.917   0.833  1.5410  0.9262 -0.2476
  116MOL   H21134941   7.000   3.758   0.866  0.7277 -0.6672 -0.1786
  116MOL   C21234942   7.418   4.018   0.790  0.6890 -0.3145 -0.2104
  116MOL   C21334943   7.429   4.179   0.768  0.9148  0.3341 -0.0308
  116MOL   C21434944   7.297   4.254   0.824 -0.5217  0.7805  0.2974
  116MOL   C21534945   7.549   4.241   0.829  0.2111 -0.0839  0.0937
  116MOL   O21634946   7.644   4.184   0.885 -0.2384  0.4035 -0.0294
  116MOL   O21734947   7.551   4.373   0.809 -0.1886 -0.0989  0.6166
  116MOL   C21834948   7.640   4.462   0.863 -0.0022  0.1990  0.2050
  116MOL   H21934949   7.356   3.974   0.712 -0.9147 -1.3242  1.6009
  116MOL   H22034950   7.517   3.974   0.782  0.0834 -1.7405  0.0326
  116MOL   H22134951   7.279   4.251   0.931 -0.3174  1.6265  0.3644
  116MOL   H22234952   7.289   4.358   0.791 -1.1645  0.5193 -0.3879
  116MOL   H22334953   7.208   4.200   0.792  1.1407 -1.4136 -0.7532
  116MOL   H22434954   7.661   4.441   0.968  1.3880  1.5184  0.2162
  116MOL   H22534955   7.590   4.559   0.856 -0.2362 -0.0787 -2.8867
  116MOL   H22634956   7.734   4.474   0.808  0.8339  0.2199  1.5953
  116MOL   C22734957   7.420   4.203   0.610  0.2909  0.0480  0.1870
  116MOL   C22834958   7.531   4.166   0.509 -0.7354  0.1634 -0.0501
  116MOL   C22934959   7.668   4.224   0.549 -0.2714  0.1824  0.1592
  116MOL   C23034960   7.538   4.010   0.495 -0.1384  0.4948  0.8078
  116MOL   O23134961   7.442   3.939   0.459  0.5949  0.6445 -0.0273
  116MOL   O23234962   7.658   3.959   0.522 -0.3406  0.0226  0.2652
  116MOL   C23334963   7.678   3.828   0.496  0.1271 -0.3794  0.6348
  116MOL   H23434964   7.408   4.311   0.601 -0.3976 -0.1043 -0.7079
  116MOL   H23534965   7.327   4.154   0.583 -0.9360  1.5261  1.6239
  116MOL   H23634966   7.748   4.205   0.478  0.6768  2.9115  0.4421
  116MOL   H23734967   7.660   4.331   0.569  1.1830  0.1781  0.8472
  116MOL   H23834968   7.707   4.187   0.644 -0.0756 -1.3324 -0.4992
  116MOL   H23934969   7.607   3.752   0.529 -2.4261  1.9580  0.6972
  116MOL   H24034970   7.777   3.790   0.520  0.0950  0.7654  2.6310
  116MOL   H24134971   7.673   3.808   0.388 -0.6713  1.3105  0.3424
  116MOL   C24234972   7.472   4.236   0.382 -0.6339  0.0704  0.1806
  116MOL   C24334973   7.516   4.197   0.235  0.0624 -0.1031 -0.1502
  116MOL   C24434974   7.670   4.174   0.229  0.2273  0.3853 -0.0348
  116MOL   C24534975   7.441   4.068   0.182 -0.0079  0.4099  0.7002
  116MOL   O24634976   7.499   3.975   0.126 -0.1917  0.4151  0.4912
  116MOL   O24734977   7.316   4.061   0.209  0.5907  0.4849  0.5058
  116MOL   C24834978   7.236   3.950   0.161 -0.1084 -0.1440  0.0794
  116MOL   H24934979   7.495   4.342   0.396  3.1908 -0.8997  1.8162
  116MOL   H25034980   7.364   4.225   0.387 -0.2167 -3.8660  3.3652
  116MOL   H25134981   7.719   4.262   0.269  0.8217  0.6222 -1.2561
  116MOL   H25234982   7.703   4.087   0.286  2.8109  1.0020 -0.5306
  116MOL   H25334983   7.708   4.157   0.128 -1.3311  0.0947 -0.5910
  116MOL   H25434984   7.141   3.966   0.213  0.3556  0.3355  0.7892
  116MOL   H25534985   7.288   3.857   0.185 -1.5775 -1.4928 -1.7819
  116MOL   H25634986   7.223   3.967   0.054  0.5603  0.0537  0.0323
  116MOL   C25734987   7.482   4.330   0.147 -0.4898 -0.2530 -1.1033
  116MOL   C25834988   7.497   4.353   7.870 -0.0689 -0.2401  0.2445
  116MOL   C25934989   7.641   4.322   7.822 -0.3050 -0.1175  0.4923
  116MOL   C26034990   7.394   4.266   7.784 -0.4752  0.4756 -0.8920
  116MOL   O26134991   7.296   4.213   7.835  0.3501  0.0318  0.1448
  116MOL   O26234992   7.409   4.288   7.650  0.1580 -0.0460  0.4520
  116MOL   C26334993   7.340   4.201   7.570  0.1009  0.1198  0.3926
  116MOL   H26434994   7.555   4.405   0.177 -0.8164 -1.0798  2.0024
  116MOL   H26534995   7.388   4.360   0.194  0.9706 -0.7625  2.2812
  116MOL   H26634996   7.713   4.341   0.025 -0.3069  1.8310  0.0557
  116MOL   H26734997   7.650   4.216   7.803 -1.7343 -0.0782 -0.4506
  116MOL   H26834998   7.668   4.383   7.735  2.3583 -0.3538  1.1141
  116MOL   H26934999   7.335   4.240   7.468 -1.3651 -1.5509 -0.2133
  116MOL   H27035000   7.240   4.185   7.610 -0.1830 -0.2579 -0.4542
  116MOL   H27135001   7.390   4.104   7.575  1.7030  0.8196 -1.4224
  116MOL   C27235002   7.480   4.514   7.834 -0.0858  0.4234 -0.2785
  116MOL   C27335003   7.358   4.598   7.872  0.5855 -0.9638  0.0415
  116MOL   C27435004   7.230   4.531   7.823  0.3174  0.8731 -0.5724
  116MOL   C27535005   7.367   4.628   0.144  0.1266  0.0481 -0.3965
  116MOL   O27635006   7.265   4.607   0.207 -0.5223  0.1455  0.0284
  116MOL   O27735007   7.482   4.666   0.183  0.2168  0.2312  0.4120
  116MOL   C27835008   7.510   4.675   0.323  0.2013 -0.7634 -0.5412
  116MOL   H27935009   7.490   4.524   7.726  0.8723  2.4840 -0.0222
  116MOL   H28035010   7.575   4.556   7.869  0.4517  0.0711 -1.3075
  116MOL   H28135011   7.212   4.441   0.003 -1.5656  2.3916  1.3081
  116MOL   H28235012   7.135   4.584   7.822 -0.0193  0.4611  3.1106
  116MOL   H28335013   7.250   4.500   7.721 -1.8177 -0.1723 -0.6918
  116MOL   H28435014   7.469   4.764   0.369 -0.2240 -1.0611 -0.3377
  116MOL   H28535015   7.617   4.660   0.336 -0.2560 -2.7190  1.3838
  116MOL   H28635016   7.470   4.592   0.381  1.3101 -2.0922 -1.6368
  116MOL   C28735017   7.367   4.730   7.786  0.0624  0.1579 -0.3051
  116MOL   C28835018   7.254   4.840   7.810 -0.7032 -0.6622  0.6259
  116MOL   C28935019   7.319   4.982   7.839 -0.7469  0.3768 -0.0362
  116MOL   C29035020   7.162   4.864   7.680  0.5232  0.2987  0.1155
  116MOL   O29135021   7.049   4.811   7.670  0.1777 -0.1833  0.1382
  116MOL   O29235022   7.230   4.925   7.582  0.8239  0.0581  0.6852
  116MOL   C29335023   7.177   4.951   7.452  0.2031  0.7197  0.0506
  116MOL   H29435024   7.374   4.712   7.679  0.0772  0.3689 -0.3394
  116MOL   H29535025   7.465   4.774   7.806  0.3621 -0.9734  0.7640
  116MOL   H29635026   7.415   5.003   7.792 -1.4317 -1.0754 -2.1657
  116MOL   H29735027   7.254   5.065   7.812 -1.7166 -1.1478 -2.5466
  116MOL   H29835028   7.347   4.986   0.067  0.1322 -0.4317 -0.2322
  116MOL   H29935029   7.226   4.885   7.381 -1.5527  0.7769 -1.2676
  116MOL   H30035030   7.188   5.053   7.415  0.1533  0.1543 -1.5801
  116MOL   H30135031   7.072   4.922   7.454 -0.1733  2.1591  3.9527
  116MOL   H30235032   7.195   4.804   0.017 -0.9440  0.2764  0.8587
  117MOL     C135033   6.404   6.275   4.618  0.3642  0.6232 -0.6381
  117MOL     C235034   6.338   6.223   4.745  0.2199 -0.1064  0.3545
  117MOL     C335035   6.322   6.075   4.708  1.0560 -0.0329  0.2878
  117MOL     C435036   6.441   6.251   4.858 -0.2189  0.8677 -0.6076
  117MOL     O535037   6.515   6.349   4.865  0.1261  0.2585  0.0017
  117MOL     O635038   6.414   6.177   4.963 -0.3664 -0.1446  0.2443
  117MOL     C735039   6.474   6.200   5.093  0.0569 -0.1953 -0.2445
  117MOL     H835040   6.440   6.376   4.638  1.8864 -0.0706  0.1991
  117MOL     H935041   6.495   6.222   4.591  0.7661  0.4891  0.9082
  117MOL    H1035042   6.413   6.017   4.698 -0.0632 -1.7728  0.0442
  117MOL    H1135043   6.275   6.019   4.789  1.8948 -1.0685  0.0604
  117MOL    H1235044   6.264   6.068   4.616 -0.2113  1.6621  0.9311
  117MOL    H1335045   6.441   6.298   5.128  2.8116 -0.0724  2.2676
  117MOL    H1435046   6.583   6.203   5.096 -0.0156  1.0087  1.8308
  117MOL    H1535047   6.437   6.129   5.167 -0.0338 -1.0995 -1.1392
  117MOL    H1635048   6.334   6.283   4.535 -1.0598  1.6269  0.6403
  117MOL    C1735049   6.207   6.303   4.768  0.6551 -0.2046 -0.0951
  117MOL    C1835050   6.082   6.265   4.847 -0.2543  0.3599  0.0040
  117MOL    C1935051   6.117   6.189   4.968 -0.0568 -0.3933 -0.2009
  117MOL    C2035052   6.020   6.398   4.888  0.5637  0.2285 -0.4604
  117MOL    O2135053   6.039   6.501   4.820  0.5091 -0.2933 -0.1482
  117MOL    O2235054   5.925   6.385   4.977 -0.0083 -0.4447 -0.2562
  117MOL    C2335055   5.847   6.502   5.001  0.4955 -0.8635  0.0077
  117MOL    H2435056   6.169   6.336   4.671  2.5493  0.7142 -0.5419
  117MOL    H2535057   6.248   6.394   4.812 -2.2863 -0.0827  2.5925
  117MOL    H2635058   6.155   6.088   4.955 -2.4381 -1.5030  1.1200
  117MOL    H2735059   6.171   6.258   5.033 -1.8318 -0.1056  1.0145
  117MOL    H2835060   6.031   6.169   5.032 -0.6719  1.1274 -0.5273
  117MOL    H2935061   5.859   6.580   4.926  0.1977  0.5510  1.4275
  117MOL    H3035062   5.858   6.542   5.102 -1.9490 -1.1708  0.4233
  117MOL    H3135063   5.749   6.460   4.982  0.2164  0.4392 -1.5603
  117MOL    C3235064   5.992   6.158   4.772 -0.7765  0.7751  0.3877
  117MOL    C3335065   5.886   6.187   4.660  0.4587 -0.2259 -0.1540
  117MOL    C3435066   5.781   6.298   4.707  0.1901 -0.2158  0.6198
  117MOL    C3535067   5.951   6.222   4.527 -0.0642  0.1840 -0.4472
  117MOL    O3635068   6.069   6.193   4.501  0.4628  0.1604 -0.1802
  117MOL    O3735069   5.871   6.275   4.439  0.1388  0.5253  0.2703
  117MOL    C3835070   5.916   6.310   4.305  0.5214  0.2538 -0.4719
  117MOL    H3935071   5.931   6.104   4.845  1.2840  0.2992  1.8240
  117MOL    H4035072   6.056   6.075   4.741 -2.8097 -2.0574  3.3716
  117MOL    H4135073   5.771   6.307   4.815 -1.7133  2.7279  0.2540
  117MOL    H4235074   5.799   6.400   4.674  0.2283  0.2656  2.1133
  117MOL    H4335075   5.681   6.278   4.670 -0.5677  1.3908  1.7768
  117MOL    H4435076   6.017   6.349   4.293 -0.0364  1.2838 -2.0884
  117MOL    H4535077   5.863   6.401   4.273 -1.3320 -0.8120 -0.5054
  117MOL    H4635078   5.896   6.230   4.234 -2.4191 -0.1117  0.6961
  117MOL    C4735079   5.786   6.069   4.634 -0.2614 -0.2216  0.1430
  117MOL    C4835080   5.828   5.922   4.591 -0.4975 -0.3361 -1.0034
  117MOL    C4935081   5.905   5.918   4.457  0.1663 -0.2290 -0.3791
  117MOL    C5035082   5.905   5.843   4.704  0.5317  0.4891  0.5529
  117MOL    O5135083   6.012   5.787   4.689  0.4143 -0.3257  0.5681
  117MOL    O5235084   5.834   5.849   4.823  0.5838 -0.2293 -0.3712
  117MOL    C5335085   5.899   5.814   4.944 -0.7292  0.1301 -0.8693
  117MOL    H5435086   5.714   6.109   4.563 -0.4474  0.4868  0.7225
  117MOL    H5535087   5.718   6.058   4.718  1.9149  1.7439  2.2383
  117MOL    H5635088   5.894   5.825   4.403 -0.3910 -1.0798  1.1541
  117MOL    H5735089   5.859   6.000   4.402 -1.3984 -0.8634 -0.0512
  117MOL    H5835090   6.009   5.952   4.457  0.6006 -1.5378 -0.3431
  117MOL    H5935091   5.838   5.819   5.034  0.3230  3.7318 -0.2945
  117MOL    H6035092   5.987   5.877   4.955 -0.7719  0.2101 -0.9962
  117MOL    H6135093   5.931   5.710   4.929 -3.5280 -0.9042 -0.0181
  117MOL    C6235094   5.694   5.842   4.548  0.6877  0.6815  0.3674
  117MOL    C6335095   5.673   5.703   4.474  0.0416  0.2142 -0.8457
  117MOL    C6435096   5.665   5.739   4.320 -0.2459  0.3765  0.3649
  117MOL    C6535097   5.780   5.596   4.504 -0.5356  0.0306 -0.5399
  117MOL    O6635098   5.842   5.535   4.424  0.0545 -0.0563 -0.3299
  117MOL    O6735099   5.791   5.585   4.634 -0.2299 -0.4577 -0.0651
  117MOL    C6835100   5.884   5.503   4.690  0.0041  0.5393  0.0162
  117MOL    H6935101   5.647   5.920   4.487  1.2468  0.5999 -0.1661
  117MOL    H7035102   5.630   5.842   4.636  0.8788  2.3039  0.5193
  117MOL    H7135103   5.573   5.790   4.292  1.1782  2.9307  0.2146
  117MOL    H7235104   5.747   5.800   4.282 -1.3141  0.9893 -0.9935
  117MOL    H7335105   5.666   5.647   4.261  1.5545  0.5609  0.0942
  117MOL    H7435106   5.889   5.516   4.798  0.8980 -0.0254  0.0522
  117MOL    H7535107   5.986   5.529   4.660  0.7488 -1.0889  1.0640
  117MOL    H7635108   5.853   5.401   4.666 -1.5882  0.5136  2.1153
  117MOL    C7735109   5.531   5.652   4.521 -0.3770 -0.7171  1.0762
  117MOL    C7835110   5.449   5.527   4.476 -0.3615 -0.2149 -1.3076
  117MOL    C7935111   5.455   5.510   4.321  0.3784 -0.4454 -0.1046
  117MOL    C8035112   5.502   5.398   4.540  0.0481  0.5658  1.1302
  117MOL    O8135113   5.589   5.404   4.625 -0.0203  0.3807 -0.5820
  117MOL    O8235114   5.458   5.290   4.483  0.0913 -0.2590  0.2548
  117MOL    C8335115   5.499   5.161   4.516  0.1005  0.8283 -0.1042
  117MOL    H8435116   5.469   5.737   4.493 -0.6544 -1.3798 -0.3872
  117MOL    H8535117   5.518   5.660   4.629  0.1131 -0.0580  1.0880
  117MOL    H8635118   5.442   5.604   4.268 -2.5490  0.8047  2.6857
  117MOL    H8735119   5.544   5.463   4.279  0.1009 -1.3902  0.3287
  117MOL    H8835120   5.372   5.447   4.287  1.3020 -1.8567  0.1814
  117MOL    H8935121   5.601   5.154   4.552  0.1478 -0.2950 -0.4098
  117MOL    H9035122   5.509   5.089   4.434  1.2639  0.6354  0.2044
  117MOL    H9135123   5.438   5.115   4.593 -1.7812  0.6902 -1.6355
  117MOL    C9235124   5.299   5.547   4.524 -0.0620 -0.0261 -0.3897
  117MOL    C9335125   5.232   5.511   4.662  0.0087  0.0082 -0.1264
  117MOL    C9435126   5.216   5.354   4.658 -0.0177  0.1098  0.4072
  117MOL    C9535127   5.327   5.554   4.779 -0.4199 -0.3237  0.2208
  117MOL    O9635128   5.369   5.470   4.856  0.1436  0.3526 -0.0623
  117MOL    O9735129   5.347   5.684   4.781 -0.0328 -0.1774  0.4478
  117MOL    C9835130   5.435   5.739   4.876 -0.6015  0.0306 -0.0656
  117MOL    H9935131   5.227   5.525   4.445  0.4707  0.3671 -0.9915
  117MOL   H10035132   5.280   5.654   4.518 -1.3428 -0.2200 -0.0415
  117MOL   H10135133   5.158   5.310   4.577  0.7517 -1.9561  0.9401
  117MOL   H10235134   5.307   5.296   4.672 -0.9252 -1.3207  0.5232
  117MOL   H10335135   5.156   5.313   4.740 -0.3379 -0.8194 -0.2830
  117MOL   H10435136   5.531   5.689   4.892  0.4610  1.6840 -1.1143
  117MOL   H10535137   5.391   5.747   4.976  0.9266 -0.4173  0.6585
  117MOL   H10635138   5.461   5.844   4.859  1.5253 -0.4648  0.0067
  117MOL   C10735139   5.091   5.581   4.675 -0.9466  0.0872 -0.1035
  117MOL   C10835140   4.991   5.570   4.794  0.0338 -0.3371 -0.2179
  117MOL   C10935141   4.922   5.707   4.799  0.2142 -0.3131  0.0366
  117MOL   C11035142   4.887   5.460   4.753  0.3468  0.0881  1.0052
  117MOL   O11135143   4.912   5.378   4.658  0.0384 -0.7880 -0.2007
  117MOL   O11235144   4.765   5.475   4.816 -0.0275  0.2080 -0.3415
  117MOL   C11335145   4.671   5.376   4.784  0.7947 -0.1060  0.1725
  117MOL   H11435146   5.029   5.571   4.585 -1.5408  0.3537  0.2770
  117MOL   H11535147   5.122   5.685   4.678  2.5208 -0.9347  4.2107
  117MOL   H11635148   5.000   5.780   4.823  0.5074 -0.4318 -0.5426
  117MOL   H11735149   4.883   5.740   4.703  0.2557  1.6528  0.6707
  117MOL   H11835150   4.839   5.708   4.869 -1.1736 -1.4434 -1.5542
  117MOL   H11935151   4.571   5.409   4.814  1.2446  0.2066  1.3501
  117MOL   H12035152   4.691   5.277   4.823 -1.4532 -0.2866  0.9684
  117MOL   H12135153   4.681   5.361   4.677  2.6819 -0.8336  0.4364
  117MOL   C12235154   5.057   5.552   4.936  0.2764  0.0904  0.1343
  117MOL   C12335155   4.995   5.547   5.084 -0.9345  0.5024 -0.1205
  117MOL   C12435156   5.118   5.526   5.181  0.8800  0.2100  0.2332
  117MOL   C12535157   4.934   5.690   5.126  0.5267  0.5444 -0.0686
  117MOL   O12635158   4.810   5.703   5.139  0.0757  0.1749  0.1805
  117MOL   O12735159   5.021   5.790   5.147 -0.3590 -0.3688 -0.5222
  117MOL   C12835160   4.976   5.908   5.204 -0.1086  0.0375  0.2047
  117MOL   H12935161   5.129   5.634   4.937  0.9829 -0.5370  1.7196
  117MOL   H13035162   5.125   5.468   4.925  0.6676  0.1746  1.7920
  117MOL   H13135163   5.154   5.423   5.184  1.7802  0.4645 -1.0315
  117MOL   H13235164   5.198   5.593   5.150  0.0109 -0.1654 -3.0372
  117MOL   H13335165   5.100   5.562   5.282  3.0137  1.4431  0.2143
  117MOL   H13435166   4.929   5.909   5.302  1.8179  1.4435  1.1307
  117MOL   H13535167   4.897   5.950   5.140  0.9327  0.5334 -0.7735
  117MOL   H13635168   5.056   5.980   5.222  0.8050 -0.9253  0.0378
  117MOL   C13735169   4.896   5.423   5.097  0.6271 -0.0789 -0.4751
  117MOL   C13835170   4.841   5.352   5.229 -0.5893 -0.8306  0.1539
  117MOL   C13935171   4.841   5.454   5.350  0.1147  0.0816 -0.2158
  117MOL   C14035172   4.691   5.317   5.209  1.2255  0.7947  0.0543
  117MOL   O14135173   4.654   5.213   5.168  0.0998 -0.0152  0.4011
  117MOL   O14235174   4.613   5.420   5.227  0.0841 -0.2060  0.5478
  117MOL   C14335175   4.475   5.405   5.208  0.6427 -0.3817  0.7912
  117MOL   H14435176   4.918   5.347   5.022 -2.1511 -0.8140 -0.6008
  117MOL   H14535177   4.806   5.471   5.058  1.9157  2.2030 -0.7585
  117MOL   H14635178   4.797   5.543   5.304  0.9914  0.6408  0.0077
  117MOL   H14735179   4.789   5.424   5.440  1.2869 -0.5032  0.2783
  117MOL   H14835180   4.940   5.484   5.384  0.1719 -0.3355 -0.0169
  117MOL   H14935181   4.445   5.367   5.111 -1.4327  0.8003  0.9353
  117MOL   H15035182   4.427   5.502   5.224 -0.7470 -1.0756  0.9298
  117MOL   H15135183   4.444   5.331   5.281 -1.6812 -1.7182 -1.4907
  117MOL   C15235184   4.927   5.223   5.263 -0.1952  0.1629 -0.8091
  117MOL   C15335185   4.962   5.173   5.410  0.2168  0.2408  0.2610
  117MOL   C15435186   5.067   5.258   5.483  0.1130  0.5431 -0.1220
  117MOL   C15535187   4.833   5.170   5.502  0.5646  0.4119  0.4250
  117MOL   O15635188   4.835   5.199   5.619  0.0490  0.3899 -0.6635
  117MOL   O15735189   4.724   5.116   5.436 -0.6304  0.3426  0.0313
  117MOL   C15835190   4.603   5.113   5.509 -0.1459  0.1350  0.0537
  117MOL   H15935191   5.024   5.238   5.214  0.1466 -0.5321 -0.3612
  117MOL   H16035192   4.880   5.137   5.215  0.7415 -0.7065 -0.2009
  117MOL   H16135193   5.126   5.191   5.546  1.2073  2.3037  0.7815
  117MOL   H16235194   5.130   5.305   5.408 -0.9296  1.3158 -0.5211
  117MOL   H16335195   5.035   5.348   5.536 -0.9581  0.2085 -0.2016
  117MOL   H16435196   4.554   5.210   5.504 -0.7611 -0.1959 -0.3342
  117MOL   H16535197   4.600   5.066   5.607 -2.0569  0.1700  0.0296
  117MOL   H16635198   4.527   5.059   5.453  0.2896 -0.6922  0.2465
  117MOL   C16735199   5.009   5.024   5.411 -0.1316 -1.0140  1.1428
  117MOL   C16835200   5.123   4.957   5.324  0.0723 -0.3091  0.5222
  117MOL   C16935201   5.076   4.936   5.177  0.3641 -0.0189 -0.6887
  117MOL   C17035202   5.244   5.049   5.336 -0.0513 -0.3326 -0.0129
  117MOL   O17135203   5.309   5.062   5.437  0.0443  0.4045  0.0543
  117MOL   O17235204   5.269   5.126   5.223 -0.6902  0.3701  0.3425
  117MOL   C17335205   5.384   5.199   5.218 -0.5287 -0.2606 -0.4598
  117MOL   H17435206   4.923   4.969   5.373  0.3358 -1.1078  0.2002
  117MOL   H17535207   5.009   4.996   5.516  0.6406 -0.5214  1.2776
  117MOL   H17635208   5.155   4.898   5.112 -0.8053 -1.2540 -1.4187
  117MOL   H17735209   4.997   4.861   5.170 -1.3136  1.7212 -0.9607
  117MOL   H17835210   5.038   5.022   5.121 -0.8574  1.1125  1.7628
  117MOL   H17935211   5.382   5.289   5.280 -0.8736  0.2808 -1.2506
  117MOL   H18035212   5.420   5.229   5.120 -0.6111  0.5344 -0.2526
  117MOL   H18135213   5.466   5.139   5.257 -1.1022 -0.3178  0.6948
  117MOL   C18235214   5.151   4.823   5.396  0.1521 -0.1726  0.1915
  117MOL   C18335215   5.235   4.701   5.341 -0.2793  0.8820  0.0326
  117MOL   C18435216   5.154   4.619   5.233 -0.0053 -0.3852  0.2210
  117MOL   C18535217   5.362   4.752   5.289 -0.4863  0.2507  0.0178
  117MOL   O18635218   5.384   4.735   5.166 -0.2025 -0.3395  0.6829
  117MOL   O18735219   5.441   4.822   5.367 -0.8515  0.1322  0.3180
  117MOL   C18835220   5.560   4.882   5.307  0.5979  0.1907 -0.0379
  117MOL   H18935221   5.055   4.773   5.406  0.3240 -0.3732  0.8531
  117MOL   H19035222   5.186   4.841   5.498 -1.9518  1.1563  0.7083
  117MOL   H19135223   5.221   4.547   5.188 -0.0778 -0.3882  0.1159
  117MOL   H19235224   5.065   4.572   5.275  1.0906 -2.0040  0.7339
  117MOL   H19335225   5.118   4.681   5.150  0.7334 -1.1306 -0.6674
  117MOL   H19435226   5.552   4.965   5.238  0.9668 -0.7538 -1.2239
  117MOL   H19535227   5.609   4.810   5.241 -1.2036 -1.3378  0.2335
  117MOL   H19635228   5.627   4.910   5.388 -0.2842 -0.6227  1.0022
  117MOL   C19735229   5.262   4.611   5.471 -0.0766 -0.2093  0.6546
  117MOL   C19835230   5.333   4.470   5.473  0.6419 -0.4256  0.3241
  117MOL   C19935231   5.455   4.457   5.383 -0.2077  0.6048 -0.3938
  117MOL   C20035232   5.376   4.443   5.617  0.7083 -0.7848  0.2890
  117MOL   O20135233   5.456   4.358   5.648 -0.2059 -0.4092 -0.4769
  117MOL   O20235234   5.310   4.511   5.709 -0.5608 -0.4907  0.0722
  117MOL   C20335235   5.303   4.468   5.849  0.0752  0.1027 -0.0632
  117MOL   H20435236   5.164   4.591   5.516 -0.2559  0.6107  0.6451
  117MOL   H20535237   5.330   4.668   5.534 -0.6017 -0.4185  1.4240
  117MOL   H20635238   5.420   4.470   5.281 -0.1790 -0.8877 -0.6146
  117MOL   H20735239   5.518   4.541   5.414  0.5972 -1.2680  3.4205
  117MOL   H20835240   5.514   4.366   5.393 -1.3635 -0.2741 -1.4715
  117MOL   H20935241   5.203   4.473   5.892 -1.1310 -0.3005 -2.7536
  117MOL   H21035242   5.358   4.544   5.904 -0.1684  1.2463 -1.3773
  117MOL   H21135243   5.361   4.380   5.877  0.2320  0.5304  0.9584
  117MOL   C21235244   5.222   4.362   5.430 -0.1342 -0.1675  0.4293
  117MOL   C21335245   5.217   4.202   5.462  0.1842  0.7343  0.1688
  117MOL   C21435246   5.340   4.124   5.426 -0.4154  0.3950 -0.1988
  117MOL   C21535247   5.182   4.191   5.616  0.2989  0.3803 -0.8259
  117MOL   O21635248   5.095   4.263   5.664 -0.0119 -0.6212  0.3640
  117MOL   O21735249   5.262   4.117   5.691  0.5096 -0.3059 -0.6038
  117MOL   C21835250   5.235   4.098   5.823  0.0996  0.5759  0.5287
  117MOL   H21935251   5.235   4.361   5.322  0.0428  0.0601  0.4464
  117MOL   H22035252   5.123   4.404   5.446  0.9860  2.6026  0.4946
  117MOL   H22135253   5.349   4.027   5.475  0.3981 -0.4558 -1.9479
  117MOL   H22235254   5.339   4.114   5.317 -1.3737 -0.8631 -0.0864
  117MOL   H22335255   5.435   4.172   5.448 -0.6302  0.5185  0.4710
  117MOL   H22435256   5.145   4.142   5.864  0.5510  1.1627  0.9073
  117MOL   H22535257   5.323   4.136   5.877  0.3103 -0.7798  1.1642
  117MOL   H22635258   5.238   3.990   5.837 -0.3700  0.1254 -2.5282
  117MOL   C22735259   5.092   4.152   5.378  0.0730 -0.4564 -0.9188
  117MOL   C22835260   5.063   3.994   5.364 -0.3723 -0.4576  0.3788
  117MOL   C22935261   4.908   3.992   5.323  0.0336 -0.2462  0.0695
  117MOL   C23035262   5.144   3.945   5.241  0.6374 -0.2486 -0.2291
  117MOL   O23135263   5.251   3.884   5.261 -0.3032  0.3616 -0.8797
  117MOL   O23235264   5.093   3.961   5.121 -0.0182 -0.0611  0.4541
  117MOL   C23335265   5.156   3.911   5.005 -0.4102  0.1653 -0.1559
  117MOL   H23435266   5.103   4.202   5.282 -0.5061  3.3070  0.8767
  117MOL   H23535267   5.002   4.191   5.425 -0.2797  0.3126 -2.2101
  117MOL   H23635268   4.875   3.899   5.276  0.7569  0.0522 -1.0486
  117MOL   H23735269   4.854   3.994   5.417  0.4756  2.7147  0.2923
  117MOL   H23835270   4.879   4.082   5.268  0.1511  0.7135  1.5546
  117MOL   H23935271   5.240   3.973   4.974  0.0964 -0.6734 -0.4575
  117MOL   H24035272   5.081   3.908   4.926  0.8736 -0.0358 -1.3729
  117MOL   H24135273   5.184   3.806   5.017 -0.7856  0.1927  1.0956
  117MOL   C24235274   5.080   3.914   5.498 -0.4820 -0.0699 -1.2113
  117MOL   C24335275   5.037   3.764   5.539 -0.5188  0.2060  0.1890
  117MOL   C24435276   5.128   3.740   5.665  0.7006  0.4706 -0.4517
  117MOL   C24535277   4.885   3.758   5.570 -0.0655 -0.4948 -0.2368
  117MOL   O24635278   4.844   3.777   5.682 -0.0589  0.0469  0.3831
  117MOL   O24735279   4.806   3.730   5.466  0.6857 -0.5904  0.1127
  117MOL   C24835280   4.668   3.719   5.477  0.1165 -0.6043 -0.4793
  117MOL   H24935281   5.038   3.971   5.581 -0.9215 -1.3818 -0.5202
  117MOL   H25035282   5.187   3.899   5.510 -0.5777  0.2663  0.1743
  117MOL   H25135283   5.235   3.750   5.648  0.6997 -0.4140 -1.0117
  117MOL   H25235284   5.118   3.812   5.746 -0.6411  0.6263 -0.7400
  117MOL   H25335285   5.108   3.643   5.711  3.0233  0.1716  0.0019
  117MOL   H25435286   4.630   3.623   5.512  1.8455 -0.7256  1.1289
  117MOL   H25535287   4.610   3.729   5.385 -1.0076 -0.1367  0.2581
  117MOL   H25635288   4.630   3.793   5.549  2.5680 -1.1195  1.4190
  117MOL   C25735289   5.067   3.666   5.428 -0.3150 -0.5410  0.7714
  117MOL   C25835290   5.074   3.507   5.436  0.5419  0.2935 -0.5712
  117MOL   C25935291   5.070   3.451   5.291 -0.1781 -0.3373  0.1167
  117MOL   C26035292   5.215   3.470   5.502  0.1552  0.8506  0.3512
  117MOL   O26135293   5.229   3.441   5.618  0.5734  0.5375 -0.1881
  117MOL   O26235294   5.331   3.470   5.419 -0.3772  0.2091 -0.0484
  117MOL   C26335295   5.457   3.449   5.478 -0.6777 -0.1576 -0.0791
  117MOL   H26435296   5.166   3.693   5.389 -1.1839  1.6984  0.0261
  117MOL   H26535297   5.006   3.688   5.340 -0.7085  1.6325  1.5595
  117MOL   H26635298   4.972   3.470   5.247 -0.4289 -0.5504  0.5781
  117MOL   H26735299   5.132   3.509   5.223 -1.1139  0.5101 -0.0082
  117MOL   H26835300   5.096   3.345   5.281 -0.4326 -0.1635 -2.6442
  117MOL   H26935301   5.520   3.450   5.389 -1.1662  0.2386 -0.4199
  117MOL   H27035302   5.463   3.367   5.549 -1.5963  0.8637  1.1985
  117MOL   H27135303   5.482   3.542   5.527  0.7874  0.2927 -1.6313
  117MOL   C27235304   4.958   3.452   5.519  0.5309  0.0306  0.4583
  117MOL   C27335305   4.924   3.296   5.536  0.3473 -0.2167 -0.0851
  117MOL   C27435306   4.795   3.301   5.616 -0.1105 -0.2335 -0.5726
  117MOL   C27535307   4.890   3.231   5.401  0.0356 -0.1913 -0.1383
  117MOL   O27635308   4.950   3.131   5.355  0.0304 -0.2113  0.2046
  117MOL   O27735309   4.795   3.300   5.333 -0.2588 -0.0990 -0.1207
  117MOL   C27835310   4.740   3.252   5.217  0.1515 -0.5439 -0.4740
  117MOL   H27935311   4.862   3.493   5.486 -0.5370 -1.4607  1.6644
  117MOL   H28035312   4.976   3.489   5.620  0.7172  0.2668  0.3383
  117MOL   H28135313   4.742   3.206   5.615  0.6349 -0.6485 -0.1908
  117MOL   H28235314   4.829   3.332   5.715  0.4151 -0.4978 -0.6724
  117MOL   H28335315   4.718   3.368   5.576  0.1002 -0.0864 -0.7318
  117MOL   H28435316   4.641   3.294   5.206 -0.2741 -1.5821 -0.6779
  117MOL   H28535317   4.726   3.144   5.217  1.3708 -0.7095 -0.9061
  117MOL   H28635318   4.809   3.269   5.134 -1.7372  1.7228 -1.6141
  117MOL   C28735319   5.042   3.226   5.603 -0.2756 -0.2950 -0.0165
  117MOL   C28835320   5.022   3.085   5.663  0.1852  0.2556  0.2397
  117MOL   C28935321   5.167   3.038   5.684 -1.0866  0.5460  0.0276
  117MOL   C29035322   4.952   3.079   5.794  0.9849  0.3435  0.2487
  117MOL   O29135323   4.869   2.992   5.814 -0.1221 -0.0971 -0.2045
  117MOL   O29235324   4.993   3.173   5.887 -0.4638 -0.0748  0.0042
  117MOL   C29335325   4.897   3.191   5.991  0.6059 -0.3568  0.0663
  117MOL   H29435326   5.076   3.278   5.692  0.5906 -0.9558  0.0383
  117MOL   H29535327   5.122   3.225   5.529 -1.3003 -0.9397 -1.1353
  117MOL   H29635328   5.174   2.951   5.750  2.0366  0.7128  0.0092
  117MOL   H29735329   5.203   3.018   5.583 -3.0618  0.1899 -0.6106
  117MOL   H29835330   5.239   3.110   5.725 -1.5415  0.3736  1.1660
  117MOL   H29935331   4.907   3.111   6.064 -0.1850 -1.0881 -0.6138
  117MOL   H30035332   4.795   3.204   5.954  1.4948  0.6978 -2.1364
  117MOL   H30135333   4.920   3.292   6.025 -1.5286 -0.2741  1.3302
  117MOL   H30235334   4.980   3.015   5.592  0.5173  0.6308 -0.3309
  118MOL     C135335   4.543   5.835   7.269 -0.2839 -0.1649 -0.6442
  118MOL     C235336   4.472   5.700   7.270  0.1771 -0.3149  0.2386
  118MOL     C335337   4.321   5.727   7.308 -0.4936 -0.3863  0.0057
  118MOL     C435338   4.469   5.633   7.136 -0.0446  0.2350 -0.5280
  118MOL     O535339   4.535   5.683   7.048  0.3380 -0.3767  0.2180
  118MOL     O635340   4.394   5.521   7.136 -0.1419  0.3156  0.4222
  118MOL     C735341   4.393   5.455   7.010  0.0613 -0.0988  0.1473
  118MOL     H835342   4.476   5.899   7.212  0.7867  1.0973 -0.5130
  118MOL     H935343   4.548   5.871   7.372 -1.1394 -4.0858  0.8883
  118MOL    H1035344   4.314   5.801   7.388  0.2225  0.2977 -0.5484
  118MOL    H1135345   4.270   5.776   7.225  0.8341 -0.7130 -1.0186
  118MOL    H1235346   4.274   5.633   7.337 -2.5525  1.0132  1.3617
  118MOL    H1335347   4.482   5.393   6.997 -0.4916 -1.1589  1.2183
  118MOL    H1435348   4.377   5.518   6.923 -2.2089  1.6521  1.7819
  118MOL    H1535349   4.303   5.393   7.006 -0.8125  1.2479 -1.4811
  118MOL    H1635350   4.639   5.833   7.219  0.6097  0.1162  1.0186
  118MOL    C1735351   4.533   5.613   7.389 -0.2108  0.0843 -0.3105
  118MOL    C1835352   4.691   5.572   7.396  0.0582 -0.9450 -0.2354
  118MOL    C1935353   4.744   5.541   7.251  0.2985 -0.5270  0.1700
  118MOL    C2035354   4.783   5.680   7.455 -0.9278  0.3870 -0.2353
  118MOL    O2135355   4.889   5.716   7.401 -0.0987  0.1854  0.0251
  118MOL    O2235356   4.735   5.731   7.568  0.0044  0.2204  0.2199
  118MOL    C2335357   4.818   5.830   7.642  0.1450 -0.6924  0.2140
  118MOL    H2435358   4.479   5.520   7.401  1.2818 -0.7872 -0.1877
  118MOL    H2535359   4.515   5.664   7.484 -3.3976  0.1715 -0.9084
  118MOL    H2635360   4.847   5.508   7.242  0.6689  0.5735  0.4019
  118MOL    H2735361   4.686   5.471   7.191  0.7115 -0.8632  0.1601
  118MOL    H2835362   4.745   5.627   7.184  0.4569 -0.9621 -0.3910
  118MOL    H2935363   4.766   5.859   7.733  0.9895 -0.0413  0.4944
  118MOL    H3035364   4.832   5.915   7.574  0.7954 -1.5415 -0.7207
  118MOL    H3135365   4.911   5.786   7.678  0.5118 -0.1452 -0.0461
  118MOL    C3235366   4.693   5.438   7.477  0.2398 -0.8810 -0.4261
  118MOL    C3335367   4.814   5.354   7.528 -0.2977 -0.4399 -0.0713
  118MOL    C3435368   4.937   5.359   7.436  0.5621  0.7005 -0.0631
  118MOL    C3535369   4.863   5.413   7.665  0.3410  0.0996  0.1213
  118MOL    O3635370   4.973   5.461   7.671  0.3496 -0.2246 -0.4241
  118MOL    O3735371   4.773   5.417   7.753  0.4047 -0.3265  0.1127
  118MOL    C3835372   4.808   5.456   0.007 -0.0078  0.0990  0.0160
  118MOL    H3935373   4.627   5.364   7.431  0.2783 -1.4434  0.4094
  118MOL    H4035374   4.631   5.463   7.563  2.3843  1.1348  0.6090
  118MOL    H4135375   5.029   5.315   7.474  1.9232  0.8882 -3.0111
  118MOL    H4235376   4.910   5.312   7.341 -0.1586  1.1094 -0.0654
  118MOL    H4335377   4.964   5.461   7.408  1.7534  0.8505  1.6108
  118MOL    H4435378   4.722   5.446   0.074  0.4718 -1.3719  0.4154
  118MOL    H4535379   4.845   5.558   0.012 -1.0976  0.3923  2.9035
  118MOL    H4635380   4.890   5.399   0.050 -0.7934 -1.4523 -0.4890
  118MOL    C4735381   4.763   5.204   7.525  0.3808  0.1408  0.5791
  118MOL    C4835382   4.831   5.086   7.602  0.4667  0.0542  0.5393
  118MOL    C4935383   4.983   5.093   7.590  0.0668  0.1996 -0.2392
  118MOL    C5035384   4.794   5.092   7.750  1.3868  0.4973  0.1656
  118MOL    O5135385   4.869   5.114   7.841 -0.4794 -0.3235  0.8309
  118MOL    O5235386   4.660   5.090   7.773 -0.1173 -0.7997  0.0438
  118MOL    C5335387   4.604   5.129   0.020  0.4788  0.3072 -0.1223
  118MOL    H5435388   4.769   5.172   7.421 -0.2085 -0.9777  0.8901
  118MOL    H5535389   4.656   5.199   7.546 -0.4280  1.7967 -2.7213
  118MOL    H5635390   5.015   5.087   7.486 -0.0149 -2.3051 -0.1504
  118MOL    H5735391   5.013   5.183   7.643  1.0259  0.3720 -1.0625
  118MOL    H5835392   5.031   5.005   7.632 -0.8930 -1.4446 -2.4779
  118MOL    H5935393   4.685   5.122   0.093 -2.1853  1.2967  3.0288
  118MOL    H6035394   4.536   5.054   0.060  0.8039 -0.4320 -0.9276
  118MOL    H6135395   4.565   5.230   0.024  1.0568  0.5573 -0.7668
  118MOL    C6235396   4.778   4.951   7.527  0.4400  0.4368  0.5838
  118MOL    C6335397   4.776   4.805   7.592 -0.1626  0.1180  0.4923
  118MOL    C6435398   4.914   4.773   7.662  0.3165 -0.3017 -0.0858
  118MOL    C6535399   4.661   4.797   7.695  0.4659 -0.3012 -0.6589
  118MOL    O6635400   4.542   4.802   7.654 -0.0254  0.4060 -0.1754
  118MOL    O6735401   4.698   4.775   7.824 -0.2182  0.2356 -0.5906
  118MOL    C6835402   4.602   4.735   0.042  0.2478  0.8495  0.3917
  118MOL    H6935403   4.837   4.937   7.437  1.3271  2.3018  0.8452
  118MOL    H7035404   4.672   4.961   7.506  0.4657  1.8737  1.0976
  118MOL    H7135405   4.926   4.840   7.748 -0.2240 -0.1361 -0.1332
  118MOL    H7235406   4.905   4.674   7.706  0.6528 -0.0160  0.6320
  118MOL    H7335407   5.000   4.775   7.596 -0.8805  0.6169 -1.6357
  118MOL    H7435408   4.537   4.817   0.071  0.7021  0.5017  2.4916
  118MOL    H7535409   4.648   4.694   0.132  2.2813  1.4882 -0.3394
  118MOL    H7635410   4.545   4.652   7.876 -1.5789  2.0751  0.3948
  118MOL    C7735411   4.756   4.701   7.467 -0.2682 -0.1804  0.0873
  118MOL    C7835412   4.773   4.539   7.483  0.0012 -1.1256  0.0609
  118MOL    C7935413   4.917   4.493   7.491  0.2910 -0.4024  0.6135
  118MOL    C8035414   4.689   4.487   7.614  0.6642 -0.3257  0.6207
  118MOL    O8135415   4.741   4.441   7.714  0.6530  0.0992 -0.1026
  118MOL    O8235416   4.554   4.505   7.601  0.2079 -0.1803  0.3331
  118MOL    C8335417   4.468   4.444   7.694  0.0967 -0.3011 -0.3390
  118MOL    H8435418   4.820   4.738   7.387 -0.6750  1.7555  0.6245
  118MOL    H8535419   4.653   4.726   7.441 -0.0765 -0.2100 -0.7137
  118MOL    H8635420   4.967   4.533   7.579 -2.2595  0.9835  1.4927
  118MOL    H8735421   4.909   4.384   7.487  0.9038 -0.4069 -0.7020
  118MOL    H8835422   4.970   4.514   7.398 -0.7205 -2.3389 -0.4400
  118MOL    H8935423   4.416   4.355   7.658 -2.7973  2.2104 -2.6855
  118MOL    H9035424   4.392   4.515   7.728 -0.1277  0.0099 -1.4864
  118MOL    H9135425   4.513   4.409   7.787 -3.2178  0.6935  1.7357
  118MOL    C9235426   4.703   4.470   7.353  0.0363 -0.3362 -0.2451
  118MOL    C9335427   4.768   4.454   7.212  0.3026 -0.4279 -0.7023
  118MOL    C9435428   4.796   4.599   7.169  0.3649  0.6356 -0.5805
  118MOL    C9535429   4.894   4.365   7.198  0.8482 -0.0770  0.5575
  118MOL    O9635430   4.928   4.284   7.281  0.1442 -0.4081  0.3459
  118MOL    O9735431   4.961   4.387   7.087 -0.1288  0.0372  0.3293
  118MOL    C9835432   5.055   4.295   7.035  0.1213  0.5159  0.9475
  118MOL    H9935433   4.612   4.526   7.334 -0.2496 -0.7084  0.0194
  118MOL   H10035434   4.683   4.367   7.383  2.3718 -0.8765 -0.4045
  118MOL   H10135435   4.890   4.631   7.215  0.5658  0.1207 -0.6302
  118MOL   H10235436   4.821   4.611   7.063  2.4447 -0.7125 -0.2801
  118MOL   H10335437   4.717   4.671   7.190  2.3495  2.7467 -0.1582
  118MOL   H10435438   5.061   4.310   6.927  2.6746 -1.5603  0.7458
  118MOL   H10535439   5.025   4.193   7.058 -1.4299  0.2607 -1.9088
  118MOL   H10635440   5.157   4.320   7.066  0.6434  0.3852 -0.5997
  118MOL   C10735441   4.665   4.404   7.103  0.1142 -0.6535 -0.1568
  118MOL   C10835442   4.590   4.269   7.110 -0.0340  0.2857 -0.5842
  118MOL   C10935443   4.689   4.145   7.116  0.1782  0.7237 -0.7613
  118MOL   C11035444   4.496   4.252   7.244 -1.3063  0.6633 -0.2943
  118MOL   O11135445   4.511   4.154   7.320  0.1303 -0.1579 -0.2313
  118MOL   O11235446   4.422   4.361   7.265 -0.2178  0.5574  0.6232
  118MOL   C11335447   4.330   4.360   7.368  0.3664  0.1983  0.1615
  118MOL   H11435448   4.716   4.408   7.007  0.7792 -2.4974  0.0971
  118MOL   H11535449   4.593   4.485   7.094  0.2358 -0.4776  0.4184
  118MOL   H11635450   4.641   4.049   7.097  0.4461  0.8943 -2.3948
  118MOL   H11735451   4.754   4.149   7.029  0.0929 -0.3711 -0.8809
  118MOL   H11835452   4.746   4.126   7.207 -1.3040 -0.5953 -0.0814
  118MOL   H11935453   4.256   4.440   7.358  2.1052  1.9187  0.6442
  118MOL   H12035454   4.366   4.390   7.466 -1.8997  0.9647  0.7992
  118MOL   H12135455   4.266   4.272   7.369 -1.6469  1.6221  1.5527
  118MOL   C12235456   4.493   4.235   6.982 -0.7658  0.5981 -0.0329
  118MOL   C12335457   4.424   4.340   6.888 -0.5070  0.0832 -0.0893
  118MOL   C12435458   4.332   4.416   6.981 -0.6478 -0.6675  0.4860
  118MOL   C12535459   4.520   4.422   6.809 -0.4235  0.2313  0.7750
  118MOL   O12635460   4.493   4.534   6.774 -0.2063  0.4199  0.3338
  118MOL   O12735461   4.638   4.354   6.784 -0.8118  0.1742  0.1063
  118MOL   C12835462   4.740   4.419   6.716  0.0903  0.1646 -0.3601
  118MOL   H12935463   4.420   4.160   7.012 -0.1507 -0.1644 -0.4543
  118MOL   H13035464   4.560   4.180   6.917 -0.0575  1.8840 -0.4171
  118MOL   H13135465   4.385   4.485   7.047  0.2862 -0.4612 -0.4599
  118MOL   H13235466   4.267   4.486   6.929 -0.7584 -0.6018  0.7128
  118MOL   H13335467   4.264   4.354   7.039 -1.1212 -0.3886  0.2309
  118MOL   H13435468   4.714   4.438   6.612  0.7200  0.7109 -0.4203
  118MOL   H13535469   4.835   4.366   6.728 -0.3257 -0.8373 -1.3687
  118MOL   H13635470   4.763   4.512   6.768  0.1483  1.0743 -1.9917
  118MOL   C13735471   4.348   4.245   6.784  0.3646 -0.2648 -0.5223
  118MOL   C13835472   4.266   4.286   6.656  0.3126 -0.2140  0.8688
  118MOL   C13935473   4.147   4.374   6.704  0.7574 -0.2521 -0.6874
  118MOL   C14035474   4.354   4.350   6.548 -0.2792 -0.0056 -0.6991
  118MOL   O14135475   4.458   4.292   6.516  0.0852 -1.1848  0.2714
  118MOL   O14235476   4.307   4.462   6.486  0.2457 -0.1628  0.8084
  118MOL   C14335477   4.381   4.516   6.377  0.3263 -0.5621 -0.1036
  118MOL   H14435478   4.281   4.184   6.844  1.5354 -1.9754 -0.9337
  118MOL   H14535479   4.421   4.175   6.744 -0.4372 -0.7204 -1.2080
  118MOL   H14635480   4.171   4.475   6.735 -1.5181 -0.1196  0.7183
  118MOL   H14735481   4.083   4.384   6.616 -0.3689 -0.2305  0.1206
  118MOL   H14835482   4.084   4.321   6.775 -0.0438 -1.1871 -2.0698
  118MOL   H14935483   4.450   4.593   6.412  0.3281  0.4102 -2.1897
  118MOL   H15035484   4.315   4.565   6.306  2.6213 -0.0217 -1.9412
  118MOL   H15135485   4.419   4.435   6.314  2.6745  1.0518 -0.8183
  118MOL   C15235486   4.208   4.143   6.614 -0.1028  0.3869  0.1416
  118MOL   C15335487   4.151   4.103   6.476 -0.3059 -0.1143  0.0083
  118MOL   C15435488   4.044   4.206   6.441  0.1811 -0.1886 -0.3171
  118MOL   C15535489   4.263   4.112   6.374  0.2129 -0.0452 -0.3298
  118MOL   O15635490   4.250   4.186   6.276  0.0437  0.0107  0.6747
  118MOL   O15735491   4.365   4.030   6.376 -0.1052 -0.1952 -0.2993
  118MOL   C15835492   4.463   4.029   6.272 -0.3452 -0.1991 -0.5526
  118MOL   H15935493   4.125   4.128   6.682 -0.9559 -0.6964 -1.1268
  118MOL   H16035494   4.280   4.066   6.641  0.3069  1.1526  1.3003
  118MOL   H16135495   3.995   4.179   6.347  0.5734 -1.6142 -0.1294
  118MOL   H16235496   3.966   4.206   6.517  0.3093  0.3450 -0.1844
  118MOL   H16335497   4.080   4.307   6.424 -2.3857  1.0553  1.2217
  118MOL   H16435498   4.560   4.014   6.319  0.8046 -4.5288 -4.0300
  118MOL   H16535499   4.474   4.118   6.209  0.6178 -0.9499 -1.4667
  118MOL   H16635500   4.438   3.942   6.212  1.5421 -1.3277  0.2463
  118MOL   C16735501   4.082   3.962   6.489 -1.0954 -0.3436 -0.3483
  118MOL   C16835502   3.995   3.892   6.372 -0.0836  0.2856 -0.5692
  118MOL   C16935503   3.848   3.921   6.407 -0.4636  0.0540 -0.3578
  118MOL   C17035504   4.016   3.944   6.223  0.0433 -0.7184  0.2931
  118MOL   O17135505   3.929   4.009   6.165  0.4873 -0.0209  0.0095
  118MOL   O17235506   4.137   3.901   6.173  0.6164  0.0853  0.0229
  118MOL   C17335507   4.169   3.941   6.040  0.6798 -0.2847 -0.1804
  118MOL   H17435508   4.013   3.961   6.573 -0.0699  1.3225  0.5473
  118MOL   H17535509   4.170   3.909   6.527 -0.6815  0.7799  0.2757
  118MOL   H17635510   3.836   4.016   6.460  1.6211 -0.5647  1.2986
  118MOL   H17735511   3.770   3.900   6.334 -1.3595 -0.2252  0.6693
  118MOL   H17835512   3.827   3.852   6.489  0.5529 -3.9026 -3.2618
  118MOL   H17935513   4.121   3.885   5.961 -0.7000 -0.6150  0.8664
  118MOL   H18035514   4.276   3.925   6.040  0.6631 -0.3964 -0.5532
  118MOL   H18135515   4.152   4.047   6.018 -1.2840 -0.7282 -0.9229
  118MOL   C18235516   4.030   3.742   6.395  0.1623 -0.1979  0.0891
  118MOL   C18335517   3.970   3.612   6.330  0.3579  0.0972  0.1381
  118MOL   C18435518   3.821   3.598   6.364  0.2964 -0.1191  0.4624
  118MOL   C18535519   3.988   3.624   6.176 -0.3463  0.9744 -0.6827
  118MOL   O18635520   4.079   3.568   6.118 -0.0150  0.3244  0.2007
  118MOL   O18735521   3.896   3.688   6.113 -0.0695 -0.1751 -0.3315
  118MOL   C18835522   3.884   3.683   5.971 -0.0610  0.1854 -0.4347
  118MOL   H18935523   4.033   3.726   6.503 -1.7142 -0.0176  0.1886
  118MOL   H19035524   4.137   3.735   6.377  0.4898  0.6151  1.6014
  118MOL   H19135525   3.750   3.656   6.306 -1.2218 -1.5107  0.8959
  118MOL   H19235526   3.786   3.496   6.355 -1.0896  0.3335  0.6617
  118MOL   H19335527   3.808   3.621   6.470 -2.5066  2.6080 -0.3946
  118MOL   H19435528   3.980   3.664   5.923  1.4770  0.4037  2.4626
  118MOL   H19535529   3.843   3.781   5.946 -1.6305 -0.9591 -2.4516
  118MOL   H19635530   3.805   3.611   5.948  0.4890 -0.8021  0.6758
  118MOL   C19735531   4.059   3.500   6.403  0.1380 -0.4156  0.6446
  118MOL   C19835532   4.010   3.347   6.419  0.8445 -0.5235  0.2189
  118MOL   C19935533   4.142   3.291   6.465 -0.0630  0.7990 -0.3589
  118MOL   C20035534   3.907   3.328   6.538 -0.0354 -0.1102  0.2711
  118MOL   O20135535   3.882   3.432   6.600  0.3216 -0.1688  0.0635
  118MOL   O20235536   3.872   3.208   6.577 -0.0874 -0.0887 -0.4348
  118MOL   C20335537   3.785   3.193   6.691  0.5256  0.2535 -0.2289
  118MOL   H20435538   4.083   3.523   6.507  1.2482 -1.8193  0.7156
  118MOL   H20535539   4.158   3.505   6.359  0.4833  0.8709  1.5627
  118MOL   H20635540   4.149   3.184   6.483 -0.7117  0.6898 -0.7783
  118MOL   H20735541   4.218   3.301   6.388 -0.6170  1.5580 -0.8071
  118MOL   H20835542   4.185   3.338   6.554  0.1879  0.8214 -0.4925
  118MOL   H20935543   3.696   3.257   6.683 -0.9957 -1.4810  2.1330
  118MOL   H21035544   3.844   3.214   6.780  1.3431 -1.6355 -0.3092
  118MOL   H21135545   3.754   3.088   6.691  3.2537 -0.5734 -0.3500
  118MOL   C21235546   3.972   3.295   6.286 -0.5764 -0.4402  0.6371
  118MOL   C21335547   3.914   3.148   6.255  0.3214 -1.0321  0.4784
  118MOL   C21435548   4.001   3.039   6.328  0.7054 -0.4066  0.6533
  118MOL   C21535549   3.770   3.138   6.300 -1.0034  0.1132  0.3283
  118MOL   O21635550   3.724   3.031   6.325  0.6901 -0.0955 -0.1847
  118MOL   O21735551   3.708   3.254   6.298 -0.3530  0.5332  0.7293
  118MOL   C21835552   3.578   3.254   6.338  0.1482 -0.4111  0.2064
  118MOL   H21935553   4.060   3.300   6.222 -1.1300 -0.6856 -0.1394
  118MOL   H22035554   3.903   3.367   6.243 -2.1326 -1.3050  1.6343
  118MOL   H22135555   3.974   2.942   6.288  0.0643 -0.5472  1.4080
  118MOL   H22235556   4.108   3.043   6.309  1.1228 -2.1407  2.5167
  118MOL   H22335557   3.984   3.031   6.435  0.7648 -1.0728  0.6155
  118MOL   H22435558   3.538   3.346   6.295  2.3344  0.1923 -0.5968
  118MOL   H22535559   3.564   3.240   6.445  1.4653 -0.0184  0.4408
  118MOL   H22635560   3.527   3.175   6.284  1.1924 -0.8316 -0.1630
  118MOL   C22735561   3.918   3.124   6.100 -0.2674 -0.9253 -0.3975
  118MOL   C22835562   3.839   3.012   6.013 -0.0873  0.1846  0.4187
  118MOL   C22935563   3.864   2.875   6.078 -0.0482  0.1638 -0.1755
  118MOL   C23035564   3.687   3.042   6.000  0.0343  0.4474 -0.1973
  118MOL   O23135565   3.632   3.154   6.019  0.3787  0.2118 -0.1620
  118MOL   O23235566   3.615   2.935   5.961 -0.4426 -0.7367 -0.2017
  118MOL   C23335567   3.474   2.946   5.956  0.4318 -0.3871  0.2607
  118MOL   H23435568   4.022   3.119   6.068 -0.5292  0.8983 -1.5888
  118MOL   H23535569   3.882   3.218   6.059  0.0061  0.2305  1.9809
  118MOL   H23635570   3.824   2.802   6.009  1.8895 -0.6402 -0.4842
  118MOL   H23735571   3.971   2.860   6.089  0.0289  0.5946 -0.3284
  118MOL   H23835572   3.819   2.860   6.176 -0.0707  2.3750  0.1848
  118MOL   H23935573   3.439   3.012   5.877 -1.1483 -0.0686  1.2078
  118MOL   H24035574   3.421   2.983   6.043  0.8074 -0.7517  0.6488
  118MOL   H24135575   3.428   2.850   5.933  0.0519  0.2056 -1.5184
  118MOL   C24235576   3.899   3.004   5.867  0.8149  0.1391 -0.0277
  118MOL   C24335577   3.918   3.125   5.772 -0.0509  0.1253 -0.3742
  118MOL   C24435578   3.938   3.057   5.633 -0.0827  0.7281  0.2764
  118MOL   C24535579   3.797   3.214   5.764  0.2114 -0.5155 -0.2514
  118MOL   O24635580   3.788   3.314   5.833  0.7600  0.2698 -0.5036
  118MOL   O24735581   3.693   3.165   5.688  0.2652  0.4479  0.1741
  118MOL   C24835582   3.573   3.241   5.685  0.8309  0.3527  0.0068
  118MOL   H24935583   3.844   2.923   5.818 -0.8717  0.1855  1.6946
  118MOL   H25035584   3.997   2.958   5.880  0.8423  0.5350  1.2859
  118MOL   H25135585   3.865   2.979   5.612  2.1717 -1.6540  0.9239
  118MOL   H25235586   3.938   3.128   5.550 -0.6093  0.1397 -0.2339
  118MOL   H25335587   4.035   3.007   5.621  0.1544  0.8460  1.6713
  118MOL   H25435588   3.546   3.269   5.584 -1.2377  0.5834  0.5981
  118MOL   H25535589   3.568   3.335   5.740  1.0334 -0.5361  1.5772
  118MOL   H25635590   3.491   3.181   5.723 -0.7993 -0.1877 -4.1555
  118MOL   C25735591   4.050   3.206   5.803  0.3741 -0.0402  0.6612
  118MOL   C25835592   4.130   3.308   5.708 -0.7848 -0.1514 -0.0727
  118MOL   C25935593   4.206   3.251   5.579 -1.0854 -0.5077 -0.0545
  118MOL   C26035594   4.034   3.411   5.656  0.4358 -0.1583  0.6527
  118MOL   O26135595   4.032   3.522   5.701  0.2970  1.0723 -0.2727
  118MOL   O26235596   3.954   3.363   5.553  0.4359  0.0614  0.2540
  118MOL   C26335597   3.853   3.448   5.490 -0.4369  0.3308  0.2486
  118MOL   H26435598   4.123   3.127   5.820 -1.9563 -3.0626 -2.4799
  118MOL   H26535599   4.040   3.260   5.897  0.2440 -0.5797  0.9550
  118MOL   H26635600   4.153   3.177   5.520  1.3897 -1.4582 -1.1468
  118MOL   H26735601   4.219   3.341   5.518  0.1125 -1.2925 -0.9854
  118MOL   H26835602   4.296   3.198   5.610 -0.5544 -0.1382 -0.9254
  118MOL   H26935603   3.896   3.534   5.439  0.1424  0.4276  0.8914
  118MOL   H27035604   3.780   3.464   5.569 -1.1460 -0.6329 -0.1985
  118MOL   H27135605   3.817   3.388   5.407  1.8468 -0.6165 -0.0917
  118MOL   C27235606   4.243   3.382   5.794  0.3639 -0.1803 -0.4145
  118MOL   C27335607   4.357   3.480   5.756 -0.3850  0.4190 -1.4286
  118MOL   C27435608   4.478   3.411   5.689 -0.1466 -0.0013 -0.2126
  118MOL   C27535609   4.319   3.592   5.665  0.1467 -0.7080 -0.0509
  118MOL   O27635610   4.331   3.709   5.699 -0.6112 -0.1258  0.2660
  118MOL   O27735611   4.285   3.561   5.548  0.1544  0.3127 -0.2170
  118MOL   C27835612   4.244   3.655   5.449  0.2935  0.3894  0.0258
  118MOL   H27935613   4.302   3.297   5.828  0.6024 -0.6406 -1.9702
  118MOL   H28035614   4.198   3.425   5.884 -1.1489  0.7685 -1.6172
  118MOL   H28135615   4.553   3.483   5.655 -1.4007  0.8459 -1.2354
  118MOL   H28235616   4.521   3.340   5.760  2.1417  1.1369 -0.4168
  118MOL   H28335617   4.445   3.358   5.600 -0.3791 -2.6583  1.4097
  118MOL   H28435618   4.314   3.737   5.463 -0.5206  1.3023 -1.1618
  118MOL   H28535619   4.145   3.700   5.442  0.6539  1.3701  1.0063
  118MOL   H28635620   4.259   3.618   5.347 -0.1288  0.6762 -0.1416
  118MOL   C28735621   4.425   3.544   5.894  0.6355  0.0917  0.2700
  118MOL   C28835622   4.556   3.637   5.881  0.2538  0.2329 -0.1618
  118MOL   C28935623   4.526   3.772   5.966 -0.2913  0.7922  0.0177
  118MOL   C29035624   4.682   3.561   5.940  0.4046  0.9238  0.1404
  118MOL   O29135625   4.669   3.444   5.982 -0.3664 -0.1070 -0.5427
  118MOL   O29235626   4.797   3.620   5.923 -0.7865  0.0705  0.0002
  118MOL   C29335627   4.924   3.557   5.961  0.7525  0.0278 -0.1697
  118MOL   H29435628   4.436   3.463   5.966 -0.7299  0.0705  0.4688
  118MOL   H29535629   4.341   3.599   5.937 -0.8929 -1.7530 -0.2921
  118MOL   H29635630   4.499   3.859   5.905 -1.4196 -1.5781 -2.9588
  118MOL   H29735631   4.462   3.757   6.053 -1.0059 -0.4579 -0.7196
  118MOL   H29835632   4.622   3.806   6.005 -0.6279 -0.1012  1.6935
  118MOL   H29935633   4.996   3.631   5.997 -1.1897  1.9978 -0.2612
  118MOL   H30035634   4.973   3.507   5.877 -3.0341 -1.0269 -1.8432
  118MOL   H30135635   4.904   3.484   6.039 -0.4069 -0.3624 -0.8161
  118MOL   H30235636   4.571   3.672   5.779  2.1678 -2.6472 -0.9447
  119MOL     C135637   3.405   2.753   5.334  0.2770 -0.0512 -0.0678
  119MOL     C235638   3.495   2.817   5.438  0.3308 -0.0470  0.6252
  119MOL     C335639   3.393   2.887   5.540  0.0894 -0.3871 -0.4364
  119MOL     C435640   3.584   2.715   5.512  0.1952 -0.2572 -0.0079
  119MOL     O535641   3.599   2.598   5.473  0.0649 -0.0470 -0.1482
  119MOL     O635642   3.643   2.769   5.620  0.2775 -0.1626  0.1989
  119MOL     C735643   3.742   2.696   5.686 -0.0974  0.5853  0.5916
  119MOL     H835644   3.338   2.825   5.287  0.3543  0.8798  1.2124
  119MOL     H935645   3.467   2.690   5.271  0.1684  1.5067 -1.7716
  119MOL    H1035646   3.313   2.937   5.485  2.4852 -0.0533 -3.7699
  119MOL    H1135647   3.365   2.811   5.613  2.6816  1.6807  2.8468
  119MOL    H1235648   3.445   2.964   5.598 -0.5828 -1.9422  2.3393
  119MOL    H1335649   3.707   2.599   5.718 -0.5307  0.5664  0.0752
  119MOL    H1435650   3.788   2.749   5.769  1.5606  2.3580 -1.3844
  119MOL    H1535651   3.821   2.670   5.615  1.0283 -0.5867  2.2448
  119MOL    H1635652   3.337   2.687   5.389  0.0147  1.3194  1.2832
  119MOL    C1735653   3.575   2.928   5.372 -0.3940  0.2063  0.2414
  119MOL    C1835654   3.692   2.907   5.256 -0.0003 -0.2884  0.3149
  119MOL    C1935655   3.795   2.802   5.304  0.2487  0.4079 -0.5910
  119MOL    C2035656   3.630   2.847   5.124  0.1853 -0.2733 -0.4193
  119MOL    O2135657   3.676   2.760   5.058  0.3066 -0.4096 -0.6185
  119MOL    O2235658   3.525   2.919   5.093  0.3935  0.0109  0.2827
  119MOL    C2335659   3.439   2.875   4.992 -0.1509 -0.6782  0.1495
  119MOL    H2435660   3.626   2.983   5.451 -0.2611  2.5540 -1.4193
  119MOL    H2535661   3.502   2.998   5.330 -0.1645 -0.0853 -0.6532
  119MOL    H2635662   3.881   2.795   5.236  0.5226 -0.7715 -0.1323
  119MOL    H2735663   3.838   2.827   5.401 -1.2620  0.7632 -0.0115
  119MOL    H2835664   3.747   2.704   5.313  0.0003  0.6078  0.2858
  119MOL    H2935665   3.478   2.859   4.892 -1.3119 -0.3220 -0.3688
  119MOL    H3035666   3.369   2.957   4.976  1.3171  0.1670 -2.1543
  119MOL    H3135667   3.388   2.788   5.035 -0.5601 -0.9444 -0.8694
  119MOL    C3235668   3.765   3.046   5.247 -0.7142  0.5177 -0.3226
  119MOL    C3335669   3.836   3.096   5.117 -0.2248 -0.5871  0.5134
  119MOL    C3435670   3.929   2.982   5.064 -0.4163  0.1608  0.7416
  119MOL    C3535671   3.737   3.140   5.008 -0.6068 -0.1175  0.6932
  119MOL    O3635672   3.737   3.088   4.899  0.1915  0.3055  0.3946
  119MOL    O3735673   3.635   3.219   5.045  0.3450 -0.0527  0.0498
  119MOL    C3835674   3.530   3.254   4.953 -0.1531  0.5002  0.1610
  119MOL    H3935675   3.832   3.048   5.332 -1.9542  1.4036  0.6580
  119MOL    H4035676   3.696   3.126   5.274 -1.0049 -0.1998  1.0811
  119MOL    H4135677   3.999   2.951   5.142  0.7749 -0.0129 -0.3839
  119MOL    H4235678   3.883   2.896   5.015  0.9851 -0.1778 -0.0064
  119MOL    H4335679   3.985   3.022   4.980 -2.1171 -0.3353 -0.6597
  119MOL    H4435680   3.498   3.170   4.891 -1.1571 -0.1301  1.5062
  119MOL    H4535681   3.564   3.341   4.896  1.5644 -0.6525 -0.6168
  119MOL    H4635682   3.436   3.282   4.999 -0.9351 -0.7220 -0.6447
  119MOL    C4735683   3.920   3.221   5.170 -0.0123 -0.1814  0.0983
  119MOL    C4835684   3.999   3.321   5.074  0.7381 -0.7190  0.4256
  119MOL    C4935685   4.080   3.402   5.185  0.2352 -0.5051  0.5793
  119MOL    C5035686   4.097   3.237   4.983  0.1895 -0.9988 -0.2108
  119MOL    O5135687   4.085   3.228   4.859 -0.2161  0.3147 -0.6052
  119MOL    O5235688   4.190   3.166   5.049  0.2707  0.0194  0.0555
  119MOL    C5335689   4.271   3.073   4.985  0.2797 -0.0784 -0.1229
  119MOL    H5435690   3.996   3.174   5.231 -0.2352  0.5348  0.9332
  119MOL    H5535691   3.860   3.286   5.234 -0.1970  0.8679 -1.1268
  119MOL    H5635692   4.010   3.449   5.254  0.4588  2.8243 -1.3209
  119MOL    H5735693   4.148   3.338   5.242  1.7589  0.6835  0.1557
  119MOL    H5835694   4.152   3.480   5.158 -0.2609  0.9871  3.3924
  119MOL    H5935695   4.344   3.035   5.056 -0.3079  0.5441  0.8288
  119MOL    H6035696   4.326   3.124   4.907 -0.5854 -1.8408 -1.9279
  119MOL    H6135697   4.219   2.994   4.931 -2.6330  0.4858  1.7209
  119MOL    C6235698   3.906   3.418   4.980 -0.1182  0.0793 -0.3202
  119MOL    C6335699   3.945   3.561   4.933 -0.0457  0.2801 -0.0069
  119MOL    C6435700   3.944   3.648   5.066 -0.5750  0.1425  0.7731
  119MOL    C6535701   4.083   3.550   4.861  0.8308  0.0374 -0.2018
  119MOL    O6635702   4.188   3.597   4.909  0.5912  0.2944 -0.2739
  119MOL    O6735703   4.079   3.478   4.752 -0.2121  0.3634 -0.1890
  119MOL    C6835704   4.199   3.487   4.677 -0.1099  0.2190  0.2669
  119MOL    H6935705   3.821   3.430   5.048 -1.2221 -1.9917 -1.2729
  119MOL    H7035706   3.872   3.365   4.891  0.2129  2.2264 -1.7396
  119MOL    H7135707   3.883   3.738   5.056 -1.0870 -0.3003 -0.1316
  119MOL    H7235708   3.886   3.608   5.150 -1.3140  0.5365  0.4586
  119MOL    H7335709   4.040   3.682   5.106 -0.0197 -1.4898  0.8660
  119MOL    H7435710   4.230   3.592   4.677 -1.1689  0.5360  1.3205
  119MOL    H7535711   4.186   3.450   4.575 -0.2858  2.2411 -0.4815
  119MOL    H7635712   4.270   3.422   4.728 -1.5605 -2.8643 -1.5513
  119MOL    C7735713   3.843   3.619   4.833 -0.1964 -0.0203  0.5870
  119MOL    C7835714   3.861   3.758   4.756 -0.0898 -0.1029  0.6482
  119MOL    C7935715   3.942   3.872   4.842 -0.2171  0.5372  0.2606
  119MOL    C8035716   3.942   3.734   4.629 -0.4635 -0.3164  0.9791
  119MOL    O8135717   4.039   3.795   4.603  0.5363 -0.0904  0.3251
  119MOL    O8235718   3.883   3.642   4.545 -0.4894  0.0697  0.3409
  119MOL    C8335719   3.932   3.626   4.413 -0.0927 -0.2596  0.0999
  119MOL    H8435720   3.759   3.641   4.900  0.6624 -0.2809  1.7565
  119MOL    H8535721   3.798   3.548   4.764 -2.4442  0.5419  1.4030
  119MOL    H8635722   3.977   3.954   4.780  3.3150 -1.4337 -0.4907
  119MOL    H8735723   3.899   3.911   4.935  0.0171 -1.2077  1.1262
  119MOL    H8835724   4.039   3.833   4.874  0.0402 -0.0292 -1.1636
  119MOL    H8935725   3.861   3.566   4.355  0.3170  0.2512 -0.9433
  119MOL    H9035726   4.028   3.576   4.415 -0.1701 -0.3606  1.6476
  119MOL    H9135727   3.944   3.720   4.359  1.4357 -0.3257  0.3257
  119MOL    C9235728   3.720   3.815   4.706  0.6366 -0.0348  0.0674
  119MOL    C9335729   3.693   3.943   4.619  0.0591 -0.1746 -0.0571
  119MOL    C9435730   3.713   4.060   4.717 -0.5102 -0.2491 -0.5622
  119MOL    C9535731   3.788   3.963   4.492  0.2926 -0.5955  0.8289
  119MOL    O9635732   3.774   3.890   4.390  0.3938 -0.0178 -0.6566
  119MOL    O9735733   3.888   4.053   4.503  0.0277 -0.3216  0.1330
  119MOL    C9835734   4.001   4.056   4.409  0.0070  0.1422  0.4227
  119MOL    H9935735   3.666   3.826   4.801 -2.3476  0.4115 -1.6112
  119MOL   H10035736   3.670   3.739   4.645  0.5493 -0.9975  1.3178
  119MOL   H10135737   3.652   4.037   4.805  1.2589  1.0048  1.0310
  119MOL   H10235738   3.809   4.071   4.766 -1.0520  3.0639 -0.1270
  119MOL   H10335739   3.699   4.158   4.671 -0.8823 -0.8616 -1.7682
  119MOL   H10435740   3.988   4.020   4.307  1.6379  1.5660 -0.3040
  119MOL   H10535741   4.079   3.994   4.453  0.3792  0.8378  0.7467
  119MOL   H10635742   4.038   4.159   4.413 -0.6282  0.3253  1.7853
  119MOL   C10735743   3.547   3.970   4.578  0.0831 -0.1726  1.0722
  119MOL   C10835744   3.444   3.853   4.528 -0.4020  0.1600 -0.6149
  119MOL   C10935745   3.506   3.759   4.423 -0.2832  0.5089  0.1203
  119MOL   C11035746   3.405   3.775   4.655  0.7660 -0.0458 -0.0033
  119MOL   O11135747   3.442   3.659   4.669  1.0623 -0.2545  0.0862
  119MOL   O11235748   3.321   3.842   4.730  0.6285 -0.0430 -0.3458
  119MOL   C11335749   3.295   3.790   4.858  0.0845 -0.3484  0.3173
  119MOL   H11435750   3.567   4.032   4.490  1.6626 -0.3296  1.3161
  119MOL   H11535751   3.494   4.042   4.640 -1.4803  0.8739 -1.3804
  119MOL   H11635752   3.599   3.715   4.459 -1.5050 -1.4773  0.9282
  119MOL   H11735753   3.439   3.674   4.407  1.9412 -1.3436  0.2369
  119MOL   H11835754   3.526   3.800   4.323 -1.0662 -1.1987 -0.7627
  119MOL   H11935755   3.307   3.874   4.925 -0.4658  0.7665 -0.9568
  119MOL   H12035756   3.374   3.727   4.899  0.9562  1.0582  0.8332
  119MOL   H12135757   3.201   3.735   4.865  0.9045 -1.9153 -0.5086
  119MOL   C12235758   3.309   3.929   4.472  0.3115  0.3234 -0.0385
  119MOL   C12335759   3.297   3.994   4.325  0.8574  0.6665 -0.3201
  119MOL   C12435760   3.415   4.092   4.298  0.4585  0.1261  0.2983
  119MOL   C12535761   3.297   3.891   4.207  1.1590  0.4972  0.2357
  119MOL   O12635762   3.287   3.770   4.229 -0.7347  0.1279 -0.1257
  119MOL   O12735763   3.300   3.952   4.082 -0.0223 -0.5480  0.4303
  119MOL   C12835764   3.295   3.877   3.966 -0.0899 -0.4026  0.3706
  119MOL   H12935765   3.271   4.006   4.538 -2.4023 -0.3288 -0.7686
  119MOL   H13035766   3.230   3.854   4.477 -0.5750  1.3701  2.8246
  119MOL   H13135767   3.407   4.136   4.199  1.7781 -0.7839 -0.2366
  119MOL   H13235768   3.426   4.179   4.363  0.4985  0.6784 -0.4422
  119MOL   H13335769   3.510   4.039   4.281 -0.9710 -4.1249  4.3640
  119MOL   H13435770   3.207   3.814   3.956  0.6970 -1.6092  0.9330
  119MOL   H13535771   3.392   3.828   3.964  0.5763  0.7593  2.4112
  119MOL   H13635772   3.282   3.940   3.878  2.3216  0.6316  0.7049
  119MOL   C13735773   3.163   4.079   4.307 -0.1940 -0.0508  0.0231
  119MOL   C13835774   3.013   4.030   4.339 -0.0843  0.3422  0.1625
  119MOL   C13935775   2.969   3.901   4.269  0.1944  0.4719  0.0122
  119MOL   C14035776   2.996   4.026   4.492  0.5228  0.0360  0.4751
  119MOL   O14135777   3.004   4.122   4.569  0.5536  0.5445 -0.1340
  119MOL   O14235778   2.987   3.911   4.542 -0.0675  0.4852  0.2170
  119MOL   C14335779   2.986   3.881   4.680  0.4653  0.4412 -0.6783
  119MOL   H14435780   3.162   4.108   4.202  0.1843 -0.7670 -0.1822
  119MOL   H14535781   3.172   4.179   4.350 -0.9430  0.3508 -0.7444
  119MOL   H14635782   3.038   3.817   4.281 -1.4536 -0.9506 -0.3000
  119MOL   H14735783   2.874   3.861   4.305  0.6816 -0.9431 -0.2118
  119MOL   H14835784   2.972   3.926   4.163  0.6827  1.6407  0.2988
  119MOL   H14935785   3.082   3.903   4.727 -0.8722  0.7173  2.0409
  119MOL   H15035786   2.959   3.776   4.695 -0.5660  0.7822 -0.1619
  119MOL   H15135787   2.907   3.935   4.731 -0.1968 -0.1695 -1.0564
  119MOL   C15235788   2.917   4.141   4.296 -0.2980  0.1832  0.1504
  119MOL   C15335789   2.760   4.138   4.277 -0.4485  0.2615 -0.4365
  119MOL   C15435790   2.720   4.074   4.138 -0.1612  0.2574 -0.1956
  119MOL   C15535791   2.686   4.055   4.388  0.1798  0.3128 -0.1760
  119MOL   O15635792   2.618   3.951   4.361 -0.9876 -0.2882 -0.1351
  119MOL   O15735793   2.697   4.110   4.513  0.0522  0.4088 -0.8935
  119MOL   C15835794   2.625   4.038   4.610  0.0643 -0.4606 -0.1238
  119MOL   H15935795   2.952   4.162   4.195 -1.3530  2.2122  0.1728
  119MOL   H16035796   2.950   4.233   4.344  2.3894  0.2888 -1.8166
  119MOL   H16135797   2.739   4.142   4.054 -2.2385  1.5907  0.3854
  119MOL   H16235798   2.777   3.981   4.128 -0.6230 -0.2484  1.7970
  119MOL   H16335799   2.615   4.049   4.132 -0.7948  2.3672  1.5207
  119MOL   H16435800   2.591   4.105   4.689 -0.5248 -3.5437  2.3067
  119MOL   H16535801   2.692   3.963   4.652 -0.1633 -1.0079 -0.7193
  119MOL   H16635802   2.535   3.991   4.571 -0.9180 -1.9482  3.6747
  119MOL   C16735803   2.711   4.289   4.277 -0.2504 -0.0698  0.4012
  119MOL   C16835804   2.575   4.343   4.224  0.2674 -0.3423 -0.0055
  119MOL   C16935805   2.594   4.362   4.065  0.3641 -0.0097  0.7659
  119MOL   C17035806   2.448   4.250   4.246  0.0772  0.2817  0.6236
  119MOL   O17135807   2.384   4.194   4.157  0.0006  0.4399 -0.4732
  119MOL   O17235808   2.417   4.232   4.369  0.1494 -0.0644 -0.1422
  119MOL   C17335809   2.303   4.171   4.413 -0.3506 -0.4249  0.3653
  119MOL   H17435810   2.782   4.358   4.231 -0.1674  0.5017  1.3628
  119MOL   H17535811   2.716   4.312   4.384 -1.6769  0.1340  0.4397
  119MOL   H17635812   2.555   4.272   4.017 -2.5248  1.7441 -0.2864
  119MOL   H17735813   2.538   4.446   4.025  0.2790 -0.7984 -0.8134
  119MOL   H17835814   2.695   4.386   4.033  0.2767 -0.3961  0.1855
  119MOL   H17935815   2.217   4.230   4.384  0.8672  0.1274 -2.3025
  119MOL   H18035816   2.307   4.151   4.521 -1.5682 -0.0807  0.4796
  119MOL   H18135817   2.295   4.075   4.362  1.6024  0.3566 -1.4979
  119MOL   C18235818   2.542   4.486   4.287  0.2623  0.8496  0.4732
  119MOL   C18335819   2.650   4.607   4.296  0.0735 -0.2119  0.5177
  119MOL   C18435820   2.579   4.718   4.379  0.1825  0.1596  0.3300
  119MOL   C18535821   2.778   4.573   4.370 -0.7329  0.7438 -0.1920
  119MOL   O18635822   2.884   4.561   4.308 -0.0563 -0.3826 -0.1599
  119MOL   O18735823   2.773   4.548   4.506 -0.7755  0.7586 -0.1502
  119MOL   C18835824   2.892   4.493   4.571 -0.0412 -0.2232  0.8968
  119MOL   H18935825   2.519   4.470   4.393 -0.2877  1.4877  0.4525
  119MOL   H19035826   2.450   4.532   4.252 -0.4226  0.4486  1.7215
  119MOL   H19135827   2.566   4.686   4.482 -0.7988 -0.7277 -0.0529
  119MOL   H19235828   2.625   4.815   4.393 -0.0620  0.4866 -1.0532
  119MOL   H19335829   2.481   4.737   4.336  0.3880  1.0713  0.2653
  119MOL   H19435830   2.959   4.575   4.596 -1.3615  1.0930  0.1770
  119MOL   H19535831   2.956   4.430   4.509 -1.2427 -0.2641 -0.3431
  119MOL   H19635832   2.878   4.438   4.664 -0.2216 -2.0110 -0.1648
  119MOL   C19735833   2.675   4.663   4.154  0.5656  0.1481  0.2859
  119MOL   C19835834   2.713   4.809   4.124  0.4231  0.5690  0.0766
  119MOL   C19935835   2.762   4.795   3.971  0.0070  0.1806 -0.2864
  119MOL   C20035836   2.582   4.895   4.128  0.0808  0.2663 -0.5973
  119MOL   O20135837   2.549   4.975   4.219  0.2308 -0.1765 -0.1182
  119MOL   O20235838   2.508   4.865   4.023 -0.5518 -0.2280  0.0892
  119MOL   C20335839   2.388   4.932   4.010 -0.4696  0.0323  0.0093
  119MOL   H20435840   2.580   4.645   4.103  0.2929 -0.9508  1.1400
  119MOL   H20535841   2.751   4.596   4.115 -0.4971  0.1080 -1.8090
  119MOL   H20635842   2.756   4.886   3.911  0.4114  1.4921  1.6248
  119MOL   H20735843   2.866   4.764   3.976  0.1113  0.6208  0.3449
  119MOL   H20835844   2.705   4.725   3.911 -1.0405 -0.4566  1.4235
  119MOL   H20935845   2.331   4.868   3.943 -1.2898  0.2191  0.5184
  119MOL   H21035846   2.400   5.035   3.977  1.4000  0.2688  1.3309
  119MOL   H21135847   2.344   4.952   4.108 -0.3281 -1.4965  0.3957
  119MOL   C21235848   2.833   4.853   4.208  0.7920  0.2038  0.4534
  119MOL   C21335849   2.881   5.008   4.220 -0.6241 -0.4809 -0.0707
  119MOL   C21435850   2.875   5.080   4.079  0.2361 -0.2897 -0.4821
  119MOL   C21535851   2.792   5.091   4.320 -0.1930 -0.0529 -0.2798
  119MOL   O21635852   2.765   5.208   4.287  0.1807  0.3261  0.1884
  119MOL   O21735853   2.760   5.034   4.426 -0.5525  0.4260 -1.0024
  119MOL   C21835854   2.675   5.098   4.519  0.6015 -0.0297 -0.2166
  119MOL   H21935855   2.915   4.788   4.179 -1.2430 -1.7697 -1.0548
  119MOL   H22035856   2.816   4.824   4.312  0.5498 -0.6549  0.1807
  119MOL   H22135857   2.881   5.188   4.077  0.5105 -0.2854  0.3728
  119MOL   H22235858   2.939   5.044   3.998  1.3659  1.9281 -0.6228
  119MOL   H22335859   2.775   5.071   4.038 -0.4974  2.1450  0.6932
  119MOL   H22435860   2.713   5.190   4.562  1.8538 -0.8180  0.3661
  119MOL   H22535861   2.651   5.030   4.600  1.4115  1.3560  1.2167
  119MOL   H22635862   2.582   5.124   4.468  0.1144 -0.0163  0.6833
  119MOL   C22735863   3.032   5.034   4.275 -0.2745  0.7207 -0.4552
  119MOL   C22835864   3.109   4.950   4.385 -0.0090  0.0369 -0.5760
  119MOL   C22935865   3.242   5.035   4.405 -0.1191  0.2003  0.2218
  119MOL   C23035866   3.030   4.941   4.518  0.1323 -0.2963  0.0551
  119MOL   O23135867   2.973   4.832   4.546 -0.2628  0.3431  0.6427
  119MOL   O23235868   3.034   5.060   4.590  0.1301 -0.8342 -0.0771
  119MOL   C23335869   2.962   5.078   4.713  0.3972  0.3413  0.2299
  119MOL   H23435870   3.034   5.142   4.290  2.8294  1.1571 -3.4868
  119MOL   H23535871   3.088   5.006   4.186  0.8653  3.2470 -0.5621
  119MOL   H23635872   3.212   5.130   4.448 -0.2078 -1.1491  3.2806
  119MOL   H23735873   3.319   5.001   4.474  1.0730 -2.3968 -2.2952
  119MOL   H23835874   3.295   5.054   4.312  1.1688 -0.5553  0.7795
  119MOL   H23935875   3.013   5.021   4.791  0.8293  0.6333  0.1638
  119MOL   H24035876   2.863   5.036   4.698  0.3831  0.2937  0.4466
  119MOL   H24135877   2.947   5.180   4.749  0.4816  0.9100 -1.3155
  119MOL   C24235878   3.142   4.804   4.325 -0.2462 -0.3784  0.7135
  119MOL   C24335879   3.272   4.721   4.366 -0.2501 -0.3638  0.0363
  119MOL   C24435880   3.240   4.580   4.307 -0.9012 -0.0422  1.0956
  119MOL   C24535881   3.396   4.773   4.292  0.0400 -0.0626  0.8041
  119MOL   O24635882   3.494   4.809   4.364 -0.4155 -0.6431  0.5670
  119MOL   O24735883   3.388   4.773   4.157  0.3658  0.0580  0.2269
  119MOL   C24835884   3.500   4.811   4.088 -0.0109  0.2400 -0.3308
  119MOL   H24935885   3.147   4.817   4.217  0.5911  2.2292  1.0397
  119MOL   H25035886   3.063   4.731   4.342  0.6204 -1.3639  0.5313
  119MOL   H25135887   3.336   4.526   4.310 -1.7437 -1.5619  1.6085
  119MOL   H25235888   3.165   4.529   4.367  0.4249 -0.6014  2.3185
  119MOL   H25335889   3.201   4.575   4.206  2.2404  1.2964 -0.2574
  119MOL   H25435890   3.514   4.743   4.003 -1.3876 -0.3631 -0.0861
  119MOL   H25535891   3.594   4.804   4.143 -0.4677  0.2919  0.4499
  119MOL   H25635892   3.492   4.912   4.048  0.3004  1.1325  1.7758
  119MOL   C25735893   3.279   4.703   4.524 -0.0062 -0.5908  0.4382
  119MOL   C25835894   3.407   4.659   4.610  0.1059  0.0105  0.3226
  119MOL   C25935895   3.471   4.540   4.538 -0.1578  0.7980 -0.6985
  119MOL   C26035896   3.504   4.769   4.650  0.5078 -0.2418 -0.2662
  119MOL   O26135897   3.628   4.757   4.663 -0.0193 -0.4134 -0.1444
  119MOL   O26235898   3.445   4.889   4.677  0.6074  0.2682  0.9382
  119MOL   C26335899   3.525   5.004   4.665 -1.0365 -0.3500 -0.5564
  119MOL   H26435900   3.197   4.635   4.546 -1.8572  2.0115  1.7501
  119MOL   H26535901   3.247   4.793   4.575  1.7760 -0.3154  1.1083
  119MOL   H26635902   3.400   4.458   4.530  0.1662  0.8086 -5.1292
  119MOL   H26735903   3.509   4.566   4.439 -2.0222  0.0951 -1.6270
  119MOL   H26835904   3.560   4.511   4.593  0.1080 -0.3543 -1.7180
  119MOL   H26935905   3.556   5.029   4.563 -0.3220  2.5748  0.3226
  119MOL   H27035906   3.612   5.006   4.730 -0.7035 -1.5884 -0.9597
  119MOL   H27135907   3.464   5.089   4.697 -1.1609 -1.0322  1.0864
  119MOL   C27235908   3.350   4.602   4.748  0.4188 -0.3858  0.0700
  119MOL   C27335909   3.431   4.514   4.850 -0.9774  0.0605 -0.2402
  119MOL   C27435910   3.355   4.534   4.989  0.3857 -0.4542  0.0890
  119MOL   C27535911   3.416   4.366   4.800  0.0596 -0.3487 -0.5137
  119MOL   O27635912   3.502   4.313   4.734  0.0221  0.6017 -0.5567
  119MOL   O27735913   3.303   4.310   4.833 -0.0462 -0.5233 -0.1142
  119MOL   C27835914   3.272   4.177   4.799 -0.9769  0.8550 -0.1106
  119MOL   H27935915   3.255   4.552   4.732 -0.0692  0.0488  1.5979
  119MOL   H28035916   3.317   4.689   4.804  1.0079 -0.4275  0.4855
  119MOL   H28135917   3.375   4.455   5.061  0.7262  0.4447  0.9958
  119MOL   H28235918   3.387   4.630   5.030 -0.8377  0.1049 -0.2521
  119MOL   H28335919   3.246   4.535   4.982  0.3276 -1.4057  0.6797
  119MOL   H28435920   3.257   4.182   4.691  0.1797 -1.5822 -0.4199
  119MOL   H28535921   3.173   4.150   4.835 -0.5845 -0.3367  0.1150
  119MOL   H28635922   3.350   4.108   4.830 -0.0996  1.2087 -1.4687
  119MOL   C28735923   3.581   4.556   4.872  0.0016 -0.8414  0.6738
  119MOL   C28835924   3.658   4.488   4.983 -0.6483 -0.6830 -0.6532
  119MOL   C28935925   3.730   4.357   4.953  0.3135  0.1463  0.9257
  119MOL   C29035926   3.756   4.567   5.059 -0.0067  0.1692 -0.6467
  119MOL   O29135927   3.756   4.566   5.182 -0.1143  0.3537 -0.0343
  119MOL   O29235928   3.846   4.636   4.985  0.0826  0.2550 -0.4949
  119MOL   C29335929   3.950   4.717   5.047 -0.5992 -0.2045  0.6043
  119MOL   H29435930   3.573   4.660   4.903 -1.4938 -0.6409 -0.3314
  119MOL   H29535931   3.642   4.558   4.781 -0.4382  0.5212  0.3949
  119MOL   H29635932   3.662   4.275   4.926  1.4221 -0.7727  0.8828
  119MOL   H29735933   3.790   4.377   4.865 -0.4878 -2.2021 -0.2230
  119MOL   H29835934   3.802   4.333   5.031 -1.3298 -3.7411  1.3856
  119MOL   H29935935   3.995   4.662   5.129 -0.0055 -1.2769 -0.4242
  119MOL   H30035936   3.921   4.820   5.066  0.4327  0.1122  0.4947
  119MOL   H30135937   4.037   4.726   4.981 -0.2035 -0.3949  1.0928
  119MOL   H30235938   3.586   4.462   5.060  1.1610 -1.1193  0.9136
  120MOL     C135939   2.941   4.125   0.431 -0.1185  0.3335 -0.7163
  120MOL     C235940   2.957   4.271   0.485 -0.1078 -0.4900  0.5289
  120MOL     C335941   2.920   4.277   0.629  0.8069  0.2125 -0.5265
  120MOL     C435942   3.110   4.321   0.487  0.5922  0.0792 -0.0232
  120MOL     O535943   3.198   4.248   0.444  0.1526 -0.1789  0.2937
  120MOL     O635944   3.134   4.441   0.536  0.1431  0.1251  0.0694
  120MOL     C735945   3.270   4.485   0.544  0.3053  0.5500  0.4351
  120MOL     H835946   2.975   4.123   0.327 -0.2173  0.0834 -0.7451
  120MOL     H935947   3.004   4.050   0.479  0.4724  0.9489 -0.5114
  120MOL    H1035948   2.964   4.360   0.684 -3.1431  1.5587  0.7521
  120MOL    H1135949   2.812   4.273   0.646  1.0722 -0.0813  1.1710
  120MOL    H1235950   2.950   4.184   0.677 -1.2221  0.7000  1.7930
  120MOL    H1335951   3.265   4.587   0.583  0.9207  0.7057  0.1116
  120MOL    H1435952   3.311   4.482   0.443  2.5207 -0.2384  1.3221
  120MOL    H1535953   3.335   4.419   0.601  2.9832  2.7247 -0.0083
  120MOL    H1635954   2.840   4.088   0.413  0.3256 -2.4214  2.0272
  120MOL    C1735955   2.877   4.369   0.392  0.2703 -0.3025 -0.3416
  120MOL    C1835956   2.893   4.388   0.230  0.3700  0.5082 -0.2959
  120MOL    C1935957   3.030   4.352   0.180  0.7794 -0.7101  0.6863
  120MOL    C2035958   2.795   4.290   0.159 -0.8930 -0.4292 -0.0575
  120MOL    O2135959   2.722   4.221   0.222  0.2747 -0.3923  0.0581
  120MOL    O2235960   2.809   4.278   0.029 -0.0507 -0.4427  0.0702
  120MOL    C2335961   2.706   4.212   7.837 -0.4145  0.3156 -0.2893
  120MOL    H2435962   2.909   4.464   0.435 -0.8714 -0.0728  0.0226
  120MOL    H2535963   2.774   4.347   0.420  0.0815  0.9246 -0.0300
  120MOL    H2635964   3.058   4.247   0.187  1.9515 -0.3296  1.8556
  120MOL    H2735965   3.038   4.377   0.074  1.0990 -0.5497  0.7483
  120MOL    H2835966   3.108   4.405   0.235 -1.8680  0.8758  3.0228
  120MOL    H2935967   2.705   4.231   7.729 -1.3451  1.9220 -0.0156
  120MOL    H3035968   2.608   4.246   7.869 -1.0095 -1.6108 -0.0083
  120MOL    H3135969   2.716   4.105   7.849 -0.6295 -0.0861 -3.2657
  120MOL    C3235970   2.869   4.540   0.193  1.1726 -0.5666 -0.0264
  120MOL    C3335971   2.739   4.625   0.231  0.3327 -0.2863  0.1029
  120MOL    C3435972   2.611   4.544   0.190  0.4116  0.1733  0.8380
  120MOL    C3535973   2.739   4.672   0.378 -0.1049  0.3283  0.3294
  120MOL    O3635974   2.830   4.745   0.420  0.1333 -0.0712 -0.1999
  120MOL    O3735975   2.643   4.625   0.456  0.3226 -0.4803  0.0213
  120MOL    C3835976   2.619   4.684   0.582 -0.2658  0.0307  0.1064
  120MOL    H3935977   2.874   4.539   0.084  2.1562 -0.5298  0.0212
  120MOL    H4035978   2.959   4.590   0.228  1.4300 -0.7932 -0.3652
  120MOL    H4135979   2.606   4.459   0.258 -1.4689 -1.3091 -1.0933
  120MOL    H4235980   2.513   4.591   0.202  0.6454  0.4030  1.9860
  120MOL    H4335981   2.609   4.502   0.090 -0.6111 -3.6555  2.3578
  120MOL    H4435982   2.692   4.651   0.655 -0.7179  0.0290  0.5575
  120MOL    H4535983   2.523   4.654   0.623  0.1146 -1.8258 -0.2894
  120MOL    H4635984   2.610   4.792   0.577 -0.7196 -0.0587 -1.3783
  120MOL    C4735985   2.746   4.760   0.148  0.5438  0.2813 -0.1250
  120MOL    C4835986   2.624   4.854   0.121  0.6949  0.0528 -0.4656
  120MOL    C4935987   2.687   4.983   0.067 -0.1350 -0.7321  0.0799
  120MOL    C5035988   2.535   4.797   7.876  1.1323  0.0202 -0.2461
  120MOL    O5135989   2.578   4.788   7.770  0.1800  0.2499  0.3513
  120MOL    O5235990   2.411   4.752   0.026  0.2124  0.1880 -0.0613
  120MOL    C5335991   2.339   4.673   7.816  0.1242 -0.3224 -0.1529
  120MOL    H5435992   2.773   4.730   0.047  1.1188 -0.3029  0.1998
  120MOL    H5535993   2.839   4.813   0.163  1.1722 -0.8489  0.0090
  120MOL    H5635994   2.610   5.043   0.018 -0.2061 -0.0055  1.0764
  120MOL    H5735995   2.738   5.042   0.143  1.2384 -0.5189 -0.9856
  120MOL    H5835996   2.755   4.959   7.863  0.5993 -0.3445  0.5711
  120MOL    H5935997   2.396   4.587   7.779  0.1768 -0.2994 -0.1243
  120MOL    H6035998   2.296   4.731   7.735 -0.3946 -0.9233 -0.3179
  120MOL    H6135999   2.252   4.637   7.872 -0.7286  1.6463 -0.2047
  120MOL    C6236000   2.544   4.897   0.256 -0.4458 -0.4821  0.3789
  120MOL    C6336001   2.452   5.024   0.282  0.2337 -0.0653 -0.2270
  120MOL    C6436002   2.346   5.013   0.170 -0.5629  0.3687  0.2984
  120MOL    C6536003   2.374   5.018   0.416  0.2933 -0.0949 -0.5810
  120MOL    O6636004   2.380   4.915   0.488  0.0920 -0.8491  0.1796
  120MOL    O6736005   2.288   5.125   0.443 -0.0363 -0.1244 -0.2466
  120MOL    C6836006   2.240   5.138   0.576  0.5437 -0.6378 -0.2399
  120MOL    H6936007   2.613   4.884   0.339 -0.0409  1.3751  0.3604
  120MOL    H7036008   2.469   4.819   0.266 -1.4619  0.1428 -1.9101
  120MOL    H7136009   2.276   5.097   0.170 -0.5039  0.4913 -3.2108
  120MOL    H7236010   2.389   5.010   0.070 -2.7243  0.6186 -0.6714
  120MOL    H7336011   2.275   4.933   0.190  0.5498 -0.2602  1.9253
  120MOL    H7436012   2.167   5.061   0.601 -1.4779  1.3419  0.1326
  120MOL    H7536013   2.182   5.227   0.600  0.8079 -1.1520  2.5819
  120MOL    H7636014   2.316   5.139   0.655  0.5162 -1.8744 -0.1949
  120MOL    C7736015   2.515   5.166   0.263 -0.4778  0.4846  0.0878
  120MOL    C7836016   2.609   5.235   0.369 -0.2210 -0.7241 -0.7609
  120MOL    C7936017   2.531   5.297   0.487  0.0006 -0.3937  0.1302
  120MOL    C8036018   2.720   5.140   0.420 -0.6516  1.3610 -0.1619
  120MOL    O8136019   2.701   5.065   0.519  0.0117  0.8340 -0.0146
  120MOL    O8236020   2.828   5.132   0.342 -0.4266  0.6678  0.1791
  120MOL    C8336021   2.937   5.037   0.362 -0.1996  0.0504 -0.7840
  120MOL    H8436022   2.427   5.228   0.246 -0.0923  0.7874 -0.8324
  120MOL    H8536023   2.561   5.184   0.166 -1.9079 -1.1513 -0.9311
  120MOL    H8636024   2.432   5.329   0.454  0.2870 -1.6199 -1.9972
  120MOL    H8736025   2.520   5.217   0.560 -4.0713 -1.5801 -1.6424
  120MOL    H8836026   2.576   5.374   0.549 -1.7506  0.0802  0.8377
  120MOL    H8936027   2.948   4.973   0.275  0.2268  1.1450 -1.5464
  120MOL    H9036028   2.930   4.984   0.457 -0.6917 -0.6395 -1.2078
  120MOL    H9136029   3.021   5.107   0.362 -0.0282 -0.1600 -1.5040
  120MOL    C9236030   2.685   5.353   0.295  0.0722  0.5587  0.5035
  120MOL    C9336031   2.621   5.493   0.247 -0.9779 -0.0696  1.1214
  120MOL    C9436032   2.492   5.477   0.162 -0.5404 -0.4422 -0.8855
  120MOL    C9536033   2.583   5.582   0.371 -0.4310 -0.4828 -0.1626
  120MOL    O9636034   2.472   5.637   0.382 -0.0612  0.3845 -0.8321
  120MOL    O9736035   2.682   5.588   0.460 -0.1638 -0.3116 -0.0544
  120MOL    C9836036   2.654   5.669   0.576  0.9949  0.3225 -0.1988
  120MOL    H9936037   2.755   5.323   0.217 -1.1864  0.7579 -0.7201
  120MOL   H10036038   2.762   5.387   0.365 -1.2018 -0.3276  2.3696
  120MOL   H10136039   2.515   5.415   0.075  1.7455 -1.1800  0.2099
  120MOL   H10236040   2.410   5.434   0.220 -0.0302  0.3232  0.4211
  120MOL   H10336041   2.444   5.571   0.136 -0.1319  0.3674  1.1878
  120MOL   H10436042   2.753   5.701   0.609  0.9012 -0.0226  0.4336
  120MOL   H10536043   2.611   5.612   0.658 -1.0549  0.2185 -1.2994
  120MOL   H10636044   2.591   5.755   0.552 -0.5486 -0.9113 -0.6718
  120MOL   C10736045   2.732   5.554   0.153  0.0408 -0.5476  0.1967
  120MOL   C10836046   2.742   5.702   0.106 -0.4561 -0.9412 -0.0742
  120MOL   C10936047   2.600   5.771   0.093 -0.2172  0.4491 -0.1744
  120MOL   C11036048   2.818   5.796   0.206  0.2547 -0.8580 -0.0283
  120MOL   O11136049   2.867   5.749   0.306  0.3903 -0.7559 -0.1662
  120MOL   O11236050   2.841   5.920   0.171 -0.0083 -0.0981 -0.4761
  120MOL   C11336051   2.911   6.013   0.263 -0.4051 -0.0463 -1.0361
  120MOL   H11436052   2.735   5.493   0.063 -0.3753  0.5078 -0.5395
  120MOL   H11536053   2.824   5.542   0.212  1.0026 -1.3658 -1.4281
  120MOL   H11636054   2.545   5.725   0.010 -0.5742  1.4002 -0.4704
  120MOL   H11736055   2.534   5.776   0.179 -0.6988 -0.0049 -0.5132
  120MOL   H11836056   2.612   5.876   0.066  1.5465 -0.0777 -1.5546
  120MOL   H11936057   2.874   6.000   0.365  0.5104 -1.6287 -0.8781
  120MOL   H12036058   2.885   6.115   0.237 -1.5779  0.6245  2.4377
  120MOL   H12136059   3.019   6.003   0.255  0.0118  0.1099  3.1264
  120MOL   C12236060   2.799   5.726   7.839  0.3136  0.0289  0.7961
  120MOL   C12336061   2.938   5.660   7.787 -0.2118 -0.0273 -0.8911
  120MOL   C12436062   2.882   5.556   7.686 -0.1285 -0.6331  0.2635
  120MOL   C12536063   3.020   5.769   7.712 -0.1365 -0.6264  0.5284
  120MOL   O12636064   3.071   5.744   7.599 -0.0955 -0.1653 -0.5304
  120MOL   O12736065   3.042   5.887   7.785  0.6658  0.9027 -0.0339
  120MOL   C12836066   3.140   5.982   7.731 -0.6371  0.5770 -0.3690
  120MOL   H12936067   2.795   5.833   7.819 -1.1404 -0.0268  0.7791
  120MOL   H13036068   2.716   5.697   7.775  2.0997 -0.4667 -1.3951
  120MOL   H13136069   2.823   5.479   7.735 -1.0709 -0.6251 -0.8476
  120MOL   H13236070   2.832   5.610   7.605  3.0665 -1.0597 -2.1065
  120MOL   H13336071   2.962   5.504   7.633  1.1251  1.6448 -0.1425
  120MOL   H13436072   3.156   6.070   7.794 -0.1300  0.2288 -0.0058
  120MOL   H13536073   3.096   6.006   7.634 -0.5226 -1.4543 -0.9399
  120MOL   H13636074   3.237   5.934   7.722 -0.7242  0.2271  0.5042
  120MOL   C13736075   3.021   5.578   0.009 -0.1320 -0.0562 -0.0129
  120MOL   C13836076   3.177   5.535   0.003 -0.2929  0.1342  0.0900
  120MOL   C13936077   3.205   5.470   7.747  0.2825  0.3218 -0.9192
  120MOL   C14036078   3.258   5.667   0.024 -0.2405  0.4033 -0.3564
  120MOL   O14136079   3.365   5.698   7.850 -0.3093 -0.5392  0.1006
  120MOL   O14236080   3.214   5.727   0.134 -0.0186  0.3768 -0.4235
  120MOL   C14336081   3.291   5.838   0.183  0.5012  0.3260  0.6562
  120MOL   H14436082   2.966   5.485   0.024 -0.4127 -0.2620 -2.0852
  120MOL   H14536083   3.001   5.624   0.106 -0.8169 -2.5512  1.0669
  120MOL   H14636084   3.309   5.446   7.726  0.0079  0.1913 -2.1950
  120MOL   H14736085   3.155   5.374   7.740  0.6584  0.1285 -0.9679
  120MOL   H14836086   3.177   5.522   7.655 -1.0152  0.0069 -0.7138
  120MOL   H14936087   3.219   5.888   0.248  0.2731  0.1528  0.5342
  120MOL   H15036088   3.322   5.910   0.108  0.6750 -0.3112  0.1114
  120MOL   H15136089   3.382   5.812   0.238  1.2015  1.1589 -0.0879
  120MOL   C15236090   3.195   5.431   0.123  0.3901 -0.0528 -0.7424
  120MOL   C15336091   3.332   5.366   0.174  0.1152  0.3509  0.5528
  120MOL   C15436092   3.289   5.246   0.274  1.4293  0.3140 -0.1147
  120MOL   C15536093   3.412   5.304   0.059  0.1792 -0.3584 -0.7286
  120MOL   O15636094   3.515   5.358   0.012  0.7901 -0.0224 -0.1297
  120MOL   O15736095   3.351   5.198   7.874  0.3199 -0.2009  0.0472
  120MOL   C15836096   3.401   5.139   7.750  0.8538 -0.1444 -0.9482
  120MOL   H15936097   3.138   5.342   0.095  2.5721 -1.6755 -0.1654
  120MOL   H16036098   3.136   5.470   0.207 -2.1760 -1.4419 -1.8369
  120MOL   H16136099   3.378   5.187   0.291  1.1655 -0.0777 -0.0901
  120MOL   H16236100   3.241   5.277   0.367 -0.5785  0.5519 -1.1852
  120MOL   H16336101   3.217   5.175   0.233  1.8139  0.2903 -0.7593
  120MOL   H16436102   3.492   5.086   7.777  0.5400 -0.4232 -0.4355
  120MOL   H16536103   3.418   5.227   7.688 -0.4502  2.3174  2.0098
  120MOL   H16636104   3.322   5.071   7.717  0.2699  0.1990 -0.2927
  120MOL   C16736105   3.431   5.478   0.237 -0.2099 -0.9185 -0.0535
  120MOL   C16836106   3.553   5.450   0.341  0.2109 -0.4202 -0.3855
  120MOL   C16936107   3.648   5.347   0.288  0.6240 -0.5201 -0.0554
  120MOL   C17036108   3.633   5.581   0.375 -0.2956 -0.6656 -0.3119
  120MOL   O17136109   3.584   5.693   0.345 -0.0427 -0.1282  0.1392
  120MOL   O17236110   3.748   5.563   0.445  0.0571 -0.0878  0.0638
  120MOL   C17336111   3.833   5.685   0.473  0.4164 -0.2603 -0.3580
  120MOL   H17436112   3.366   5.551   0.284 -0.2334 -0.4540 -0.8058
  120MOL   H17536113   3.479   5.538   0.160 -0.9688 -2.2225 -1.5748
  120MOL   H17636114   3.605   5.247   0.281 -0.3891 -0.2349  1.6519
  120MOL   H17736115   3.685   5.377   0.190  0.3838  0.5094  0.1556
  120MOL   H17836116   3.738   5.346   0.349  1.2035 -0.3560 -0.9061
  120MOL   H17936117   3.932   5.645   0.496 -0.3859 -2.8810 -1.3171
  120MOL   H18036118   3.790   5.732   0.562  1.1492  1.4768 -0.9107
  120MOL   H18136119   3.844   5.749   0.385 -0.1043 -0.6272 -0.6926
  120MOL   C18236120   3.503   5.393   0.479 -0.3462 -0.7331  0.8174
  120MOL   C18336121   3.425   5.476   0.589 -0.4963 -0.1827 -0.7232
  120MOL   C18436122   3.527   5.554   0.673 -0.6442 -0.3452  0.3098
  120MOL   C18536123   3.316   5.573   0.530  0.6648 -0.3710  0.4118
  120MOL   O18636124   3.325   5.697   0.530 -0.4530 -0.0991  0.1597
  120MOL   O18736125   3.207   5.509   0.481  0.2860 -0.1845 -0.1200
  120MOL   C18836126   3.091   5.580   0.451  0.4843  0.4398  0.5945
  120MOL   H18936127   3.591   5.351   0.528 -0.4569 -0.9333  0.8425
  120MOL   H19036128   3.447   5.305   0.449 -0.9295 -0.0836 -0.0201
  120MOL   H19136129   3.564   5.646   0.628 -0.5366 -0.0796  0.9232
  120MOL   H19236130   3.479   5.589   0.765 -1.1078 -1.2617  0.4189
  120MOL   H19336131   3.611   5.488   0.694  0.4780  1.4992  1.7892
  120MOL   H19436132   3.003   5.517   0.439  0.7736 -0.2252  1.9399
  120MOL   H19536133   3.117   5.656   0.377  1.5622  0.3211  0.8470
  120MOL   H19636134   3.055   5.636   0.537 -0.5724 -2.6270  2.2127
  120MOL   C19736135   3.356   5.363   0.671 -0.6106  0.1936  0.0766
  120MOL   C19836136   3.289   5.363   0.816 -1.1782 -0.3174 -0.2138
  120MOL   C19936137   3.406   5.364   0.916 -0.1696  0.4665 -0.1745
  120MOL   C20036138   3.196   5.475   0.838  0.2089  0.3889 -0.1197
  120MOL   O20136139   3.200   5.537   0.942 -0.5165  0.0139 -0.2031
  120MOL   O20236140   3.095   5.473   0.764  0.2079  0.7390  0.3442
  120MOL   C20336141   3.008   5.580   0.766  0.7470 -0.5555  0.0428
  120MOL   H20436142   3.424   5.278   0.669 -0.9131 -0.0316 -0.7396
  120MOL   H20536143   3.281   5.336   0.597  1.4962  2.1594 -2.8882
  120MOL   H20636144   3.479   5.287   0.890  0.5161  0.1117  2.6189
  120MOL   H20736145   3.452   5.462   0.928  0.5672  0.0287  0.7336
  120MOL   H20836146   3.364   5.361   1.017 -1.2801  0.4664 -0.6381
  120MOL   H20936147   2.919   5.557   0.708  0.0667  2.6932 -0.2878
  120MOL   H21036148   3.053   5.674   0.733  0.8224  0.0267  1.7043
  120MOL   H21136149   2.976   5.594   0.870 -2.1122  1.3993 -1.0504
  120MOL   C21236150   3.221   5.229   0.843  0.5540  0.4198 -0.3355
  120MOL   C21336151   3.156   5.131   0.742  0.2641  0.4821  0.1765
  120MOL   C21436152   3.046   5.199   0.647  0.1882  0.0470  0.1494
  120MOL   C21536153   3.257   5.066   0.639 -0.5861 -0.2153 -0.2328
  120MOL   O21636154   3.225   5.042   0.521  0.0686  0.4891  0.2971
  120MOL   O21736155   3.369   5.024   0.697  0.0796 -0.3435  0.2821
  120MOL   C21836156   3.472   4.980   0.608  0.8494 -0.2007 -0.1713
  120MOL   H21936157   3.140   5.241   0.914  0.6850  1.1979 -0.3193
  120MOL   H22036158   3.290   5.159   0.890  0.1029 -0.5364 -1.0724
  120MOL   H22136159   2.987   5.120   0.600  0.2784  0.4052 -0.5626
  120MOL   H22236160   2.978   5.263   0.702  0.1593  0.8417 -0.8168
  120MOL   H22336161   3.087   5.252   0.561 -2.9716 -1.9291 -2.7268
  120MOL   H22436162   3.437   4.886   0.566  1.5425 -1.1193  1.2783
  120MOL   H22536163   3.555   4.937   0.664 -0.1302 -1.0635  0.6081
  120MOL   H22636164   3.520   5.054   0.543 -0.9180  0.0742 -1.1786
  120MOL   C22736165   3.091   5.004   0.806  0.7811 -0.3115 -0.0475
  120MOL   C22836166   3.004   5.010   0.936  0.2418  0.6021 -0.4586
  120MOL   C22936167   3.101   4.994   1.050 -0.1333  0.6497 -0.0010
  120MOL   C23036168   2.914   5.141   0.942  0.1199  0.1400 -0.4858
  120MOL   O23136169   2.939   5.227   1.032  0.3240  0.2311 -0.5359
  120MOL   O23236170   2.823   5.156   0.843  0.2476  0.2140  0.1113
  120MOL   C23336171   2.742   5.271   0.856 -0.3495 -0.2165  0.3526
  120MOL   H23436172   3.148   4.912   0.809 -0.4019 -1.1028 -1.4470
  120MOL   H23536173   3.018   4.978   0.729 -0.5191 -0.1978  1.1171
  120MOL   H23636174   3.118   4.886   1.054  2.9296  1.1142  0.8205
  120MOL   H23736175   3.196   5.044   1.034 -1.2173  1.6588 -3.8564
  120MOL   H23836176   3.060   5.035   1.143  2.0137  3.4694 -0.2346
  120MOL   H23936177   2.689   5.277   0.951 -0.8435 -1.1383  0.1413
  120MOL   H24036178   2.672   5.266   0.773 -0.4206 -1.3522  0.4741
  120MOL   H24136179   2.802   5.362   0.847  0.0649 -0.3339  1.9286
  120MOL   C24236180   2.907   4.890   0.924  0.0436 -0.4747  0.5379
  120MOL   C24336181   2.792   4.856   1.024  0.2278  0.8061  0.3624
  120MOL   C24436182   2.820   4.899   1.164  0.0442  0.2729  0.3491
  120MOL   C24536183   2.661   4.926   0.980  0.0313 -0.1653 -0.0952
  120MOL   O24636184   2.598   5.005   1.050 -0.3684 -0.3768  0.4819
  120MOL   O24736185   2.632   4.886   0.865 -0.1349 -0.2650 -0.1506
  120MOL   C24836186   2.521   4.940   0.796 -0.3791 -0.0566  0.3183
  120MOL   H24936187   2.959   4.798   0.897  0.6034 -0.3893  1.2811
  120MOL   H25036188   2.853   4.909   0.831 -1.6770 -0.8416  1.4403
  120MOL   H25136189   2.833   5.007   1.173  0.0769  0.1820  1.5182
  120MOL   H25236190   2.733   4.876   1.226 -0.7614  1.6429 -0.2226
  120MOL   H25336191   2.911   4.849   1.197 -0.4756 -0.8048  0.1552
  120MOL   H25436192   2.446   4.862   0.785  0.7127 -1.5381  2.9845
  120MOL   H25536193   2.560   4.950   0.695  1.1562  0.5518  0.9644
  120MOL   H25636194   2.475   5.035   0.822 -3.0824 -2.0133  3.0888
  120MOL   C25736195   2.770   4.698   1.018 -0.2423  0.1341 -0.4811
  120MOL   C25836196   2.846   4.595   1.106 -0.1991  0.5670  0.4690
  120MOL   C25936197   3.001   4.608   1.100  0.2882  0.4153  0.2102
  120MOL   C26036198   2.805   4.595   1.258  0.2907  0.4222 -0.2008
  120MOL   O26136199   2.899   4.580   1.341  0.3969  0.2942  0.1005
  120MOL   O26236200   2.673   4.616   1.287 -0.4406 -0.6359 -0.3279
  120MOL   C26336201   2.625   4.649   1.412  0.3075  0.5221 -0.7487
  120MOL   H26436202   2.778   4.662   0.915  0.2735  1.1745 -0.8038
  120MOL   H26536203   2.663   4.682   1.030 -0.3666  1.2060 -0.1272
  120MOL   H26636204   3.057   4.523   1.139  1.6117  0.1960 -2.0641
  120MOL   H26736205   3.024   4.616   0.994  0.3293  1.3872  0.2838
  120MOL   H26836206   3.044   4.685   1.165 -0.2906  1.3776 -0.5328
  120MOL   H26936207   2.632   4.560   1.476 -0.1387  1.8400  1.1710
  120MOL   H27036208   2.521   4.681   1.400 -0.8483 -2.0285  1.7802
  120MOL   H27136209   2.682   4.728   1.460 -0.1799  0.3923  0.0608
  120MOL   C27236210   2.821   4.448   1.044  0.1724  0.1158  0.4461
  120MOL   C27336211   2.694   4.358   1.066  0.1689 -0.5902  0.3192
  120MOL   C27436212   2.552   4.431   1.047 -0.4876 -0.1838  0.1180
  120MOL   C27536213   2.686   4.240   0.961 -1.2837  0.3267  0.1807
  120MOL   O27636214   2.585   4.216   0.894 -0.1711 -0.5642 -0.1659
  120MOL   O27736215   2.801   4.169   0.951 -0.5567 -0.1991 -0.1412
  120MOL   C27836216   2.783   4.042   0.891  0.1890 -0.3330  0.1535
  120MOL   H27936217   2.905   4.380   1.058 -0.6846 -1.1202 -0.3808
  120MOL   H28036218   2.832   4.453   0.936 -0.0268 -0.7357  0.3821
  120MOL   H28136219   2.468   4.361   1.049  0.2901 -1.1185  0.8459
  120MOL   H28236220   2.530   4.508   1.121 -0.4881  1.0699 -1.1612
  120MOL   H28336221   2.555   4.456   0.941  0.3095  1.4344  0.5157
  120MOL   H28436222   2.884   4.001   0.879  0.7517  0.6284  1.5313
  120MOL   H28536223   2.746   4.046   0.788 -0.8610  1.0288  0.5666
  120MOL   H28636224   2.724   3.965   0.942  0.9959 -1.0641 -0.0064
  120MOL   C28736225   2.704   4.287   1.205 -0.2347 -0.6432  1.1018
  120MOL   C28836226   2.586   4.188   1.242  0.4541  0.3487 -0.1519
  120MOL   C28936227   2.624   4.037   1.276  0.3051  0.9657 -0.7642
  120MOL   C29036228   2.509   4.243   1.364 -0.0627  0.1011 -0.3627
  120MOL   O29136229   2.556   4.254   1.477 -0.1684  1.0450  0.3768
  120MOL   O29236230   2.381   4.286   1.318 -0.5193  0.6590  0.0855
  120MOL   C29336231   2.293   4.355   1.412 -0.1154 -0.2703  0.3099
  120MOL   H29436232   2.705   4.368   1.278  0.8656  0.7024 -0.3687
  120MOL   H29536233   2.796   4.230   1.217  1.3020  1.4139 -0.6239
  120MOL   H29636234   2.609   3.980   1.184 -2.2534  0.7056 -0.2124
  120MOL   H29736235   2.730   4.025   1.297  0.0850  1.4001  0.6639
  120MOL   H29836236   2.554   3.998   1.350 -0.2503 -0.5135 -2.0517
  120MOL   H29936237   2.339   4.445   1.453  1.2883 -1.2906  1.0070
  120MOL   H30036238   2.281   4.282   1.491  1.7744  0.9798  1.8009
  120MOL   H30136239   2.198   4.382   1.365 -0.1757 -0.0653  0.5480
  120MOL   H30236240   2.519   4.187   1.156 -1.0826 -2.5259  0.9951
  121MOL     C136241   5.500   6.826   3.114 -0.1639 -0.1814  0.3549
  121MOL     C236242   5.638   6.853   3.038 -0.1726  0.8074  0.2270
  121MOL     C336243   5.622   6.817   2.885  0.0230 -0.1995  0.3120
  121MOL     C436244   5.668   7.003   3.045  0.7945  0.0202 -0.1277
  121MOL     O536245   5.685   7.077   2.944  0.1512  0.1779 -0.1170
  121MOL     O636246   5.667   7.047   3.173  0.1961 -0.7278  0.4803
  121MOL     C736247   5.713   7.181   3.196  0.1041 -0.1894 -0.5911
  121MOL     H836248   5.485   6.719   3.122  1.0277 -0.6410 -2.6586
  121MOL     H936249   5.513   6.855   3.218 -1.3395 -2.1852  1.0905
  121MOL    H1036250   5.695   6.861   2.817 -0.4805  0.2466  0.0444
  121MOL    H1136251   5.617   6.709   2.872  1.9831 -0.4480  1.5714
  121MOL    H1236252   5.525   6.846   2.844  0.1995 -0.0030  0.0338
  121MOL    H1336253   5.672   7.215   3.291 -1.7511  0.8097 -1.7063
  121MOL    H1436254   5.667   7.254   3.129  0.2321  0.1409 -0.3144
  121MOL    H1536255   5.820   7.201   3.199 -0.1407  1.0599  0.2677
  121MOL    H1636256   5.405   6.863   3.076  1.3201  3.2754 -0.2151
  121MOL    C1736257   5.759   6.753   3.084  0.5460  0.0898  0.2846
  121MOL    C1836258   5.913   6.782   3.079  0.4684 -0.2907  0.3024
  121MOL    C1936259   5.945   6.832   2.942  0.4230 -0.4290  0.0561
  121MOL    C2036260   5.946   6.901   3.180 -0.1863 -0.1533 -0.4865
  121MOL    O2136261   6.007   7.002   3.146 -0.1806 -0.3740  0.4375
  121MOL    O2236262   5.915   6.879   3.302  0.3482 -0.3384 -0.6879
  121MOL    C2336263   5.939   6.977   3.406  0.0367  0.2777  0.4813
  121MOL    H2436264   5.746   6.663   3.023  2.6917 -0.8497  1.1937
  121MOL    H2536265   5.731   6.721   3.184 -0.1820  1.1000  0.4213
  121MOL    H2636266   5.920   6.753   2.871  0.1467  0.4144 -0.7965
  121MOL    H2736267   5.893   6.925   2.921  1.4850  0.1663  0.0342
  121MOL    H2836268   6.052   6.847   2.935  0.7008 -0.6340  3.1275
  121MOL    H2936269   5.890   6.935   3.494 -0.8406  1.5180  0.5959
  121MOL    H3036270   5.897   7.076   3.390  1.1279  0.8672  1.2172
  121MOL    H3136271   6.045   6.977   3.432  0.0139  0.6340  0.5741
  121MOL    C3236272   5.979   6.648   3.124 -0.4251  0.2063 -0.0421
  121MOL    C3336273   6.141   6.615   3.127 -0.8655 -0.3004 -0.3899
  121MOL    C3436274   6.218   6.747   3.180  0.4826  0.8025  0.4690
  121MOL    C3536275   6.155   6.488   3.223 -0.5584 -0.5113 -0.1429
  121MOL    O3636276   6.100   6.381   3.207  0.3375  0.4295 -0.7114
  121MOL    O3736277   6.234   6.520   3.326 -0.5021 -0.1758 -0.2189
  121MOL    C3836278   6.257   6.424   3.426  0.4715 -0.3127 -0.4577
  121MOL    H3936279   5.929   6.560   3.082  1.6182 -0.7925 -0.4613
  121MOL    H4036280   5.951   6.651   3.229  0.5879 -0.6203  0.2616
  121MOL    H4136281   6.173   6.796   3.267  0.4534  2.6447 -0.5589
  121MOL    H4236282   6.319   6.734   3.219  0.7110 -2.6416 -1.0888
  121MOL    H4336283   6.225   6.831   3.111 -1.3187 -0.5649 -1.4159
  121MOL    H4436284   6.321   6.341   3.397 -1.4039 -2.1243  0.4164
  121MOL    H4536285   6.168   6.409   3.488  0.7280 -1.2501 -0.3001
  121MOL    H4636286   6.310   6.473   3.508 -1.8252 -1.3061  1.7296
  121MOL    C4736287   6.176   6.576   2.977  0.4545 -0.0463  0.4838
  121MOL    C4836288   6.321   6.563   2.922 -0.0098  0.3487 -0.3141
  121MOL    C4936289   6.295   6.508   2.775  0.9147 -0.5192 -0.2094
  121MOL    C5036290   6.381   6.700   2.917 -0.4398 -0.4305  0.4207
  121MOL    O5136291   6.484   6.744   2.968 -0.2303  0.2768 -0.6700
  121MOL    O5236292   6.313   6.773   2.835  0.1508  0.3516 -0.3284
  121MOL    C5336293   6.344   6.906   2.822  0.0627  0.6511 -0.9922
  121MOL    H5436294   6.119   6.636   2.906 -0.3552 -2.3317 -0.8567
  121MOL    H5536295   6.125   6.480   2.964 -0.8784  0.9270 -1.7642
  121MOL    H5636296   6.254   6.407   2.776  0.6291 -0.4107 -0.8943
  121MOL    H5736297   6.240   6.578   2.713  1.1835  0.5272  0.7069
  121MOL    H5836298   6.391   6.494   2.725  1.0460 -2.0269  0.4423
  121MOL    H5936299   6.443   6.920   2.779  0.8517 -0.0641  0.5735
  121MOL    H6036300   6.342   6.954   2.920  1.9760 -1.4226  0.1115
  121MOL    H6136301   6.269   6.943   2.753 -0.8001 -0.3009 -0.5767
  121MOL    C6236302   6.411   6.468   3.019 -0.0741 -0.0586 -0.1089
  121MOL    C6336303   6.545   6.402   2.972  1.1261  0.1607 -0.5321
  121MOL    C6436304   6.649   6.507   2.916 -0.5984 -0.1952  0.8970
  121MOL    C6536305   6.607   6.364   3.113 -0.2666 -0.7147  0.3232
  121MOL    O6636306   6.717   6.405   3.153  0.2642 -0.0742  0.3368
  121MOL    O6736307   6.530   6.267   3.169  0.4443 -0.5101 -0.4064
  121MOL    C6836308   6.563   6.223   3.299  0.5478  0.0029  0.2763
  121MOL    H6936309   6.340   6.387   3.035  0.5896 -0.5597  0.3256
  121MOL    H7036310   6.409   6.524   3.113 -1.5227 -0.5735  0.1831
  121MOL    H7136311   6.605   6.555   2.829 -0.6442 -0.8602  0.5458
  121MOL    H7236312   6.671   6.580   2.993  1.9183 -0.4989  0.5072
  121MOL    H7336313   6.742   6.462   2.881 -1.0440 -0.0774 -0.4670
  121MOL    H7436314   6.642   6.147   3.303  2.4071  1.9567  1.7708
  121MOL    H7536315   6.473   6.183   3.344  1.0350 -0.2580  1.0318
  121MOL    H7636316   6.598   6.310   3.354  1.5422  0.5529 -1.2098
  121MOL    C7736317   6.521   6.279   2.863  0.3943  0.5511  0.0923
  121MOL    C7836318   6.612   6.151   2.854 -0.2223 -0.6079 -0.1176
  121MOL    C7936319   6.762   6.191   2.858 -0.2518 -0.0696  0.0885
  121MOL    C8036320   6.572   6.053   2.964  0.9525  0.6304 -0.1678
  121MOL    O8136321   6.648   6.017   3.055  0.2876 -1.7294 -0.8558
  121MOL    O8236322   6.450   5.999   2.945 -0.5521  0.2120 -0.6098
  121MOL    C8336323   6.391   5.917   3.048 -0.0963 -0.4216  0.1874
  121MOL    H8436324   6.519   6.322   2.763 -2.3922  0.8257  0.2435
  121MOL    H8536325   6.419   6.245   2.878  1.1736 -1.7719  0.3078
  121MOL    H8636326   6.823   6.102   2.862 -2.9534 -1.9413  1.3692
  121MOL    H8736327   6.806   6.248   2.776  0.8462 -0.0609  0.6786
  121MOL    H8836328   6.785   6.241   2.952  1.1802  1.0325 -0.8282
  121MOL    H8936329   6.323   5.975   3.110  0.1188 -1.2024  1.1639
  121MOL    H9036330   6.472   5.870   3.104  1.0258  0.9432 -0.2722
  121MOL    H9136331   6.338   5.837   2.995 -0.5024  1.6771 -2.6843
  121MOL    C9236332   6.590   6.092   2.706 -0.5450  0.3184 -0.0206
  121MOL    C9336333   6.680   5.978   2.639  0.4745  0.3300 -0.5237
  121MOL    C9436334   6.716   5.858   2.735 -0.4818 -0.5406 -0.4187
  121MOL    C9536335   6.596   5.919   2.526 -0.2440 -0.1834  0.2828
  121MOL    O9636336   6.597   5.798   2.508 -0.3845 -0.0809  0.4734
  121MOL    O9736337   6.548   6.010   2.437 -0.2587 -0.2035 -0.1388
  121MOL    C9836338   6.471   5.960   2.330 -0.0974 -0.1772  0.0868
  121MOL    H9936339   6.605   6.174   2.636 -1.8667  0.5419 -0.0564
  121MOL   H10036340   6.483   6.075   2.698 -0.3502 -1.4063  0.7204
  121MOL   H10136341   6.619   5.831   2.778  0.1832 -1.1024  0.7524
  121MOL   H10236342   6.764   5.776   2.682 -0.1859  0.5553 -1.8773
  121MOL   H10336343   6.776   5.893   2.819  0.7222 -1.5045 -0.8695
  121MOL   H10436344   6.437   6.042   2.266 -1.7609 -0.4013  0.6539
  121MOL   H10536345   6.390   5.900   2.371 -0.4774  1.9758  2.5979
  121MOL   H10636346   6.527   5.906   2.253  1.8385  1.8712  0.0133
  121MOL   C10736347   6.801   6.050   2.566 -0.2218  0.6900 -0.0431
  121MOL   C10836348   6.935   5.987   2.510 -0.3239  0.3617  0.1510
  121MOL   C10936349   7.004   6.119   2.452  0.6527  0.0450  0.0344
  121MOL   C11036350   7.012   5.941   2.636 -0.3024 -0.5188 -0.0057
  121MOL   O11136351   7.082   6.020   2.707 -0.2075 -0.1713 -0.3261
  121MOL   O11236352   6.986   5.812   2.666  0.2183 -0.1672 -0.1888
  121MOL   C11336353   7.059   5.750   2.773  0.6646 -0.4384 -0.4780
  121MOL   H11436354   6.834   6.130   2.633  4.9394 -0.7528 -0.6137
  121MOL   H11536355   6.762   6.101   2.479  0.5276  0.0456 -0.7639
  121MOL   H11636356   7.107   6.096   2.423  0.1580 -1.1268 -0.8786
  121MOL   H11736357   6.940   6.162   2.374  0.8106  2.0293  0.9704
  121MOL   H11836358   7.009   6.195   2.529  0.2516  1.2495 -1.0946
  121MOL   H11936359   7.159   5.742   2.731  1.2428  3.0178  0.0523
  121MOL   H12036360   7.018   5.650   2.783 -1.5743  0.5110  0.1943
  121MOL   H12136361   7.052   5.808   2.865 -3.5428 -0.8784 -0.4451
  121MOL   C12236362   6.915   5.874   2.397 -0.1039 -0.4317 -0.8002
  121MOL   C12336363   7.026   5.848   2.291  0.1176 -0.1091 -0.0374
  121MOL   C12436364   7.040   5.963   2.186  0.1075  0.3565  0.0150
  121MOL   C12536365   7.160   5.827   2.365  0.2878  0.6582 -0.3639
  121MOL   O12636366   7.252   5.910   2.348  0.0108  0.0460  0.0289
  121MOL   O12736367   7.151   5.720   2.451 -0.3336  0.1892  0.0949
  121MOL   C12836368   7.270   5.670   2.516 -0.0687 -0.0770  0.0034
  121MOL   H12936369   6.820   5.891   2.347 -0.9797 -2.4805  0.1432
  121MOL   H13036370   6.908   5.781   2.452 -0.9896  1.7125  2.9162
  121MOL   H13136371   6.947   6.006   2.148  0.3869  1.6669  0.7931
  121MOL   H13236372   7.109   6.044   2.209  0.8720 -1.3992  4.2412
  121MOL   H13336373   7.087   5.925   2.095 -0.4947  1.8593 -0.9374
  121MOL   H13436374   7.332   5.750   2.558 -0.1484  0.8439 -1.6134
  121MOL   H13536375   7.334   5.617   2.446 -0.0780  1.5432 -1.2746
  121MOL   H13636376   7.253   5.608   2.604  2.0243  1.3867  1.5248
  121MOL   C13736377   7.002   5.712   2.214 -1.0440 -0.8345 -0.0049
  121MOL   C13836378   6.879   5.677   2.118  0.3543  0.7884 -0.0078
  121MOL   C13936379   6.835   5.794   2.024 -0.0194  0.5134  0.4558
  121MOL   C14036380   6.927   5.560   2.033 -0.3798 -0.6881 -0.0933
  121MOL   O14136381   6.909   5.554   1.912 -0.3279 -0.0945 -0.4716
  121MOL   O14236382   7.003   5.468   2.088 -0.0378 -0.0146  0.2996
  121MOL   C14336383   7.067   5.361   2.022  0.4158 -0.3664 -0.2448
  121MOL   H14436384   7.011   5.632   2.287  1.6763 -1.5744 -1.0870
  121MOL   H14536385   7.091   5.697   2.153 -0.6896 -2.0434  0.7868
  121MOL   H14636386   6.762   5.760   1.951 -1.5306 -1.0848  2.6211
  121MOL   H14736387   6.797   5.880   2.079 -1.0412 -0.3599  1.1279
  121MOL   H14836388   6.920   5.836   1.970 -1.0064  1.8245 -0.0917
  121MOL   H14936389   7.034   5.350   1.918 -0.7595  0.2598  0.0613
  121MOL   H15036390   7.056   5.270   2.081  0.7303 -0.8208 -0.8663
  121MOL   H15136391   7.175   5.373   2.015  0.4743 -1.5832 -1.9953
  121MOL   C15236392   6.756   5.636   2.204  0.3148  0.3589  0.1440
  121MOL   C15336393   6.650   5.530   2.168  0.3576 -0.2338 -0.3047
  121MOL   C15436394   6.595   5.563   2.029 -0.0820 -0.5807  0.1040
  121MOL   C15536395   6.701   5.383   2.177 -0.2869 -0.5055 -0.2696
  121MOL   O15636396   6.699   5.308   2.080  0.3497  0.2253  0.0189
  121MOL   O15736397   6.741   5.352   2.300 -0.6049  0.5676 -0.5561
  121MOL   C15836398   6.796   5.223   2.324  0.2070  0.0219  0.8272
  121MOL   H15936399   6.715   5.727   2.246 -1.2105  0.9089 -2.4628
  121MOL   H16036400   6.794   5.601   2.301 -1.6829  0.8920  1.1525
  121MOL   H16136401   6.677   5.563   1.958  1.0794  1.4424  1.3945
  121MOL   H16236402   6.521   5.492   1.991 -0.3760 -1.1939  1.7714
  121MOL   H16336403   6.560   5.663   2.004 -0.4342 -1.1669 -1.8053
  121MOL   H16436404   6.719   5.150   2.298  0.6585 -1.4482  3.4840
  121MOL   H16536405   6.820   5.222   2.430  1.1706  1.8219  0.6501
  121MOL   H16636406   6.883   5.205   2.261  0.8764  0.3185  1.6699
  121MOL   C16736407   6.540   5.551   2.274 -0.0624  0.1351 -0.0951
  121MOL   C16836408   6.413   5.464   2.282 -0.0496 -0.0561 -0.4879
  121MOL   C16936409   6.354   5.535   2.409  0.2999  0.1879  0.1439
  121MOL   C17036410   6.323   5.489   2.154  0.1289 -0.4228  0.1999
  121MOL   O17136411   6.255   5.590   2.144  0.0872  0.6910  0.0855
  121MOL   O17236412   6.322   5.387   2.058 -0.6862 -0.5446 -0.0148
  121MOL   C17336413   6.224   5.389   1.960 -0.3245  0.1332  0.2192
  121MOL   H17436414   6.515   5.656   2.259  1.4479  0.8054  1.8018
  121MOL   H17536415   6.589   5.557   2.371 -0.7669 -0.7091  0.3145
  121MOL   H17636416   6.249   5.505   2.414  0.3888  0.0054  0.9377
  121MOL   H17736417   6.391   5.511   2.508  2.3737  0.0948 -0.6240
  121MOL   H17836418   6.351   5.644   2.413 -2.5577  0.1415  0.2803
  121MOL   H17936419   6.141   5.456   1.980 -0.7928 -0.1208 -0.8419
  121MOL   H18036420   6.190   5.288   1.934  1.4999  0.3669 -3.3083
  121MOL   H18136421   6.271   5.425   1.869  1.3643  1.2818  1.5295
  121MOL   C18236422   6.432   5.312   2.308  0.2122  0.2118 -0.6102
  121MOL   C18336423   6.319   5.213   2.354 -0.6889  0.4491  0.8821
  121MOL   C18436424   6.281   5.228   2.507 -0.1539 -0.6856  1.2374
  121MOL   C18536425   6.188   5.227   2.275  0.2155  0.4023 -0.3811
  121MOL   O18636426   6.154   5.170   2.170 -0.0747  0.1174 -0.1688
  121MOL   O18736427   6.102   5.313   2.332  0.2879 -0.0352 -0.5983
  121MOL   C18836428   5.973   5.331   2.276 -0.1593  0.1369 -0.4528
  121MOL   H18936429   6.517   5.299   2.376  0.1629  1.2908 -0.3321
  121MOL   H19036430   6.462   5.266   2.214  0.3126  0.4885 -0.7148
  121MOL   H19136431   6.374   5.201   2.557  0.7423  0.5753  0.2829
  121MOL   H19236432   6.251   5.326   2.544 -0.6007  0.4869 -2.1040
  121MOL   H19336433   6.203   5.156   2.530 -0.7625 -0.6888 -0.7748
  121MOL   H19436434   5.984   5.358   2.170 -1.7133  1.2552 -0.3342
  121MOL   H19536435   5.936   5.426   2.315 -1.2413 -0.1797 -0.6893
  121MOL   H19636436   5.895   5.256   2.284  1.4871 -1.7678 -1.6012
  121MOL   C19736437   6.368   5.068   2.322 -0.3521  0.3320 -0.1121
  121MOL   C19836438   6.324   4.939   2.395 -0.1844  0.1603  0.0921
  121MOL   C19936439   6.404   4.930   2.532  0.3263  0.0554  0.0882
  121MOL   C20036440   6.171   4.928   2.416  0.2513  0.0368 -0.9708
  121MOL   O20136441   6.125   4.943   2.533 -0.0695 -0.2349  0.0389
  121MOL   O20236442   6.102   4.910   2.308 -0.0591  0.5493 -0.0104
  121MOL   C20336443   5.968   4.895   2.321  0.2111 -0.0440 -0.1366
  121MOL   H20436444   6.477   5.074   2.320 -0.2063 -1.9895 -0.6635
  121MOL   H20536445   6.354   5.048   2.215 -2.8927 -1.3812  0.5002
  121MOL   H20636446   6.414   4.827   2.567  1.8785  0.6719  1.5350
  121MOL   H20736447   6.499   4.982   2.520  1.4511 -1.0857  3.4246
  121MOL   H20836448   6.356   4.993   2.607 -2.4540 -0.0227 -1.5629
  121MOL   H20936449   5.915   4.907   2.227  3.1823  2.3285 -1.6023
  121MOL   H21036450   5.933   4.985   2.371 -1.1182  0.6200 -2.2228
  121MOL   H21136451   5.920   4.804   2.358 -0.7667  0.2912 -0.5881
  121MOL   C21236452   6.372   4.809   2.312  0.1357  0.4627  0.5806
  121MOL   C21336453   6.518   4.772   2.267 -0.5020 -0.1446 -0.0347
  121MOL   C21436454   6.546   4.868   2.154 -0.1011  0.1462  0.0972
  121MOL   C21536455   6.633   4.789   2.379 -0.4201  0.1058  0.4328
  121MOL   O21636456   6.718   4.879   2.370 -0.2150 -0.2394 -0.2116
  121MOL   O21736457   6.624   4.708   2.487  0.4632  0.2287  0.0621
  121MOL   C21836458   6.722   4.715   2.587  0.4152  0.7050  0.6533
  121MOL   H21936459   6.310   4.808   2.223  0.6874 -1.6862  0.2057
  121MOL   H22036460   6.337   4.726   2.374  0.1732 -0.0985 -0.1536
  121MOL   H22136461   6.635   4.830   2.105 -0.1863  0.5438 -0.3652
  121MOL   H22236462   6.467   4.883   2.080  0.6255  0.7522 -0.5562
  121MOL   H22336463   6.590   4.964   2.180 -1.2835  1.1407 -1.4900
  121MOL   H22436464   6.687   4.657   2.672  1.2538  0.4794  0.8475
  121MOL   H22536465   6.748   4.810   2.632  1.2433  1.4154 -1.2927
  121MOL   H22636466   6.805   4.659   2.544  1.2803  2.5983 -0.1595
  121MOL   C22736467   6.512   4.619   2.232  0.0538  0.4401 -0.2300
  121MOL   C22836468   6.608   4.538   2.132 -0.2228  0.4798 -0.4686
  121MOL   C22936469   6.542   4.551   1.990 -0.0629  0.1047 -0.6710
  121MOL   C23036470   6.749   4.595   2.134 -0.8861 -0.0001 -0.2625
  121MOL   O23136471   6.801   4.636   2.031  0.7002  0.2678 -0.0204
  121MOL   O23236472   6.806   4.586   2.250  0.5285  0.2178  0.7849
  121MOL   C23336473   6.934   4.645   2.269 -0.5939  0.1485  0.4608
  121MOL   H23436474   6.413   4.609   2.188  0.0260 -2.7139  0.4151
  121MOL   H23536475   6.493   4.559   2.321 -3.0718  1.4998 -0.1239
  121MOL   H23636476   6.445   4.503   1.992 -0.4433  0.8891  3.0536
  121MOL   H23736477   6.531   4.656   1.962 -0.7911 -0.2843 -1.8591
  121MOL   H23836478   6.598   4.494   1.915  0.9776 -2.7847  2.1807
  121MOL   H23936479   6.930   4.748   2.236 -0.6943 -0.5626 -1.8289
  121MOL   H24036480   7.004   4.604   2.197 -0.0560  2.7564 -0.5583
  121MOL   H24136481   6.974   4.625   2.369  1.5733 -0.2232 -0.4612
  121MOL   C24236482   6.598   4.391   2.185  0.2608  0.1665 -0.3261
  121MOL   C24336483   6.631   4.263   2.105 -0.0124 -0.0813 -0.1433
  121MOL   C24436484   6.510   4.215   2.018 -0.0125 -0.4148 -0.0801
  121MOL   C24536485   6.751   4.286   2.017  0.3896  0.4876  0.0159
  121MOL   O24636486   6.745   4.284   1.893  0.3069  0.0130 -0.0175
  121MOL   O24736487   6.863   4.328   2.081 -0.6125  0.0641 -0.3500
  121MOL   C24836488   6.985   4.326   2.022 -0.2406  0.6594 -0.0429
  121MOL   H24936489   6.495   4.369   2.213  0.6657 -0.8439  0.4183
  121MOL   H25036490   6.642   4.383   2.284  0.1600  0.8220 -0.2266
  121MOL   H25136491   6.430   4.171   2.076 -0.3680  0.8676  0.4256
  121MOL   H25236492   6.466   4.296   1.959 -1.6410 -0.7396  0.6820
  121MOL   H25336493   6.531   4.137   1.945  2.4962 -0.7146  0.9128
  121MOL   H25436494   6.988   4.394   1.937  1.3152 -0.1182 -0.6443
  121MOL   H25536495   7.017   4.229   1.985  0.4388  0.4180  1.1510
  121MOL   H25636496   7.052   4.357   2.103  0.3938 -1.5865  0.3152
  121MOL   C25736497   6.672   4.149   2.211 -0.1352 -0.1446  0.4526
  121MOL   C25836498   6.704   3.994   2.173  0.0242  0.0177  0.2161
  121MOL   C25936499   6.750   3.919   2.305 -0.6595 -0.3201  0.0437
  121MOL   C26036500   6.572   3.924   2.128 -0.9734  0.2637  0.6195
  121MOL   O26136501   6.562   3.885   2.009  0.4371 -0.1841  0.2516
  121MOL   O26236502   6.483   3.905   2.230  0.1146 -0.3586  0.2107
  121MOL   C26336503   6.359   3.843   2.201 -0.3224  0.0862  0.3250
  121MOL   H26436504   6.593   4.145   2.287 -0.4352  1.2324  0.2137
  121MOL   H26536505   6.761   4.186   2.261 -0.3109  4.0067 -2.1166
  121MOL   H26636506   6.685   3.941   2.390  0.0070 -1.4665  0.8809
  121MOL   H26736507   6.755   3.811   2.292  1.2670 -0.0696 -1.3811
  121MOL   H26836508   6.848   3.951   2.339 -0.9891  0.9499 -0.1910
  121MOL   H26936509   6.312   3.806   2.292 -0.6308 -1.1051 -0.3125
  121MOL   H27036510   6.367   3.771   2.120  0.1819  1.4043 -0.8216
  121MOL   H27136511   6.291   3.915   2.156 -2.5038 -1.0510  1.7499
  121MOL   C27236512   6.812   3.981   2.062 -0.0473  0.0063  0.7393
  121MOL   C27336513   6.922   3.869   2.043 -0.4885  0.2845 -0.4963
  121MOL   C27436514   7.046   3.884   2.143  0.1681  0.6251 -0.9770
  121MOL   C27536515   6.859   3.724   2.060 -0.5308 -0.2658  0.0984
  121MOL   O27636516   6.888   3.647   2.152  0.5110 -0.1156  0.1454
  121MOL   O27736517   6.767   3.695   1.966  0.0493  0.0357  0.1461
  121MOL   C27836518   6.707   3.567   1.975 -0.0973 -0.0274  0.6909
  121MOL   H27936519   6.882   4.062   2.083 -0.2401  0.5122 -0.5183
  121MOL   H28036520   6.755   4.006   1.973 -3.2806 -0.3197  2.6463
  121MOL   H28136521   7.115   3.967   2.132  1.5307 -0.5743 -1.6593
  121MOL   H28236522   7.014   3.884   2.247  1.3637  2.9711 -0.5644
  121MOL   H28336523   7.102   3.791   2.140  2.3491  1.7908  1.3295
  121MOL   H28436524   6.790   3.496   1.980 -0.1484 -0.2493 -1.2885
  121MOL   H28536525   6.648   3.544   1.886 -1.5340  0.0348  1.6069
  121MOL   H28636526   6.639   3.556   2.060  0.3523  0.8259  1.1674
  121MOL   C28736527   6.985   3.886   1.898 -0.3891 -0.5593  0.2475
  121MOL   C28836528   7.065   3.767   1.827 -0.0665 -0.9888 -0.3561
  121MOL   C28936529   7.070   3.793   1.680  0.1399 -0.0688  0.6245
  121MOL   C29036530   7.211   3.760   1.883 -0.3816  0.3706 -0.0784
  121MOL   O29136531   7.256   3.662   1.932 -0.3479 -0.1042 -0.0480
  121MOL   O29236532   7.274   3.875   1.886 -0.1755  0.1179  0.0371
  121MOL   C29336533   7.400   3.890   1.934  0.2480 -0.5037 -0.5307
  121MOL   H29436534   7.047   3.975   1.890 -3.1520  1.4248  0.5424
  121MOL   H29536535   6.900   3.900   1.831  0.0695 -2.9834 -0.9365
  121MOL   H29636536   7.111   3.712   1.619  0.5904  0.8514 -0.3100
  121MOL   H29736537   6.978   3.821   1.629  1.0539 -0.1236 -1.0690
  121MOL   H29836538   7.127   3.886   1.676  1.2987 -0.7982 -0.3079
  121MOL   H29936539   7.466   3.811   1.899  2.9758  1.6112 -0.3515
  121MOL   H30036540   7.395   3.898   2.043 -0.9075 -1.7999 -0.4679
  121MOL   H30136541   7.434   3.987   1.897 -0.7846  0.4552  0.9804
  121MOL   H30236542   7.007   3.678   1.852 -0.2079 -0.7706  0.1099
  122MOL     C136543   6.705   1.429   4.909  0.2414  0.1245 -0.0306
  122MOL     C236544   6.609   1.547   4.943  1.1580  0.0435  0.5708
  122MOL     C336545   6.690   1.656   5.019  0.7042  0.2902  0.0227
  122MOL     C436546   6.554   1.605   4.809  0.9902  0.7377  0.2739
  122MOL     O536547   6.607   1.589   4.696 -0.8657 -0.6025 -0.0321
  122MOL     O636548   6.457   1.700   4.827 -0.5789 -0.2720 -0.0761
  122MOL     C736549   6.395   1.769   4.719  0.0351  0.8462  0.1544
  122MOL     H836550   6.792   1.453   4.847  0.7243 -0.9127  0.2356
  122MOL     H936551   6.743   1.391   5.004  0.1453  0.1652  0.0245
  122MOL    H1036552   6.745   1.625   5.108 -0.4999  0.9472  1.0017
  122MOL    H1136553   6.758   1.697   4.944  0.2795  0.2894 -0.3652
  122MOL    H1236554   6.613   1.727   5.048  0.2053 -0.6094  0.9669
  122MOL    H1336555   6.388   1.707   4.630 -2.2986  1.2228  0.0575
  122MOL    H1436556   6.446   1.862   4.692  0.0760  0.1344 -2.3660
  122MOL    H1536557   6.294   1.795   4.750 -0.9691 -1.3800 -1.1630
  122MOL    H1636558   6.659   1.343   4.861 -0.0592 -0.4447  1.2605
  122MOL    C1736559   6.489   1.503   5.038  0.2527  0.0635 -0.1938
  122MOL    C1836560   6.393   1.376   5.012  0.3234  0.8140  0.4027
  122MOL    C1936561   6.356   1.363   4.862 -0.3265  1.0615  0.9837
  122MOL    C2036562   6.471   1.245   5.044 -0.0641 -0.0737  0.3012
  122MOL    O2136563   6.567   1.243   5.116 -0.2886 -0.2009 -0.1252
  122MOL    O2236564   6.410   1.134   5.001 -0.0163 -0.3835  0.1358
  122MOL    C2336565   6.476   1.015   5.031  0.6542 -0.2348  0.9205
  122MOL    H2436566   6.422   1.587   5.055  1.6616  0.8185  1.9568
  122MOL    H2536567   6.545   1.487   5.130  0.6758 -0.2330 -0.5049
  122MOL    H2636568   6.275   1.293   4.843  1.5498 -1.5097  2.1416
  122MOL    H2736569   6.316   1.452   4.815  0.3585  1.7461  1.6869
  122MOL    H2836570   6.441   1.332   4.800 -1.2454 -1.9590  1.1721
  122MOL    H2936571   6.578   1.007   4.993 -0.1131 -0.6600 -1.1498
  122MOL    H3036572   6.405   0.938   4.997 -0.8076  1.1284  0.8319
  122MOL    H3136573   6.474   1.001   5.139 -0.7209  1.1572  1.0867
  122MOL    C3236574   6.255   1.381   5.097  0.3552 -0.0847 -0.0324
  122MOL    C3336575   6.234   1.376   5.252  0.3403 -0.0435 -0.6037
  122MOL    C3436576   6.355   1.440   5.324 -0.0504  0.5340 -0.3233
  122MOL    C3536577   6.112   1.469   5.284 -0.3270 -0.3504 -0.2140
  122MOL    O3636578   6.130   1.572   5.349  0.1030  0.5551 -0.2027
  122MOL    O3736579   6.000   1.427   5.222 -0.1584 -0.9085 -0.6726
  122MOL    C3836580   5.880   1.495   5.270 -0.0304 -0.2976  1.1380
  122MOL    H3936581   6.201   1.293   5.062 -0.3469  0.1550  0.4178
  122MOL    H4036582   6.198   1.467   5.061  0.4575 -0.8599 -2.1350
  122MOL    H4136583   6.443   1.377   5.325 -1.1855 -1.0821  0.2915
  122MOL    H4236584   6.392   1.530   5.275  1.3807  0.3011  0.3080
  122MOL    H4336585   6.353   1.465   5.430 -2.1945  1.1687 -0.4898
  122MOL    H4436586   5.862   1.461   5.372  0.3636  0.7059  1.5495
  122MOL    H4536587   5.796   1.455   5.214 -0.0349 -1.4501  1.9476
  122MOL    H4636588   5.891   1.603   5.270 -1.5312 -0.1190 -0.7561
  122MOL    C4736589   6.215   1.223   5.301 -0.3198 -0.0197 -0.5152
  122MOL    C4836590   6.184   1.160   5.445  0.1884  0.3192  0.1311
  122MOL    C4936591   6.294   1.215   5.536 -0.4278  0.2768 -0.2946
  122MOL    C5036592   6.043   1.199   5.504  0.0852 -0.5750  0.9417
  122MOL    O5136593   5.952   1.238   5.427 -0.1106 -0.0337 -0.2025
  122MOL    O5236594   6.036   1.180   5.637 -0.2952  0.4448 -0.6134
  122MOL    C5336595   5.924   1.226   5.710 -0.0341  0.3625  0.5170
  122MOL    H5436596   6.305   1.181   5.257  0.9615  0.3384  1.7046
  122MOL    H5536597   6.138   1.200   5.227 -1.3377 -0.0126  0.5339
  122MOL    H5636598   6.393   1.206   5.492 -0.1469  0.0559  0.3726
  122MOL    H5736599   6.282   1.318   5.568  1.3694  0.2024  0.7194
  122MOL    H5836600   6.296   1.169   5.635  2.1174  0.0389 -0.4317
  122MOL    H5936601   5.894   1.326   5.678  1.5118  0.6982  0.0936
  122MOL    H6036602   5.943   1.235   5.817 -2.4572 -1.7456  1.1890
  122MOL    H6136603   5.843   1.153   5.706  0.1951  0.2047 -2.1049
  122MOL    C6236604   6.197   1.002   5.441  0.1632  0.2065 -0.9096
  122MOL    C6336605   6.111   0.898   5.356  1.0732 -0.0422  0.2010
  122MOL    C6436606   5.960   0.920   5.391  0.1671 -0.0684 -0.1380
  122MOL    C6536607   6.112   0.912   5.203  0.3349 -0.8132  0.5603
  122MOL    O6636608   6.195   0.981   5.145  0.0488  0.3017  0.2779
  122MOL    O6736609   6.020   0.832   5.147 -0.8484 -0.8867  0.1769
  122MOL    C6836610   6.004   0.809   5.009  0.8177  0.0574  0.2350
  122MOL    H6936611   6.195   0.958   5.541  0.6208  1.3607 -0.3712
  122MOL    H7036612   6.299   0.996   5.402  1.1244 -0.0539  1.4916
  122MOL    H7136613   5.890   0.844   5.357 -0.4159  0.5149 -0.2385
  122MOL    H7236614   5.948   0.916   5.499  0.3266  0.5978 -0.0946
  122MOL    H7336615   5.931   1.010   5.338  0.3680  0.3809  0.5131
  122MOL    H7436616   6.070   0.725   4.989 -0.9303 -0.9591 -1.4553
  122MOL    H7536617   6.038   0.895   4.952  2.8440 -1.5017 -0.9469
  122MOL    H7636618   5.904   0.773   4.984  1.1143  0.0756 -1.0242
  122MOL    C7736619   6.148   0.753   5.402 -0.0513 -0.0982 -0.1955
  122MOL    C7836620   6.276   0.675   5.367 -0.5251 -0.3061 -0.7622
  122MOL    C7936621   6.283   0.645   5.217  0.0544 -0.3637 -0.6273
  122MOL    C8036622   6.398   0.762   5.411  0.0975  0.1309 -0.2537
  122MOL    O8136623   6.487   0.810   5.336 -0.7747 -0.4075 -0.3869
  122MOL    O8236624   6.396   0.797   5.540 -0.2642  0.4596  0.3117
  122MOL    C8336625   6.493   0.879   5.594  0.9046 -0.2763  0.1826
  122MOL    H8436626   6.068   0.686   5.371  1.2167 -1.5928 -0.2375
  122MOL    H8536627   6.136   0.746   5.510 -1.0946  1.6138 -0.1756
  122MOL    H8636628   6.185   0.602   5.197  0.0329 -0.7082  0.1633
  122MOL    H8736629   6.299   0.738   5.164 -0.4992  0.4881  0.6629
  122MOL    H8836630   6.371   0.583   5.199 -0.1141 -0.5151 -0.9230
  122MOL    H8936631   6.589   0.829   5.598  1.5235  0.8222 -0.7621
  122MOL    H9036632   6.477   0.910   5.697  0.6000  0.7677 -0.1720
  122MOL    H9136633   6.511   0.966   5.530  1.6475 -0.2091  0.4825
  122MOL    C9236634   6.272   0.545   5.453  1.0523 -0.3533 -0.2279
  122MOL    C9336635   6.338   0.408   5.417 -0.1320  0.1022 -0.4625
  122MOL    C9436636   6.260   0.333   5.297  0.4571  0.6198  0.5002
  122MOL    C9536637   6.481   0.408   5.371 -0.9166  0.1246  0.2926
  122MOL    O9636638   6.554   0.507   5.391  0.0135  0.0575 -0.1339
  122MOL    O9736639   6.528   0.302   5.300 -0.1411 -0.7730  0.0209
  122MOL    C9836640   6.659   0.301   5.260  0.0223 -0.0303 -0.6726
  122MOL    H9936641   6.166   0.519   5.458  0.7231  0.5556 -2.0386
  122MOL   H10036642   6.288   0.582   5.554 -0.7246  1.3049 -0.5277
  122MOL   H10136643   6.286   0.227   5.290 -1.6772 -0.1451  3.2753
  122MOL   H10236644   6.154   0.355   5.302  0.1754 -0.5495 -0.0557
  122MOL   H10336645   6.300   0.379   5.206  1.5508 -1.7648 -0.2815
  122MOL   H10436646   6.722   0.272   5.344  0.2129 -2.0580 -1.4856
  122MOL   H10536647   6.681   0.396   5.213  1.1497  1.0170  1.9118
  122MOL   H10636648   6.694   0.227   5.188 -0.0786 -0.7507  0.0104
  122MOL   C10736649   6.326   0.307   5.530 -0.7547 -0.6415 -0.0949
  122MOL   C10836650   6.363   0.346   5.681 -0.5193 -0.3155 -1.2294
  122MOL   C10936651   6.489   0.438   5.683 -0.0448 -0.3817 -0.3911
  122MOL   C11036652   6.252   0.419   5.760  0.7233  0.0054 -0.0678
  122MOL   O11136653   6.145   0.444   5.706 -0.0792 -0.0629  0.0467
  122MOL   O11236654   6.290   0.457   5.885  0.7517 -0.9420  0.3446
  122MOL   C11336655   6.194   0.517   5.971 -0.2398 -0.1780 -0.1026
  122MOL   H11436656   6.374   0.213   5.502  0.5719  0.0235 -0.1025
  122MOL   H11536657   6.222   0.277   5.540 -0.5878 -0.8433  1.1818
  122MOL   H11636658   6.563   0.389   5.620 -0.6561 -2.3806  0.4359
  122MOL   H11736659   6.486   0.539   5.642  1.0775 -1.2925 -2.7957
  122MOL   H11836660   6.534   0.446   5.782 -4.1479  0.6781  1.4838
  122MOL   H11936661   6.101   0.459   5.972  0.9282 -2.0952  1.0200
  122MOL   H12036662   6.170   0.613   5.926 -0.1800 -1.1316 -2.2365
  122MOL   H12136663   6.237   0.530   6.070  2.2568  0.9359 -1.3056
  122MOL   C12236664   6.391   0.214   5.755  0.0905  0.0153  0.5833
  122MOL   C12336665   6.303   0.086   5.749  0.6345 -0.5241 -0.5714
  122MOL   C12436666   6.308   0.028   5.901 -0.9927 -0.0044 -0.2380
  122MOL   C12536667   6.148   0.114   5.737  0.4197 -1.0129 -0.0616
  122MOL   O12636668   6.086   0.094   5.634 -0.1318  0.0517 -0.0508
  122MOL   O12736669   6.096   0.169   5.846  0.1052  0.5639  0.0416
  122MOL   C12836670   5.963   0.200   5.858  0.5918  0.4113 -0.0208
  122MOL   H12936671   6.421   0.233   5.858  0.7000 -0.8702  0.5790
  122MOL   H13036672   6.484   0.168   5.721 -1.1205 -2.1739  0.1925
  122MOL   H13136673   6.269   7.804   5.906 -0.0728 -0.3246  0.9490
  122MOL   H13236674   6.410   0.017   5.940 -0.6135 -0.7253 -1.4054
  122MOL   H13336675   6.272   0.089   5.984  1.1131 -0.5316  1.1300
  122MOL   H13436676   5.895   0.124   5.821  2.2243 -1.3171  0.4520
  122MOL   H13536677   5.921   0.280   5.797 -4.4488 -1.3067  0.9655
  122MOL   H13636678   5.944   0.227   5.962  1.4187  0.8508  0.0258
  122MOL   C13736679   6.340   7.860   5.638  0.3866 -0.6695  0.2466
  122MOL   C13836680   6.491   7.808   5.609  0.7436  0.3073 -0.6015
  122MOL   C13936681   6.566   0.028   5.517  0.3189 -0.3074 -0.1437
  122MOL   C14036682   6.574   7.811   5.746 -0.3481 -0.0277  0.0381
  122MOL   O14136683   6.664   0.009   5.769  0.3584 -0.3167 -0.2504
  122MOL   O14236684   6.538   7.714   5.832  0.2904 -0.4063  0.1405
  122MOL   C14336685   6.595   7.697   5.960  0.4990  0.3772 -0.0461
  122MOL   H14436686   6.307   0.011   5.538  1.4332  0.6766  0.2784
  122MOL   H14536687   6.286   7.769   5.665  1.0537  0.0933  4.5172
  122MOL   H14636688   6.671   7.878   5.510  0.3877 -0.3538  0.9339
  122MOL   H14736689   6.529   0.026   5.415 -1.3929 -0.3330  0.4634
  122MOL   H14836690   6.565   0.134   5.541 -0.5663  0.2171 -2.3686
  122MOL   H14936691   6.692   7.651   5.941 -0.9669 -2.1034 -1.7656
  122MOL   H15036692   6.546   7.628   6.029 -3.6413  1.8646 -1.4068
  122MOL   H15136693   6.619   7.788   6.015 -1.4179  1.2718 -0.6774
  122MOL   C15236694   6.500   7.664   5.553 -0.4915 -0.5974  0.2335
  122MOL   C15336695   6.472   7.614   5.407  0.4461  0.3088  1.0675
  122MOL   C15436696   6.362   7.696   5.339  0.0538 -0.4583  1.1374
  122MOL   C15536697   6.603   7.631   5.323 -0.3950 -0.4635 -0.1654
  122MOL   O15636698   6.605   7.686   5.210 -0.2173  0.2398  0.0333
  122MOL   O15736699   6.712   7.566   5.373  0.0781  0.2254  0.3030
  122MOL   C15836700   6.819   7.536   5.281  0.2412 -1.1245  0.4155
  122MOL   H15936701   6.427   7.607   5.611 -1.6199 -0.9535 -1.5245
  122MOL   H16036702   6.596   7.621   5.583 -0.3009 -1.4803 -1.5674
  122MOL   H16136703   6.271   7.701   5.398  0.4049 -1.8231  1.7957
  122MOL   H16236704   6.381   7.801   5.314 -2.2455 -0.6015 -1.3902
  122MOL   H16336705   6.333   7.650   5.245  2.8344  1.5886 -0.8013
  122MOL   H16436706   6.905   7.488   5.328  0.2211 -0.7954  0.7927
  122MOL   H16536707   6.859   7.634   5.255 -0.6417 -1.4445 -2.3393
  122MOL   H16636708   6.777   7.479   5.198  0.1169  0.8530 -0.9100
  122MOL   C16736709   6.430   7.458   5.398  0.8804 -0.0806  1.1100
  122MOL   C16836710   6.348   7.375   5.516 -0.1960 -0.0255 -0.0312
  122MOL   C16936711   6.453   7.353   5.632  0.5886 -0.1952  0.3196
  122MOL   C17036712   6.222   7.444   5.556  0.4297 -0.3163  0.1182
  122MOL   O17136713   6.197   7.489   5.667  0.4129 -0.0824 -0.2291
  122MOL   O17236714   6.133   7.459   5.455 -0.0748  0.0303 -0.2648
  122MOL   C17336715   6.014   7.532   5.469  0.3429 -0.0911 -0.3276
  122MOL   H17436716   6.521   7.403   5.378 -0.1587 -0.8992 -1.6022
  122MOL   H17536717   6.384   7.450   5.299 -0.5837  3.9752  1.3326
  122MOL   H17636718   6.556   7.367   5.599  0.2121 -0.1667 -0.8640
  122MOL   H17736719   6.433   7.421   5.715 -2.9046 -0.5309 -0.1576
  122MOL   H17836720   6.462   7.254   5.676  2.6491 -0.6847 -1.1444
  122MOL   H17936721   6.048   7.628   5.510 -0.6635 -0.1258  0.5910
  122MOL   H18036722   5.943   7.480   5.533  1.7935  1.0615  2.3016
  122MOL   H18136723   5.962   7.550   5.375  1.7316  1.0264 -0.9022
  122MOL   C18236724   6.326   7.230   5.457 -0.2452 -0.4559  0.3103
  122MOL   C18336725   6.218   7.129   5.503 -0.0322  0.1262 -0.0370
  122MOL   C18436726   6.215   7.126   5.662 -0.3668 -0.1496  0.1209
  122MOL   C18536727   6.079   7.165   5.438  0.0348  0.1424 -0.1675
  122MOL   O18636728   6.060   7.153   5.318 -0.2800 -0.0260  0.2723
  122MOL   O18736729   5.990   7.213   5.523  0.5109 -0.5725 -0.2005
  122MOL   C18836730   5.860   7.237   5.476  0.3202 -0.3361  0.4509
  122MOL   H18936731   6.423   7.181   5.451 -0.4292 -0.5664 -2.6396
  122MOL   H19036732   6.315   7.253   5.351 -0.5527  2.4462  0.9219
  122MOL   H19136733   6.126   7.074   5.697 -0.6014  0.4162  0.3712
  122MOL   H19236734   6.297   7.075   5.712 -1.8160 -1.2146  1.4595
  122MOL   H19336735   6.204   7.226   5.706 -1.9092  0.3788 -1.4298
  122MOL   H19436736   5.870   7.310   5.396 -0.4465 -1.2069 -0.4562
  122MOL   H19536737   5.793   7.276   5.551  0.9112 -1.7705  1.7507
  122MOL   H19636738   5.827   7.144   5.428  0.3332  0.4875 -1.2043
  122MOL   C19736739   6.263   6.983   5.452 -0.2784  0.9307 -0.3350
  122MOL   C19836740   6.184   6.851   5.441  0.1508  0.2006 -0.4038
  122MOL   C19936741   6.099   6.836   5.569 -0.2355  0.6398  0.3003
  122MOL   C20036742   6.094   6.854   5.317 -0.5990  0.1309 -0.6712
  122MOL   O20136743   5.976   6.827   5.325  0.5214  0.3526  0.2544
  122MOL   O20236744   6.155   6.883   5.200 -0.2403 -0.3866 -0.2968
  122MOL   C20336745   6.084   6.889   5.073 -0.1433 -0.3417 -0.8777
  122MOL   H20436746   6.347   6.964   5.519 -1.1174 -1.0470  0.2089
  122MOL   H20536747   6.314   7.005   5.358  0.1910  2.1453  0.1989
  122MOL   H20636748   6.034   6.923   5.578  1.2305  1.9857 -1.6291
  122MOL   H20736749   6.041   6.743   5.564  1.1684 -0.1789 -2.2803
  122MOL   H20836750   6.154   6.831   5.663 -1.1445  0.7712  0.8430
  122MOL   H20936751   6.005   6.964   5.064  0.0652  0.2038  1.4235
  122MOL   H21036752   6.044   6.789   5.060  0.3865 -0.3883 -2.2521
  122MOL   H21136753   6.152   6.899   4.988  2.5601  1.4702  1.3859
  122MOL   C21236754   6.286   6.735   5.433 -0.5381 -0.6598  0.4151
  122MOL   C21336755   6.263   6.584   5.382 -0.1602 -0.1737  0.1446
  122MOL   C21436756   6.137   6.517   5.446 -1.0576  0.4159 -0.0980
  122MOL   C21536757   6.240   6.587   5.223 -0.0244 -0.6591 -0.2362
  122MOL   O21636758   6.134   6.554   5.165  0.0611  0.3274  0.5795
  122MOL   O21736759   6.356   6.628   5.154 -0.6167  0.5567  0.4602
  122MOL   C21836760   6.360   6.614   5.017 -0.0860 -0.5985  0.0693
  122MOL   H21936761   6.313   6.714   5.537  0.0268 -0.9410  0.2139
  122MOL   H22036762   6.377   6.770   5.385 -1.9428 -0.4350 -2.1750
  122MOL   H22136763   6.048   6.574   5.421 -1.6166  0.4430  1.8606
  122MOL   H22236764   6.116   6.412   5.425 -0.4202  0.5015 -1.1578
  122MOL   H22336765   6.157   6.519   5.553 -0.7232 -0.4868 -0.1416
  122MOL   H22436766   6.451   6.653   4.972 -0.0419  0.1915  0.8243
  122MOL   H22536767   6.282   6.669   4.963 -0.2762 -1.8334 -0.9263
  122MOL   H22636768   6.348   6.509   4.992 -1.4805 -0.6660  0.9613
  122MOL   C22736769   6.390   6.496   5.401 -1.1636 -0.2062  0.2047
  122MOL   C22836770   6.426   6.413   5.535  0.3475 -0.8406  0.0934
  122MOL   C22936771   6.418   6.507   5.658 -0.0244 -1.3685 -1.4081
  122MOL   C23036772   6.332   6.291   5.548  0.8596  0.0918  0.2076
  122MOL   O23136773   6.265   6.271   5.647  0.7786  0.3641  0.3141
  122MOL   O23236774   6.326   6.208   5.442  0.1963 -0.1388  0.6526
  122MOL   C23336775   6.240   6.094   5.443  0.6318 -0.0648  0.1917
  122MOL   H23436776   6.477   6.554   5.370  0.1497 -2.7704 -1.0481
  122MOL   H23536777   6.391   6.421   5.322  1.3774 -0.3417  0.3055
  122MOL   H23636778   6.320   6.547   5.684  0.1931 -1.5797 -0.2477
  122MOL   H23736779   6.445   6.471   5.757  1.2003  2.9547 -0.0568
  122MOL   H23836780   6.484   6.593   5.646 -1.2872 -0.3985 -1.5578
  122MOL   H23936781   6.166   6.090   5.522 -0.2372 -0.5296 -0.6310
  122MOL   H24036782   6.299   6.002   5.446  0.7918 -0.0398 -1.6658
  122MOL   H24136783   6.187   6.088   5.348  2.4159  0.0214 -0.8357
  122MOL   C24236784   6.581   6.378   5.519  0.0414 -0.2717 -0.5130
  122MOL   C24336785   6.661   6.262   5.590  0.5201 -0.0784 -0.7891
  122MOL   C24436786   6.634   6.271   5.742 -0.8689  0.3400  0.0268
  122MOL   C24536787   6.624   6.125   5.532  0.0720 -0.3975  0.7679
  122MOL   O24636788   6.581   6.115   5.421 -0.3996  0.1616  0.5245
  122MOL   O24736789   6.647   6.021   5.610 -0.3194 -0.1002  0.1916
  122MOL   C24836790   6.622   5.889   5.559  0.0862 -0.8793 -0.5838
  122MOL   H24936791   6.637   6.471   5.515  1.9572 -1.4105 -0.8127
  122MOL   H25036792   6.577   6.348   5.415 -3.3173  0.0318 -0.5305
  122MOL   H25136793   6.696   6.203   5.801  0.0520  0.2188 -1.0720
  122MOL   H25236794   6.648   6.375   5.774  1.9285  0.0499 -0.1148
  122MOL   H25336795   6.534   6.233   5.764 -0.3356 -2.0479 -1.5339
  122MOL   H25436796   6.672   5.878   5.463  0.3122  2.9388 -0.9829
  122MOL   H25536797   6.517   5.864   5.545 -0.2355  0.1936 -0.1476
  122MOL   H25636798   6.651   5.809   5.627  3.8209 -1.6037 -2.8711
  122MOL   C25736799   6.817   6.271   5.561  0.7571  0.3196 -0.4225
  122MOL   C25836800   6.899   6.402   5.570 -0.1440 -0.1553 -0.2209
  122MOL   C25936801   6.887   6.456   5.424 -0.1239 -0.2443  0.3986
  122MOL   C26036802   6.845   6.505   5.679  0.4042  0.4215 -0.8653
  122MOL   O26136803   6.782   6.604   5.642  0.5757 -0.8115  0.6012
  122MOL   O26236804   6.881   6.474   5.799  0.2004 -0.4922  0.3793
  122MOL   C26336805   6.840   6.550   5.905  0.4896  0.5370  0.2295
  122MOL   H26436806   6.828   6.235   5.459 -0.2584 -0.9648 -0.1031
  122MOL   H26536807   6.863   6.198   5.629 -1.7711 -1.2450 -0.3173
  122MOL   H26636808   6.851   6.558   5.412  2.8435  0.4782 -3.2389
  122MOL   H26736809   6.984   6.439   5.377 -0.0856 -1.3426  0.8546
  122MOL   H26836810   6.816   6.401   5.362  1.6703 -4.1202  1.5921
  122MOL   H26936811   6.908   6.540   5.990  0.1707  1.5684  0.6161
  122MOL   H27036812   6.760   6.491   5.950  1.9564 -2.0771 -0.5284
  122MOL   H27136813   6.798   6.650   5.890  0.8051  0.9441  1.9199
  122MOL   C27236814   7.043   6.358   5.603 -0.3520 -0.0487  0.7919
  122MOL   C27336815   7.163   6.460   5.610 -0.4558 -0.3884  0.2145
  122MOL   C27436816   7.151   6.584   5.517 -0.7885  0.3193  0.1192
  122MOL   C27536817   7.181   6.499   5.759  0.0827 -0.0353  0.0989
  122MOL   O27636818   7.177   6.619   5.790  0.0273 -0.4075 -0.1806
  122MOL   O27736819   7.201   6.401   5.849  0.2828 -1.0359 -0.0234
  122MOL   C27836820   7.212   6.428   5.985 -0.3896 -0.3360 -0.4371
  122MOL   H27936821   7.068   6.282   5.529  2.5551  0.8824  0.7378
  122MOL   H28036822   7.038   6.297   5.693  0.5723  0.2918  1.0823
  122MOL   H28136823   7.168   6.565   5.411 -0.3686  1.9719 -0.1219
  122MOL   H28236824   7.055   6.634   5.525 -1.1785  0.0505 -2.4609
  122MOL   H28336825   7.229   6.654   5.545 -1.0784  0.2025  1.2368
  122MOL   H28436826   7.179   6.338   6.037 -2.5485  0.9390  0.4759
  122MOL   H28536827   7.159   6.515   6.024 -1.0723 -0.5845 -0.8152
  122MOL   H28636828   7.314   6.448   6.020  0.3007 -0.1941 -2.4500
  122MOL   C28736829   7.288   6.376   5.556 -0.7104 -0.4559  0.6702
  122MOL   C28836830   7.428   6.448   5.564 -0.1576 -0.6293 -0.8303
  122MOL   C28936831   7.533   6.391   5.657  0.0927  0.3226 -0.5272
  122MOL   C29036832   7.483   6.499   5.435  0.3440  0.4351  0.6508
  122MOL   O29136833   7.473   6.616   5.403  0.0283 -0.1994  0.0808
  122MOL   O29236834   7.546   6.407   5.365 -0.0436 -0.5207  0.8385
  122MOL   C29336835   7.631   6.439   5.256  0.3286 -0.0220 -0.3894
  122MOL   H29436836   7.263   6.349   5.453 -1.9227 -0.1169  0.8681
  122MOL   H29536837   7.292   6.284   5.616  1.9629 -0.6299  0.2920
  122MOL   H29636838   7.629   6.442   5.643 -0.5057  2.3209  2.1908
  122MOL   H29736839   7.503   6.414   5.760 -1.5125  1.5157 -1.2335
  122MOL   H29836840   7.564   6.287   5.645  1.8878  0.7839 -0.0817
  122MOL   H29936841   7.717   6.502   5.281 -1.9947  3.4901 -0.9476
  122MOL   H30036842   7.585   6.481   5.167  2.4583  0.0889 -1.4819
  122MOL   H30136843   7.679   6.345   5.228 -0.1783 -0.6660  0.8464
  122MOL   H30236844   7.409   6.547   5.606 -0.8312 -0.6504 -1.0716
  123MOL     C136845   2.458   0.463   4.862  0.2848 -0.4697 -0.6903
  123MOL     C236846   2.497   0.570   4.762  0.0681  0.4678 -0.2470
  123MOL     C336847   2.367   0.636   4.707 -0.2032 -0.2006 -0.1103
  123MOL     C436848   2.576   0.668   4.854 -0.4261 -0.2764 -0.0465
  123MOL     O536849   2.697   0.679   4.861 -0.3840  0.0492  0.1132
  123MOL     O636850   2.493   0.748   4.922 -0.5173 -0.2644  0.6555
  123MOL     C736851   2.545   0.832   5.030 -0.5288  1.0783  0.3679
  123MOL     H836852   2.391   0.509   4.934  1.7706  1.5667 -0.5573
  123MOL     H936853   2.392   0.385   4.824  0.5616 -0.5182 -1.0755
  123MOL    H1036854   2.321   0.572   4.632 -2.3802 -0.0647  1.0557
  123MOL    H1136855   2.296   0.642   4.790  0.4157  0.6752  0.3652
  123MOL    H1236856   2.383   0.736   4.666  0.5380  0.1706  1.0505
  123MOL    H1336857   2.455   0.867   5.081 -1.6422  1.1731 -1.6077
  123MOL    H1436858   2.603   0.917   4.993 -0.3686 -0.0059 -1.9369
  123MOL    H1536859   2.595   0.776   5.109 -1.6119  1.3643  1.2666
  123MOL    H1636860   2.539   0.420   4.919  0.5468 -0.2855 -0.9201
  123MOL    C1736861   2.600   0.531   4.646  0.4248  0.8952  0.6722
  123MOL    C1836862   2.616   0.378   4.580  0.0910 -0.6514 -0.5827
  123MOL    C1936863   2.470   0.334   4.537  0.3545  0.8746  0.0580
  123MOL    C2036864   2.702   0.397   4.458  0.5587  0.7168  0.4317
  123MOL    O2136865   2.666   0.348   4.352 -0.5739  0.2066 -0.6215
  123MOL    O2236866   2.820   0.451   4.473  0.2502  0.1824 -0.4092
  123MOL    C2336867   2.921   0.473   4.369  0.5966 -0.5358 -0.0854
  123MOL    H2436868   2.702   0.541   4.685  1.3418 -2.5821 -0.5860
  123MOL    H2536869   2.584   0.607   4.570 -0.4562  0.7673  0.7267
  123MOL    H2636870   2.402   0.329   4.622  0.7156 -1.2452  0.2594
  123MOL    H2736871   2.425   0.406   4.468  1.6611  1.2900 -0.3825
  123MOL    H2836872   2.462   0.246   4.473 -0.4990  2.0789 -1.5354
  123MOL    H2936873   2.992   0.391   4.360  0.8029 -0.4830  0.9197
  123MOL    H3036874   2.991   0.553   4.393 -0.8837  0.3481  1.4059
  123MOL    H3136875   2.893   0.496   4.266  1.0358 -0.0974 -0.1069
  123MOL    C3236876   2.702   0.288   4.676 -0.1266  0.2057  0.4002
  123MOL    C3336877   2.700   0.132   4.670  0.0238  0.0428  0.1405
  123MOL    C3436878   2.557   0.086   4.715 -0.6745 -0.3786 -0.3243
  123MOL    C3536879   2.721   0.079   4.527 -0.1804 -0.1908  0.0188
  123MOL    O3636880   2.628   0.009   4.471 -0.1601  0.6322 -0.1785
  123MOL    O3736881   2.837   0.117   4.459 -0.5703 -0.2854 -0.4226
  123MOL    C3836882   2.858   0.063   4.326 -0.2494  0.7418 -0.4948
  123MOL    H3936883   2.663   0.317   4.774  2.7295 -0.4122  1.7783
  123MOL    H4036884   2.801   0.333   4.678  0.6569 -1.5046  2.3983
  123MOL    H4136885   2.516   0.136   4.802  1.4672  0.5693  0.1589
  123MOL    H4236886   2.483   0.095   4.635  0.8405  1.5718 -1.5537
  123MOL    H4336887   2.562   7.858   4.740  0.6890 -0.4674 -0.9414
  123MOL    H4436888   2.800   0.115   4.250 -0.3997  0.3980 -0.6113
  123MOL    H4536889   2.836   7.835   4.316  1.3156  0.1772  1.6227
  123MOL    H4636890   2.955   0.084   4.281  0.7723 -2.0910  0.2699
  123MOL    C4736891   2.784   0.057   4.787  0.1745  0.0419  0.7761
  123MOL    C4836892   2.939   0.078   4.799 -0.1499 -0.1526 -0.3144
  123MOL    C4936893   3.011   0.031   4.675 -0.2443  0.4869 -0.3104
  123MOL    C5036894   2.962   0.225   4.839  0.0391 -0.5174  0.7857
  123MOL    O5136895   3.043   0.293   4.774  0.2521 -0.0176  0.4030
  123MOL    O5236896   2.882   0.260   4.937  0.3954 -0.9687 -0.3163
  123MOL    C5336897   2.873   0.395   4.974 -0.2031  0.1832  0.0171
  123MOL    H5436898   2.768   7.827   4.779 -0.0428  0.0827  0.6461
  123MOL    H5536899   2.737   0.078   4.883 -1.6112  1.9809 -0.4891
  123MOL    H5636900   3.015   0.118   4.610  0.2357  0.1252 -0.7733
  123MOL    H5736901   3.112   7.870   4.693  0.5131  0.6502 -3.9463
  123MOL    H5836902   2.949   7.837   4.621 -0.1600 -0.8113  1.2660
  123MOL    H5936903   2.841   0.460   4.893 -1.8186 -0.8053 -0.1366
  123MOL    H6036904   2.979   0.420   4.988 -0.3114  0.8971 -0.4397
  123MOL    H6136905   2.803   0.409   5.056  0.8339 -3.1293  1.5902
  123MOL    C6236906   2.979   7.872   4.929  0.1020  0.3783 -0.1870
  123MOL    C6336907   3.114   0.010   5.010 -0.1022  0.5920  0.3039
  123MOL    C6436908   3.105   7.758   5.102  0.6498 -0.1050  0.7021
  123MOL    C6536909   3.235   7.869   4.919  0.8154 -0.0187  0.0516
  123MOL    O6636910   3.298   7.763   4.902 -0.0573 -0.0517  0.3503
  123MOL    O6736911   3.268   0.106   4.861 -0.2842 -0.0885  0.2367
  123MOL    C6836912   3.388   0.126   4.790 -0.2400 -0.3551 -0.5837
  123MOL    H6936913   2.967   7.771   4.891  0.8293  0.5070 -0.7839
  123MOL    H7036914   2.902   7.869   5.006  0.8058 -0.0897  0.5102
  123MOL    H7136915   3.191   7.741   5.167  0.2868  2.6742  2.0051
  123MOL    H7236916   3.021   7.770   5.171 -1.3560 -2.0848 -1.3184
  123MOL    H7336917   3.083   7.670   5.041 -1.8925  0.1482  1.2086
  123MOL    H7436918   3.363   0.155   4.688  1.5887  2.3494 -0.3117
  123MOL    H7536919   3.439   0.030   4.778  1.5464  0.4712  0.2178
  123MOL    H7636920   3.445   0.202   4.844  0.7956 -2.0931  0.8297
  123MOL    C7736921   3.117   0.134   5.107 -0.4061 -0.7492 -0.2677
  123MOL    C7836922   3.209   0.146   5.238  0.0518  0.5063 -0.7312
  123MOL    C7936923   3.146   0.066   5.362  0.1661  0.3485  0.0553
  123MOL    C8036924   3.352   0.092   5.205  0.1722 -0.1686 -0.0785
  123MOL    O8136925   3.423   0.155   5.121 -0.4980  0.1240 -0.1697
  123MOL    O8236926   3.388   7.864   5.278 -0.3938 -0.4726  0.3282
  123MOL    C8336927   3.506   7.800   5.237 -0.0007 -0.0214  0.4716
  123MOL    H8436928   3.017   0.156   5.144 -0.7967  0.4136 -1.9668
  123MOL    H8536929   3.139   0.220   5.043 -0.6526 -0.7599 -0.3671
  123MOL    H8636930   3.208   0.075   5.451 -0.3561 -0.5617  0.5168
  123MOL    H8736931   3.043   0.096   5.385 -0.2163  0.0126 -1.1663
  123MOL    H8836932   3.138   7.839   5.334  2.8468  0.8136 -2.7725
  123MOL    H8936933   3.517   7.787   5.130 -1.2158 -1.1729  0.4781
  123MOL    H9036934   3.517   7.700   5.278 -3.1568  0.0546  1.6742
  123MOL    H9136935   3.591   7.863   5.265  1.2474 -1.0734 -0.9131
  123MOL    C9236936   3.217   0.301   5.264 -0.4112  0.5221  0.2511
  123MOL    C9336937   3.286   0.388   5.377  0.2645  0.4690 -0.0247
  123MOL    C9436938   3.178   0.404   5.493  0.0646 -0.3442 -0.4217
  123MOL    C9536939   3.414   0.314   5.434 -0.4217  0.4324 -0.3076
  123MOL    O9636940   3.410   0.229   5.524  0.3008  0.4165  0.0910
  123MOL    O9736941   3.531   0.341   5.362 -0.2206 -0.2890  0.0507
  123MOL    C9836942   3.656   0.266   5.378  0.4508 -0.0872  0.2185
  123MOL    H9936943   3.116   0.341   5.261 -0.7812 -0.4727 -0.5656
  123MOL   H10036944   3.259   0.344   5.173 -0.8126  2.6167  1.0211
  123MOL   H10136945   3.141   0.308   5.530 -1.4497  0.2659 -0.2956
  123MOL   H10236946   3.221   0.468   5.570  2.3732 -0.7079 -1.3870
  123MOL   H10336947   3.089   0.455   5.456  0.0028  1.6374  2.3140
  123MOL   H10436948   3.644   0.159   5.360  1.3991 -0.1542 -0.0199
  123MOL   H10536949   3.706   0.297   5.469  1.9852 -1.3284 -0.1767
  123MOL   H10636950   3.726   0.312   5.309  1.2719  0.6264  1.5163
  123MOL   C10736951   3.328   0.523   5.314  0.0296 -0.2846 -0.3254
  123MOL   C10836952   3.234   0.634   5.249 -0.7367 -0.7501  0.4563
  123MOL   C10936953   3.097   0.590   5.185 -0.2830 -0.0300 -0.6582
  123MOL   C11036954   3.199   0.729   5.370  0.1952  0.0101  0.0348
  123MOL   O11136955   3.091   0.718   5.428  0.4744  0.1653 -0.5014
  123MOL   O11236956   3.296   0.817   5.394  0.0102  0.1431 -0.7180
  123MOL   C11336957   3.261   0.913   5.491  0.5715  0.2750 -0.1448
  123MOL   H11436958   3.403   0.506   5.237  0.6280  0.3013  0.1250
  123MOL   H11536959   3.383   0.578   5.391  0.0675  1.6422 -1.7054
  123MOL   H11636960   3.041   0.529   5.256 -1.3729  1.6181 -0.0768
  123MOL   H11736961   3.033   0.675   5.166 -0.5569  0.2909  1.5364
  123MOL   H11836962   3.106   0.538   5.089  1.8156 -1.1227  0.0884
  123MOL   H11936963   3.347   0.967   5.531  0.0659  0.8977  0.1114
  123MOL   H12036964   3.207   0.868   5.575  1.1486 -1.1526 -0.5167
  123MOL   H12136965   3.197   0.993   5.455  2.3592  2.2359  0.9284
  123MOL   C12236966   3.317   0.721   5.145  0.2106  0.3165 -0.2165
  123MOL   C12336967   3.329   0.690   4.993  0.5361 -0.2015 -0.1023
  123MOL   C12436968   3.370   0.543   4.977 -1.1152 -0.0293 -0.7055
  123MOL   C12536969   3.189   0.716   4.925  0.0991 -0.1484  0.2125
  123MOL   O12636970   3.121   0.815   4.957  0.4571 -0.1912 -0.0995
  123MOL   O12736971   3.163   0.621   4.827 -0.1817 -0.2162 -0.2960
  123MOL   C12836972   3.037   0.624   4.756 -0.2922  0.5184  0.2009
  123MOL   H12936973   3.416   0.723   5.189 -0.2859  2.3559  0.8584
  123MOL   H13036974   3.286   0.826   5.144 -0.9553 -0.0138  0.3698
  123MOL   H13136975   3.381   0.512   4.873  0.0222  1.9887 -1.2142
  123MOL   H13236976   3.459   0.504   5.027 -0.9760  0.0865 -0.8623
  123MOL   H13336977   3.297   0.469   5.010 -0.6180  0.5451  1.7653
  123MOL   H13436978   3.034   0.718   4.700  0.5760 -0.7040 -1.9811
  123MOL   H13536979   2.952   0.620   4.824 -1.6857  0.1708 -1.5298
  123MOL   H13636980   3.035   0.532   4.697  0.0399 -0.9769  2.4822
  123MOL   C13736981   3.447   0.786   4.938  0.5713 -0.6706 -0.2974
  123MOL   C13836982   3.465   0.822   4.785 -0.8050 -0.1249 -0.2689
  123MOL   C13936983   3.356   0.927   4.743  0.7312  0.2146  0.0524
  123MOL   C14036984   3.601   0.897   4.788 -0.4122 -0.0816  0.4862
  123MOL   O14136985   3.615   1.020   4.756  0.2827  0.4565 -0.4496
  123MOL   O14236986   3.707   0.820   4.814  0.2970 -0.3701 -0.2943
  123MOL   C14336987   3.827   0.884   4.852 -0.3646 -0.0448 -0.4203
  123MOL   H14436988   3.540   0.742   4.975  1.0950 -0.3256 -1.1623
  123MOL   H14536989   3.445   0.881   4.991 -0.0569  0.2039 -1.8432
  123MOL   H14636990   3.389   1.004   4.673  1.8534 -1.3945 -1.2044
  123MOL   H14736991   3.268   0.880   4.700  0.0895  1.1118  0.3730
  123MOL   H14836992   3.327   0.994   4.825 -1.5979 -0.6235 -0.0639
  123MOL   H14936993   3.859   0.950   4.771 -1.0153  1.9442  0.8863
  123MOL   H15036994   3.916   0.823   4.868 -0.1052  0.4380  0.0128
  123MOL   H15136995   3.801   0.948   4.937  0.0653 -0.6934  0.2066
  123MOL   C15236996   3.476   0.692   4.696  0.1354  0.2412 -0.4189
  123MOL   C15336997   3.515   0.680   4.540 -0.8476  0.5827  0.1537
  123MOL   C15436998   3.415   0.769   4.462  0.1923  0.3681 -0.0165
  123MOL   C15536999   3.660   0.715   4.500 -0.0249 -0.4807  0.1799
  123MOL   O15637000   3.685   0.806   4.417  0.0940  0.4791 -0.1318
  123MOL   O15737001   3.754   0.654   4.574  0.1062  0.3297 -0.0231
  123MOL   C15837002   3.888   0.695   4.552 -0.3298 -0.1075 -0.1238
  123MOL   H15937003   3.376   0.648   4.700  0.3921 -0.2587  0.7345
  123MOL   H16037004   3.538   0.629   4.760  0.5762  2.5568  1.4997
  123MOL   H16137005   3.426   0.873   4.492 -4.2208  0.9383 -0.1494
  123MOL   H16237006   3.428   0.764   4.353 -0.7235  0.8440 -0.1505
  123MOL   H16337007   3.310   0.745   4.475  0.2846  1.1561  2.3359
  123MOL   H16437008   3.925   0.652   4.459 -2.0825 -0.6084 -0.6175
  123MOL   H16537009   3.944   0.653   4.635 -1.2360  0.9119  1.0155
  123MOL   H16637010   3.897   0.804   4.554  0.0658 -0.1687  2.0580
  123MOL   C16737011   3.518   0.525   4.513 -0.5970  0.1812 -0.5713
  123MOL   C16837012   3.402   0.436   4.453  0.0163 -0.1470 -0.2709
  123MOL   C16937013   3.273   0.445   4.543  0.1962 -0.5377  0.4005
  123MOL   C17037014   3.365   0.493   4.315  0.6900 -0.1306  0.4848
  123MOL   O17137015   3.256   0.541   4.285 -0.4566  0.4352  0.5106
  123MOL   O17237016   3.473   0.506   4.238 -0.1085  0.5185  0.0545
  123MOL   C17337017   3.453   0.567   4.111 -0.4859 -0.0888  0.2857
  123MOL   H17437018   3.526   0.471   4.607  1.2787  0.1070 -0.7430
  123MOL   H17537019   3.608   0.496   4.459 -0.1126 -0.8948  0.7852
  123MOL   H17637020   3.299   0.427   4.647 -0.3263 -2.4272  0.2120
  123MOL   H17737021   3.244   0.550   4.544  0.8755 -0.3478  0.6018
  123MOL   H17837022   3.186   0.389   4.509  0.2003 -0.5129  0.3492
  123MOL   H17937023   3.489   0.669   4.124 -1.0987  0.0781  0.6721
  123MOL   H18037024   3.351   0.589   4.080 -0.2342 -0.3105 -0.7455
  123MOL   H18137025   3.494   0.522   4.020  1.2235  1.5884  0.1910
  123MOL   C18237026   3.459   0.292   4.459  0.8638 -0.2859  0.9303
  123MOL   C18337027   3.411   0.171   4.369  0.6132 -0.0076 -0.3702
  123MOL   C18437028   3.252   0.167   4.372 -0.0639 -0.4851  0.0548
  123MOL   C18537029   3.466   0.181   4.228 -0.0275  0.4499  0.2183
  123MOL   O18637030   3.393   0.183   4.134 -0.3456 -0.7645  0.3990
  123MOL   O18737031   3.603   0.196   4.225  0.2270  0.2671 -0.2306
  123MOL   C18837032   3.664   0.218   4.099  0.2792  0.2800  0.4135
  123MOL   H18937033   3.460   0.270   4.565 -0.2289  0.9217  1.2094
  123MOL   H19037034   3.568   0.285   4.458  0.8171 -1.0039  0.6903
  123MOL   H19137035   3.194   0.102   4.307 -1.2905  1.9106 -1.3297
  123MOL   H19237036   3.209   0.154   4.471 -0.5175  1.7015  0.1728
  123MOL   H19337037   3.225   0.269   4.346  0.4018 -0.4676 -0.3610
  123MOL   H19437038   3.648   0.318   4.058  0.0008 -0.2965 -0.9050
  123MOL   H19537039   3.619   0.150   4.027 -1.5552 -0.2144  2.0113
  123MOL   H19637040   3.772   0.201   4.109  0.6950  1.4246 -1.6879
  123MOL   C19737041   3.458   0.041   4.444 -0.5232 -0.0344 -0.0361
  123MOL   C19837042   3.458   7.762   4.384  0.2670 -0.6652  0.3508
  123MOL   C19937043   3.562   7.757   4.269  0.4208 -0.0412 -0.1149
  123MOL   C20037044   3.502   7.662   4.492 -0.1209  0.6987  0.2645
  123MOL   O20137045   3.563   7.554   4.474  0.1197  0.2315  0.4598
  123MOL   O20237046   3.481   7.693   4.618  0.3173 -0.3691 -0.2099
  123MOL   C20337047   3.561   7.639   4.731  0.5485 -0.3685  0.0738
  123MOL   H20437048   3.389   0.031   4.528 -1.6156 -0.5215 -0.9751
  123MOL   H20537049   3.557   0.065   4.482 -0.7313 -0.1678  0.5819
  123MOL   H20637050   3.648   7.817   4.297  0.1810  0.8534 -1.2563
  123MOL   H20737051   3.596   7.654   4.258  1.6781  0.2838  0.6635
  123MOL   H20837052   3.530   7.787   4.169  2.3418  0.3948 -0.6191
  123MOL   H20937053   3.582   7.714   4.807  1.7284 -2.2738  1.6940
  123MOL   H21037054   3.655   7.604   4.688 -0.4855 -2.6695 -0.3616
  123MOL   H21137055   3.518   7.553   4.782 -0.9624  0.1942 -0.2403
  123MOL   C21237056   3.315   7.732   4.331 -0.5109 -0.2551 -0.0971
  123MOL   C21337057   3.251   7.592   4.284 -0.0297 -0.7127 -0.1985
  123MOL   C21437058   3.113   7.626   4.222 -0.4724  0.2984  0.3382
  123MOL   C21537059   3.343   7.532   4.173 -0.7156 -0.1686  0.6995
  123MOL   O21637060   3.397   7.426   4.184 -0.0703  0.4550  0.4904
  123MOL   O21737061   3.365   7.611   4.070 -0.6880 -0.2988  0.6181
  123MOL   C21837062   3.439   7.569   3.958 -0.3612  0.2672 -0.0498
  123MOL   H21937063   3.307   7.803   4.248  1.9650  0.4174  0.2188
  123MOL   H22037064   3.252   7.769   4.412 -0.1702  0.2981 -0.0807
  123MOL   H22137065   3.128   7.678   4.127 -0.8932  0.0279  0.1206
  123MOL   H22237066   3.057   7.540   4.184  3.0324 -1.4073 -1.1739
  123MOL   H22337067   3.049   7.690   4.283  0.4047 -0.0724  1.6633
  123MOL   H22437068   3.539   7.581   3.998 -1.0656  4.2639  0.7143
  123MOL   H22537069   3.415   7.635   3.874  0.7093  0.1104 -0.4910
  123MOL   H22637070   3.411   7.468   3.927  0.2162  0.5299 -1.4740
  123MOL   C22737071   3.233   7.484   4.402  0.4559 -0.6805  0.4142
  123MOL   C22837072   3.128   7.480   4.519 -0.2576 -0.3681 -0.0743
  123MOL   C22937073   3.145   7.611   4.609 -0.7259 -0.4483  0.2224
  123MOL   C23037074   2.984   7.478   4.463 -0.2191 -0.5027  0.2357
  123MOL   O23137075   2.916   7.578   4.458 -0.3478  0.8035 -0.1400
  123MOL   O23237076   2.952   7.368   4.399 -0.1931 -0.1631 -0.0287
  123MOL   C23337077   2.815   7.337   4.372 -0.0453 -0.2331 -0.6877
  123MOL   H23437078   3.334   7.471   4.442  0.4670  0.0050  0.6000
  123MOL   H23537079   3.205   7.390   4.353 -1.6016 -0.2770  0.7591
  123MOL   H23637080   3.116   7.700   4.552 -0.7365 -0.5143  0.1248
  123MOL   H23737081   3.076   7.611   4.693 -2.9798  0.2629 -1.5619
  123MOL   H23837082   3.245   7.634   4.643 -0.2765 -0.2872 -1.1774
  123MOL   H23937083   2.744   7.361   4.451 -1.1068 -0.4200 -1.5718
  123MOL   H24037084   2.810   7.228   4.378  0.6653 -0.1888  1.0764
  123MOL   H24137085   2.773   7.378   4.280 -2.9280 -2.4481 -0.4656
  123MOL   C24237086   3.160   7.354   4.602  0.2323 -0.1141 -0.0865
  123MOL   C24337087   3.105   7.332   4.753 -0.1759  0.0678 -0.6780
  123MOL   C24437088   3.152   7.448   4.848 -0.7820  0.2279 -0.0149
  123MOL   C24537089   2.956   7.310   4.741  0.4294  0.8853  0.2481
  123MOL   O24637090   2.914   7.204   4.694 -0.4767  0.3585 -0.2364
  123MOL   O24737091   2.877   7.418   4.768 -0.3506  0.3163 -0.1047
  123MOL   C24837092   2.741   7.394   4.763  0.4374 -0.1593  0.1381
  123MOL   H24937093   3.268   7.343   4.607  0.1925 -0.3917  0.1687
  123MOL   H25037094   3.129   7.271   4.540 -2.0429  0.2331  0.5231
  123MOL   H25137095   3.073   7.520   4.874 -1.6134 -0.3333 -0.9293
  123MOL   H25237096   3.179   7.407   4.945  0.1112 -0.8908 -0.7230
  123MOL   H25337097   3.245   7.501   4.829  0.6356 -1.6104  1.6579
  123MOL   H25437098   2.685   7.479   4.803  0.6911 -0.2190  0.6280
  123MOL   H25537099   2.708   7.301   4.811 -0.4636 -0.0345 -0.2323
  123MOL   H25637100   2.718   7.398   4.657 -2.5247  1.7017  0.7812
  123MOL   C25737101   3.155   7.205   4.832  1.0019  0.1673  0.0659
  123MOL   C25837102   3.313   7.166   4.843 -0.0972  0.3074 -0.4090
  123MOL   C25937103   3.404   7.292   4.844  0.5147 -0.1601 -0.0142
  123MOL   C26037104   3.339   7.099   4.988  0.5635 -0.1657  0.0805
  123MOL   O26137105   3.340   6.981   4.998  0.4596  0.0963  0.2655
  123MOL   O26237106   3.353   7.182   5.094  0.2838 -0.1542 -0.1782
  123MOL   C26337107   3.338   7.124   5.220  0.1191 -0.6040 -0.6282
  123MOL   H26437108   3.115   7.112   4.792  0.3632 -0.0413  1.1569
  123MOL   H26537109   3.101   7.201   4.927  0.8197 -0.0409 -0.0481
  123MOL   H26637110   3.394   7.352   4.935  1.0172 -0.3507  0.1730
  123MOL   H26737111   3.509   7.262   4.839  0.6360 -0.1109  1.8164
  123MOL   H26837112   3.412   7.360   4.759  1.7476  1.6347  1.4848
  123MOL   H26937113   3.394   7.031   5.226  0.0509 -0.5731  0.6274
  123MOL   H27037114   3.234   7.097   5.237 -0.5510  3.8786  3.5136
  123MOL   H27137115   3.359   7.192   5.302  0.2190 -1.2776 -0.0984
  123MOL   C27237116   3.341   7.079   4.719  1.1535  0.1589 -0.6118
  123MOL   C27337117   3.489   7.032   4.679  0.7015  0.1257  0.0785
  123MOL   C27437118   3.587   6.992   4.793 -0.0978  0.5320 -0.3493
  123MOL   C27537119   3.464   6.903   4.597  0.2994  0.1940  0.5203
  123MOL   O27637120   3.365   6.887   4.524 -0.2174  0.0250  0.0841
  123MOL   O27737121   3.569   6.810   4.603 -0.2708  0.3344  0.4544
  123MOL   C27837122   3.569   6.693   4.525 -0.1217  0.9379 -0.1189
  123MOL   H27937123   3.290   7.119   4.632  0.7457 -1.9821 -1.3973
  123MOL   H28037124   3.283   6.988   4.740  0.1457  1.0293  0.4622
  123MOL   H28137125   3.685   6.961   4.757 -0.1545 -0.7813  0.5940
  123MOL   H28237126   3.595   7.075   4.862  2.2651  0.0138  0.0324
  123MOL   H28337127   3.543   6.911   4.851  0.1873  1.0883  0.6373
  123MOL   H28437128   3.553   6.718   4.420 -1.1316 -0.8785 -0.4267
  123MOL   H28537129   3.488   6.626   4.554  1.0778 -1.1366 -1.4319
  123MOL   H28637130   3.653   6.625   4.533 -0.9408  0.3318  4.1244
  123MOL   C28737131   3.543   7.134   4.567  0.2100  0.8984 -0.0662
  123MOL   C28837132   3.684   7.114   4.511  1.3809  0.6098 -0.0746
  123MOL   C28937133   3.695   7.145   4.363  0.5707 -0.7214  0.2541
  123MOL   C29037134   3.794   7.187   4.591 -0.0154  0.0888 -0.0748
  123MOL   O29137135   3.905   7.144   4.626 -0.4259 -0.0988 -0.3402
  123MOL   O29237136   3.764   7.309   4.609 -0.1876 -0.0118 -0.0246
  123MOL   C29337137   3.847   7.411   4.656  0.6031  1.0572  0.9475
  123MOL   H29437138   3.523   7.234   4.605 -0.4276  1.4771 -1.9019
  123MOL   H29537139   3.482   7.118   4.479  3.4883 -0.7937 -2.1641
  123MOL   H29637140   3.800   7.153   4.334  0.5270 -1.9119 -0.2427
  123MOL   H29737141   3.646   7.061   4.314 -0.1141  0.2769 -0.8029
  123MOL   H29837142   3.645   7.239   4.340  0.9936 -0.6238 -0.2924
  123MOL   H29937143   3.951   7.397   4.627 -0.2949 -0.9696 -1.4988
  123MOL   H30037144   3.840   7.412   4.764 -0.2322  2.6061  0.9073
  123MOL   H30137145   3.818   7.501   4.601 -0.0770 -0.1844 -0.7759
  123MOL   H30237146   3.719   7.011   4.519 -1.5544 -0.3011  1.4659
  124MOL     C137147   6.133   7.787   6.206  0.8040 -0.1301 -0.5407
  124MOL     C237148   5.989   7.732   6.171  0.7192  0.6663 -0.4587
  124MOL     C337149   5.974   7.762   6.013  0.1291  0.3584  0.7595
  124MOL     C437150   5.992   7.573   6.198  1.2871  0.7859  0.4515
  124MOL     O537151   6.017   7.531   6.308  0.1781 -0.1948 -0.0912
  124MOL     O637152   5.957   7.496   6.094  0.2589  0.1012  0.8807
  124MOL     C737153   5.959   7.357   6.098  0.8408  0.4608 -0.9263
  124MOL     H837154   6.208   7.726   6.157 -0.4914 -1.4672 -0.8755
  124MOL     H937155   6.155   0.009   6.167 -1.0942  0.4211 -0.2567
  124MOL    H1037156   5.887   7.725   5.959  1.5450  1.2894 -2.2624
  124MOL    H1137157   5.998   7.865   5.987  2.0689 -1.1496 -3.8725
  124MOL    H1237158   6.049   7.708   5.956 -0.3020 -1.0284  1.4844
  124MOL    H1337159   5.888   7.316   6.025 -0.7414 -0.9927  1.3593
  124MOL    H1437160   5.913   7.322   6.190  0.3442  3.6693  0.0686
  124MOL    H1537161   6.056   7.308   6.082 -0.5640 -2.6405 -0.4082
  124MOL    H1637162   6.148   7.787   6.314  0.9209 -1.2476 -0.5549
  124MOL    C1737163   5.893   7.808   6.262  0.3988 -0.2021 -0.2399
  124MOL    C1837164   5.743   7.837   6.214  0.0073  0.2230 -0.0395
  124MOL    C1937165   5.752   0.081   6.119  0.1898 -0.0617 -0.5219
  124MOL    C2037166   5.677   7.721   6.136 -0.2666  0.3667  0.2661
  124MOL    O2137167   5.622   7.737   6.023 -0.1703 -0.0903  0.4958
  124MOL    O2237168   5.681   7.603   6.199 -0.4782 -0.3347 -0.5168
  124MOL    C2337169   5.606   7.493   6.143 -1.1415  0.1982  0.0333
  124MOL    H2437170   5.952   0.020   6.284 -1.1001  1.0862 -1.3873
  124MOL    H2537171   5.892   7.766   6.362  3.5708  0.6395  0.2276
  124MOL    H2637172   5.772   0.059   6.014  0.8681  3.1234 -1.1122
  124MOL    H2737173   5.659   0.139   6.116  0.9218  1.3113  1.5340
  124MOL    H2837174   5.819   0.160   6.155 -1.5599  0.4382  1.7826
  124MOL    H2937175   5.591   7.422   6.225  0.3551  0.9754  1.0129
  124MOL    H3037176   5.666   7.429   6.078 -0.7479 -0.3890  0.9512
  124MOL    H3137177   5.510   7.525   6.103 -1.1126  0.7757  0.4137
  124MOL    C3237178   5.657   0.004   6.342 -0.3209 -0.1195 -0.0213
  124MOL    C3337179   5.539   7.804   6.421  0.7585 -0.5187 -0.2968
  124MOL    C3437180   5.417   7.787   6.331 -0.2930  0.1583  0.8780
  124MOL    C3537181   5.589   7.667   6.468  0.1389 -0.2353  0.1241
  124MOL    O3637182   5.517   7.563   6.458 -0.1326  0.1222  0.4308
  124MOL    O3737183   5.710   7.676   6.525 -0.2203  0.9295  0.5768
  124MOL    C3837184   5.770   7.561   6.585  0.1271 -0.1196  0.7450
  124MOL    H3937185   5.619   0.106   6.329  1.1606  0.2981 -1.2006
  124MOL    H4037186   5.730   0.030   6.419 -0.8047  0.1003  0.3704
  124MOL    H4137187   5.380   0.006   6.297 -1.2414  0.0297  1.5206
  124MOL    H4237188   5.442   7.742   6.236  1.5407  1.2262  0.8386
  124MOL    H4337189   5.351   7.706   6.364  1.0573 -0.5786  1.7999
  124MOL    H4437190   5.829   7.508   6.510 -0.8023 -1.3763  0.8822
  124MOL    H4537191   5.688   7.497   6.618  0.8041 -0.6896  1.3221
  124MOL    H4637192   5.831   7.593   6.669  2.2341 -2.1617  0.0288
  124MOL    C4737193   5.504   0.019   6.550  0.7800  0.6338 -1.0356
  124MOL    C4837194   5.373   0.013   6.635 -0.6993  0.5293  0.1268
  124MOL    C4937195   5.354   7.741   6.672 -0.2370 -0.9849  0.9969
  124MOL    C5037196   5.395   0.086   6.769  0.4025 -0.3529 -0.1505
  124MOL    O5137197   5.472   0.181   6.779  0.8433  0.1378  0.3147
  124MOL    O5237198   5.307   0.049   6.864  0.2041 -0.0571  0.4223
  124MOL    C5337199   5.296   0.122   6.990 -0.0918 -0.1945  0.1724
  124MOL    H5437200   5.529   0.125   6.535  2.1007  0.1276 -2.5422
  124MOL    H5537201   5.586   7.873   6.618  0.6853  1.2286 -0.7067
  124MOL    H5637202   5.336   7.678   6.585 -0.6789 -0.4365  0.6871
  124MOL    H5737203   5.439   7.691   6.720  0.4487  0.7586  1.6192
  124MOL    H5837204   5.266   7.706   6.726 -1.7703  0.2534 -0.6349
  124MOL    H5937205   5.250   0.219   6.970 -0.3463 -1.0191 -3.6109
  124MOL    H6037206   5.394   0.145   7.033  0.8559 -0.6163 -1.7291
  124MOL    H6137207   5.238   0.073   7.068 -0.8776  2.3142  1.2380
  124MOL    C6237208   5.241   0.059   6.566  0.0353 -0.6413  0.3971
  124MOL    C6337209   5.221   0.208   6.518  0.1079  1.1005 -0.4086
  124MOL    C6437210   5.346   0.263   6.443  0.5165 -0.1272  0.0041
  124MOL    C6537211   5.103   0.226   6.422 -0.4598 -0.2854 -0.2430
  124MOL    O6637212   5.104   0.294   6.317 -0.2227 -0.0230 -0.1628
  124MOL    O6737213   4.990   0.159   6.463 -0.1005  0.0821 -0.1921
  124MOL    C6837214   4.868   0.168   6.395  0.0120  1.0310  1.1091
  124MOL    H6937215   5.159   0.032   6.633 -0.4551  0.2526  0.1784
  124MOL    H7037216   5.221   7.869   6.483 -0.9807  0.0357  0.0665
  124MOL    H7137217   5.427   0.299   6.507  0.7196  1.2179 -0.9952
  124MOL    H7237218   5.394   0.183   6.388  0.9940  0.3764 -0.3159
  124MOL    H7337219   5.327   0.346   6.375 -1.0447  0.2653  0.8890
  124MOL    H7437220   4.880   0.164   6.286  0.0337 -1.5217  1.1822
  124MOL    H7537221   4.813   0.262   6.405  1.8559  2.2945 -0.1570
  124MOL    H7637222   4.809   0.081   6.423  0.8096  0.3571  0.7162
  124MOL    C7737223   5.201   0.299   6.648 -0.1703 -0.0284  0.0383
  124MOL    C7837224   5.122   0.430   6.671  0.4148  0.2686  0.4633
  124MOL    C7937225   4.972   0.419   6.646  0.3880 -0.2492 -0.1193
  124MOL    C8037226   5.131   0.454   6.828 -0.2221  0.2207  0.4024
  124MOL    O8137227   5.049   0.410   6.909  0.3181  0.5605 -0.3021
  124MOL    O8237228   5.257   0.500   6.864 -0.0181  0.5131  0.2976
  124MOL    C8337229   5.278   0.514   7.000  0.2135 -0.2131 -0.3702
  124MOL    H8437230   5.300   0.334   6.679  1.5633 -3.4698 -1.3818
  124MOL    H8537231   5.171   0.235   6.730  0.5854 -0.8859 -0.3471
  124MOL    H8637232   4.952   0.411   6.540  0.7699  1.1459 -0.3143
  124MOL    H8737233   4.930   0.336   6.703  1.8717  1.1411  3.1935
  124MOL    H8837234   4.920   0.510   6.675  1.7792  0.5716 -0.1218
  124MOL    H8937235   5.352   0.593   7.008  0.3720 -0.3892 -0.0693
  124MOL    H9037236   5.308   0.420   7.046 -0.2210 -0.7899 -1.2582
  124MOL    H9137237   5.195   0.549   7.062 -0.3373  2.0340 -2.3126
  124MOL    C9237238   5.188   0.549   6.591  0.2993 -0.3341  0.7962
  124MOL    C9337239   5.127   0.693   6.573 -0.4049 -0.1514 -0.3666
  124MOL    C9437240   5.104   0.757   6.716  0.3222 -0.0844 -0.4215
  124MOL    C9537241   5.238   0.777   6.498 -0.6138  0.2338  0.4264
  124MOL    O9637242   5.292   0.878   6.550 -0.5520  0.3503 -0.4314
  124MOL    O9737243   5.276   0.722   6.378  0.2038 -0.3897 -0.5197
  124MOL    C9837244   5.364   0.792   6.300 -1.0552 -0.2035  0.5848
  124MOL    H9937245   5.216   0.511   6.493 -0.4265 -0.2134  0.5421
  124MOL   H10037246   5.293   0.547   6.622  0.3302 -0.6909  0.6659
  124MOL   H10137247   5.050   0.851   6.718  1.1033  0.4021 -1.3835
  124MOL   H10237248   5.061   0.690   6.790  0.2579  0.4735  0.0456
  124MOL   H10337249   5.198   0.775   6.768 -0.1701  0.0991  0.4088
  124MOL   H10437250   5.419   0.723   6.235  0.4816  0.5704  1.0733
  124MOL   H10537251   5.447   0.826   6.361 -1.6649  0.1906  1.1991
  124MOL   H10637252   5.323   0.881   6.251  0.0971 -0.2557 -0.5067
  124MOL   C10737253   4.999   0.692   6.480  0.3704  0.2152 -0.1383
  124MOL   C10837254   4.870   0.785   6.498 -0.0628  0.5574 -0.6632
  124MOL   C10937255   4.788   0.738   6.622  0.6733  0.0368  0.1824
  124MOL   C11037256   4.900   0.933   6.514  0.2260 -0.7420 -0.4900
  124MOL   O11137257   4.832   1.003   6.585 -0.2637 -0.3037 -0.2926
  124MOL   O11237258   5.007   0.967   6.450  0.4449  0.1078  0.0089
  124MOL   C11337259   5.044   1.104   6.450  0.2875 -0.1661  1.6973
  124MOL   H11437260   4.965   0.593   6.450  1.2300  0.4703 -2.0377
  124MOL   H11537261   5.029   0.733   6.383  0.8949 -0.5173 -0.2864
  124MOL   H11637262   4.848   0.749   6.713 -0.4336  1.9431  0.7169
  124MOL   H11737263   4.710   0.811   6.644  0.2651 -0.5521  0.7197
  124MOL   H11837264   4.743   0.638   6.617 -0.4387  0.5481 -0.1385
  124MOL   H11937265   4.980   1.172   6.394  0.3135 -0.8819  0.7894
  124MOL   H12037266   5.146   1.122   6.417 -0.2047  0.4237  0.4750
  124MOL   H12137267   5.031   1.146   6.549  1.4605 -2.2710  2.7784
  124MOL   C12237268   4.766   0.765   6.382 -0.1433  0.3523  0.2902
  124MOL   C12337269   4.762   0.814   6.232  0.7480  0.2444 -0.8573
  124MOL   C12437270   4.770   0.971   6.224  0.0119 -0.2272  0.3604
  124MOL   C12537271   4.899   0.759   6.173  0.2258 -0.5566 -0.1990
  124MOL   O12637272   4.974   0.836   6.113  0.5160  0.5876  0.8924
  124MOL   O12737273   4.913   0.635   6.179  0.5502 -0.4025  0.1958
  124MOL   C12837274   5.038   0.578   6.132 -0.0484  0.3171 -0.3062
  124MOL   H12937275   4.669   0.805   6.414 -1.3963 -0.5683 -2.2511
  124MOL   H13037276   4.740   0.659   6.380  0.0199  0.3096  0.4397
  124MOL   H13137277   4.866   1.008   6.261 -0.1327 -0.2482  0.7601
  124MOL   H13237278   4.766   1.000   6.119  0.9051 -1.0182  0.1025
  124MOL   H13337279   4.693   1.035   6.267 -0.1276  1.1121 -1.7809
  124MOL   H13437280   5.031   0.470   6.121  1.0026  0.2864 -0.7372
  124MOL   H13537281   5.131   0.598   6.186 -0.7789  2.0185  0.3443
  124MOL   H13637282   5.046   0.606   6.028 -0.7617 -0.8301 -0.6813
  124MOL   C13737283   4.622   0.759   6.181 -0.0766  0.5594  0.2512
  124MOL   C13837284   4.602   0.700   6.034  0.4639 -0.8815 -0.1495
  124MOL   C13937285   4.663   0.794   5.925 -0.9544 -0.5316 -0.8310
  124MOL   C14037286   4.653   0.556   6.027 -0.3086  0.6938  0.5582
  124MOL   O14137287   4.742   0.519   5.945 -0.9104  0.7611 -0.2816
  124MOL   O14237288   4.610   0.482   6.127 -0.2147 -0.2930  0.0885
  124MOL   C14337289   4.656   0.348   6.126  0.0302 -0.3819  0.6466
  124MOL   H14437290   4.558   0.847   6.186  0.5444  1.2039 -2.2537
  124MOL   H14537291   4.579   0.683   6.246  0.8799 -1.6693 -1.6502
  124MOL   H14637292   4.653   0.743   5.829  0.4594 -3.6030  0.5903
  124MOL   H14737293   4.631   0.898   5.934 -1.7093 -0.9053  1.1683
  124MOL   H14837294   4.770   0.795   5.947 -0.8465  2.8284 -1.2509
  124MOL   H14937295   4.647   0.314   6.023  1.1315  2.4799 -0.4551
  124MOL   H15037296   4.598   0.271   6.177  0.1243 -0.6104  0.4112
  124MOL   H15137297   4.761   0.339   6.155  0.3038  1.0130  0.1341
  124MOL   C15237298   4.444   0.674   6.009  0.9623  0.4813  0.0272
  124MOL   C15337299   4.368   0.647   5.866  0.3075 -0.1044 -0.6615
  124MOL   C15437300   4.355   0.786   5.801  0.4399 -0.5618  0.4290
  124MOL   C15537301   4.441   0.544   5.781  0.2482  0.1576 -0.2320
  124MOL   O15637302   4.505   0.581   5.685  0.1380 -0.2116 -0.4151
  124MOL   O15737303   4.424   0.416   5.824  0.0694 -0.0010  0.5587
  124MOL   C15837304   4.512   0.320   5.768 -0.0451 -0.0112  0.5233
  124MOL   H15937305   4.384   0.752   6.055  0.6636 -0.5544  1.3998
  124MOL   H16037306   4.421   0.588   6.071 -2.3040  1.1688 -0.1497
  124MOL   H16137307   4.354   0.780   5.693 -3.5898  0.4504  0.3141
  124MOL   H16237308   4.265   0.834   5.841 -0.1420  0.0516 -1.5511
  124MOL   H16337309   4.431   0.860   5.826  1.4859 -2.0581  1.7565
  124MOL   H16437310   4.491   0.218   5.799 -2.2321  0.7991  1.8260
  124MOL   H16537311   4.605   0.355   5.813  0.6927 -0.8559 -0.3257
  124MOL   H16637312   4.514   0.319   5.659  0.5919 -0.9993  0.5360
  124MOL   C16737313   4.221   0.589   5.898 -0.5087  0.1447 -1.0661
  124MOL   C16837314   4.119   0.548   5.786  0.8309 -0.0791 -0.0750
  124MOL   C16937315   4.149   0.624   5.648 -0.6166 -0.1824 -0.6619
  124MOL   C17037316   4.121   0.399   5.766 -0.2302  0.1592  0.1431
  124MOL   O17137317   4.155   0.341   5.662  0.1515 -0.8290  0.4528
  124MOL   O17237318   4.092   0.332   5.878 -0.2544 -0.3303 -0.0311
  124MOL   C17337319   4.081   0.189   5.873  0.0761 -0.4663 -0.0024
  124MOL   H17437320   4.178   0.677   5.947 -0.8438 -1.1354  0.9877
  124MOL   H17537321   4.233   0.518   5.980  1.3993  3.0427  1.3118
  124MOL   H17637322   4.134   0.731   5.660 -2.1526 -0.4356 -0.1454
  124MOL   H17737323   4.247   0.608   5.602  0.8595 -0.7554  2.5005
  124MOL   H17837324   4.084   0.582   5.571 -1.9596  0.7627 -0.0603
  124MOL   H17937325   4.149   0.132   5.809  0.9346  3.0822 -2.4086
  124MOL   H18037326   3.985   0.170   5.825 -0.7554  0.2448  1.3676
  124MOL   H18137327   4.065   0.154   5.975  0.6169  1.6674  0.8261
  124MOL   C18237328   3.974   0.588   5.838  0.3561 -0.0479  0.1409
  124MOL   C18337329   3.832   0.540   5.780 -0.3044 -0.4458  0.2308
  124MOL   C18437330   3.838   0.527   5.623 -0.0225  0.0066 -0.4935
  124MOL   C18537331   3.797   0.397   5.842 -0.5944  0.2047 -0.4549
  124MOL   O18637332   3.765   0.304   5.770  0.3861 -0.0450 -0.8260
  124MOL   O18737333   3.811   0.394   5.972  1.0304 -0.1269  0.2349
  124MOL   C18837334   3.783   0.279   6.048  0.0738 -0.2953  0.0886
  124MOL   H18937335   3.987   0.696   5.840  0.7795 -0.1000  0.2418
  124MOL   H19037336   3.964   0.581   5.946 -0.9318 -1.9705 -0.0844
  124MOL   H19137337   3.912   0.451   5.595  1.9159  1.2091  1.1604
  124MOL   H19237338   3.747   0.488   5.579  0.4011 -2.1984  0.4974
  124MOL   H19337339   3.866   0.622   5.577  0.3932  0.3815  0.5109
  124MOL   H19437340   3.827   0.302   6.145  0.2700  0.4750 -0.1767
  124MOL   H19537341   3.818   0.185   6.006 -1.3685 -0.0844 -1.6577
  124MOL   H19637342   3.681   0.260   6.079  0.1639 -1.1376 -0.1194
  124MOL   C19737343   3.728   0.650   5.829 -0.0226 -0.0739 -0.1691
  124MOL   C19837344   3.571   0.642   5.798  0.0746 -0.3346  0.3800
  124MOL   C19937345   3.550   0.634   5.652  0.7735  0.1042  0.8819
  124MOL   C20037346   3.507   0.518   5.872  0.1944 -0.1493 -1.2951
  124MOL   O20137347   3.546   0.493   5.986  0.3999  0.1052  0.7245
  124MOL   O20237348   3.396   0.468   5.814 -0.0764 -0.0021  0.0839
  124MOL   C20337349   3.339   0.359   5.879  0.3866  0.0061  0.1390
  124MOL   H20437350   3.760   0.747   5.792 -0.2674 -0.1144 -0.4974
  124MOL   H20537351   3.749   0.656   5.935  1.4131 -1.5725 -0.3434
  124MOL   H20637352   3.542   0.530   5.622  0.9867  0.3234  0.0484
  124MOL   H20737353   3.458   0.675   5.611  0.7760 -0.1812  0.5926
  124MOL   H20837354   3.632   0.672   5.590  1.3244  1.1927  2.2445
  124MOL   H20937355   3.408   0.277   5.863 -1.2313 -1.6296  1.3899
  124MOL   H21037356   3.250   0.332   5.821  1.2420 -1.5351 -0.4765
  124MOL   H21137357   3.323   0.368   5.986 -0.2692 -0.3408  0.0715
  124MOL   C21237358   3.503   0.768   5.874  0.1183  0.4954 -0.2140
  124MOL   C21337359   3.548   0.921   5.835 -0.1331 -0.0062 -0.0526
  124MOL   C21437360   3.588   0.947   5.687  0.1335 -0.3999  0.1487
  124MOL   C21537361   3.413   1.006   5.859 -0.4012 -0.3052  0.2020
  124MOL   O21637362   3.393   1.108   5.789  0.7041  0.3702  0.2142
  124MOL   O21737363   3.337   0.963   5.961 -0.3260  0.2661 -0.1131
  124MOL   C21837364   3.238   1.051   6.014  0.0233 -0.2081  0.0943
  124MOL   H21937365   3.511   0.763   5.983  0.9602 -0.3909 -0.3039
  124MOL   H22037366   3.398   0.748   5.852  1.1262 -2.7690 -2.4139
  124MOL   H22137367   3.593   1.050   5.653  1.1192 -0.2381  0.7663
  124MOL   H22237368   3.686   0.901   5.674 -0.5350 -2.3927  1.9526
  124MOL   H22337369   3.524   0.890   5.619  0.0517 -0.6428  0.4287
  124MOL   H22437370   3.263   1.157   6.028 -2.7902  0.6207 -0.8933
  124MOL   H22537371   3.208   1.008   6.109  1.0543 -0.4928  0.2942
  124MOL   H22637372   3.162   1.069   5.939  2.3649  2.0186 -1.8423
  124MOL   C22737373   3.669   0.957   5.926  0.2606 -0.5187 -0.0045
  124MOL   C22837374   3.675   1.069   6.039  0.3499 -0.2918 -0.2664
  124MOL   C22937375   3.636   1.205   5.975 -0.6951 -0.2103 -0.2458
  124MOL   C23037376   3.575   1.026   6.154  0.4394  0.1507 -0.2514
  124MOL   O23137377   3.480   1.095   6.196  0.2122 -0.0463 -0.0167
  124MOL   O23237378   3.602   0.899   6.197 -0.1163  0.9776  0.0197
  124MOL   C23337379   3.520   0.836   6.299  0.2188 -0.9216  0.0978
  124MOL   H23437380   3.748   0.990   5.858 -2.9044  2.2660 -2.4894
  124MOL   H23537381   3.707   0.868   5.976 -1.3554 -1.7974 -1.0180
  124MOL   H23637382   3.687   1.294   6.013  1.9510 -1.4639 -0.8224
  124MOL   H23737383   3.654   1.199   5.868  1.3491 -0.8193  0.1211
  124MOL   H23837384   3.529   1.226   5.976 -0.6436  0.0813  1.5235
  124MOL   H23937385   3.414   0.858   6.283  0.2735 -2.2369 -2.4775
  124MOL   H24037386   3.554   0.868   6.397 -0.2879 -0.0530 -0.0001
  124MOL   H24137387   3.520   0.727   6.287  1.3746 -0.7620 -1.6391
  124MOL   C24237388   3.816   1.076   6.105 -0.0296 -0.6494  0.6102
  124MOL   C24337389   3.953   1.119   6.025 -0.3908  0.0686  0.4817
  124MOL   C24437390   4.028   0.982   5.992 -0.0844 -0.0756  0.3143
  124MOL   C24537391   3.932   1.195   5.892  0.7440 -0.5707  0.6070
  124MOL   O24637392   3.938   1.137   5.787  0.2974  0.2899  0.1344
  124MOL   O24737393   3.900   1.325   5.908 -0.0751  0.1789  0.6089
  124MOL   C24837394   3.876   1.419   5.804  0.3939  0.3524  0.1869
  124MOL   H24937395   3.831   0.976   6.145  1.0134 -1.7956 -2.4315
  124MOL   H25037396   3.813   1.130   6.199  2.8214  0.3341  0.1991
  124MOL   H25137397   3.965   0.922   5.926 -1.5608  1.3293  0.4167
  124MOL   H25237398   4.124   0.997   5.943 -0.7646 -0.0011 -0.9996
  124MOL   H25337399   4.044   0.899   6.062  0.9281  0.9846  1.3641
  124MOL   H25437400   3.873   1.520   5.845 -1.0337  0.3367  0.1541
  124MOL   H25537401   3.784   1.407   5.747  0.0056 -3.7630  1.4967
  124MOL   H25637402   3.964   1.427   5.740 -0.3897  0.4574 -0.8781
  124MOL   C25737403   4.038   1.211   6.131  0.1062  0.3497 -0.1842
  124MOL   C25837404   4.128   1.158   6.252 -0.1633 -0.2433 -0.1404
  124MOL   C25937405   4.045   1.072   6.344  0.2143 -0.6495  0.6807
  124MOL   C26037406   4.246   1.082   6.178 -0.6579  0.0293  0.3206
  124MOL   O26137407   4.278   0.967   6.213 -0.2659  0.1193 -0.5071
  124MOL   O26237408   4.308   1.159   6.083 -0.5255 -0.1141 -0.9559
  124MOL   C26337409   4.420   1.103   6.026  0.5034 -0.7522  0.3938
  124MOL   H26437410   3.965   1.281   6.171 -2.0858 -1.0866 -1.5770
  124MOL   H26537411   4.109   1.267   6.071 -0.0996  0.4203 -0.3573
  124MOL   H26637412   3.958   1.130   6.375  0.9114  1.6919 -1.5664
  124MOL   H26737413   4.013   0.989   6.281 -0.7439  0.3525 -0.1558
  124MOL   H26837414   4.090   1.038   6.437  2.3977  4.4953  1.6584
  124MOL   H26937415   4.508   1.149   6.072 -0.5525  0.1669  1.5327
  124MOL   H27037416   4.421   1.124   5.919  0.3063 -0.6684  0.4092
  124MOL   H27137417   4.422   0.994   6.031  1.6158 -0.6642  2.6142
  124MOL   C27237418   4.181   1.286   6.323  0.4918 -0.0856  0.2224
  124MOL   C27337419   4.270   1.282   6.452 -0.0879  0.3621  0.0719
  124MOL   C27437420   4.341   1.421   6.472  0.0874 -0.3202  0.1841
  124MOL   C27537421   4.174   1.261   6.576 -0.1015  0.4235  0.6173
  124MOL   O27637422   4.187   1.165   6.652 -0.1467  0.4287 -0.5427
  124MOL   O27737423   4.085   1.359   6.582 -0.3086 -0.0851 -0.5355
  124MOL   C27837424   3.982   1.356   6.678  0.1564 -0.1815 -0.9442
  124MOL   H27937425   4.103   1.360   6.340  0.3845  0.0675 -0.8826
  124MOL   H28037426   4.253   1.337   6.258  2.0535 -3.0788 -0.4722
  124MOL   H28137427   4.275   1.505   6.452  1.6188  0.5551 -1.3029
  124MOL   H28237428   4.387   1.424   6.571  0.2629  1.8849  0.0429
  124MOL   H28337429   4.419   1.439   6.399 -0.6845 -0.6679 -0.7390
  124MOL   H28437430   3.914   1.276   6.649  1.3174 -0.4927 -2.8914
  124MOL   H28537431   3.918   1.444   6.682 -0.2416 -0.5623  2.1973
  124MOL   H28637432   4.019   1.346   6.780  0.4744 -0.9047 -1.1283
  124MOL   C28737433   4.382   1.169   6.451 -0.3725 -0.1068  0.0397
  124MOL   C28837434   4.485   1.166   6.567  0.2859  1.0279 -0.0430
  124MOL   C28937435   4.504   1.031   6.630  0.2807  0.1074  0.5471
  124MOL   C29037436   4.615   1.237   6.540 -0.4339 -0.0283 -0.2722
  124MOL   O29137437   4.679   1.288   6.632  0.3975  0.0339  0.0984
  124MOL   O29237438   4.650   1.239   6.407 -0.5349 -0.2070  0.4491
  124MOL   C29337439   4.741   1.329   6.351 -0.7488  0.2130  0.3102
  124MOL   H29437440   4.439   1.184   6.359 -1.6507  1.7289 -0.4815
  124MOL   H29537441   4.341   1.068   6.455  1.2258 -0.8851 -2.3117
  124MOL   H29637442   4.533   1.046   6.734 -1.4201 -0.8402  1.1830
  124MOL   H29737443   4.406   0.983   6.634  0.1763  0.2641 -0.0513
  124MOL   H29837444   4.564   0.955   6.578  0.5962  1.0741 -0.5247
  124MOL   H29937445   4.835   1.334   6.407 -0.3938  2.0291 -0.3927
  124MOL   H30037446   4.700   1.427   6.328  2.5549  1.9114  1.2411
  124MOL   H30137447   4.769   1.284   6.255 -2.3189 -0.0818 -0.0219
  124MOL   H30237448   4.439   1.224   6.648  1.3048 -1.0053  2.0731
  125MOL     C137449   0.118   3.529   1.731  0.4854 -0.2647  0.1938
  125MOL     C237450   0.248   3.585   1.678  0.3001  0.4998 -0.0894
  125MOL     C337451   0.232   3.730   1.663  0.1161  0.3474 -0.0143
  125MOL     C437452   0.360   3.561   1.776 -0.1741 -0.3417 -0.0240
  125MOL     O537453   0.342   3.519   1.892  0.2020  0.1214 -0.0164
  125MOL     O637454   0.483   3.585   1.729 -0.0088  1.2694  0.0514
  125MOL     C737455   0.585   3.564   1.823 -0.3875  0.6351  0.4245
  125MOL     H837456   0.085   3.555   1.832 -0.0346 -0.9891  0.2133
  125MOL     H937457   0.037   3.554   1.662  1.6591  1.7226 -0.5191
  125MOL    H1037458   0.307   3.774   1.598  1.0283 -1.0808  0.0594
  125MOL    H1137459   0.135   3.758   1.623 -1.0848 -2.1436  1.1102
  125MOL    H1237460   0.252   3.783   1.757 -0.0971 -0.7963  0.6842
  125MOL    H1337461   0.557   3.601   1.922 -0.3378  2.4823 -0.2331
  125MOL    H1437462   0.672   3.617   1.784  0.1065  2.8611  4.2445
  125MOL    H1537463   0.619   3.461   1.837 -1.1794  0.6420  2.6128
  125MOL    H1637464   0.111   3.424   1.758 -2.0650 -0.4554 -1.0855
  125MOL    C1737465   0.278   3.535   1.530  0.0003  0.1761 -0.3645
  125MOL    C1837466   0.292   3.380   1.491  0.0580 -0.3662 -0.0634
  125MOL    C1937467   0.354   3.294   1.607  0.0148 -0.1372  0.4215
  125MOL    C2037468   0.152   3.318   1.461 -0.4852 -0.5295 -0.6351
  125MOL    O2137469   0.048   3.379   1.456 -0.5525  0.3360  0.0199
  125MOL    O2237470   0.164   3.196   1.431 -0.5472  0.1737 -0.2694
  125MOL    C2337471   0.049   3.131   1.379 -0.2049  0.2793 -0.1242
  125MOL    H2437472   0.374   3.582   1.510 -1.1983  1.9202 -2.3433
  125MOL    H2537473   0.221   3.594   1.458 -2.0613 -2.0195 -0.5947
  125MOL    H2637474   0.381   3.192   1.580  1.0306  0.5604 -1.2645
  125MOL    H2737475   0.446   3.332   1.650 -0.7324  0.5920  1.3976
  125MOL    H2837476   0.295   3.284   1.698 -2.2266  0.1458 -0.9531
  125MOL    H2937477   0.075   3.029   1.352  0.0443  0.4717 -0.6017
  125MOL    H3037478   0.012   3.180   1.289 -2.2644 -0.0355  0.5096
  125MOL    H3137479   7.852   3.136   1.459  1.2257  0.9131  1.1914
  125MOL    C3237480   0.386   3.363   1.365 -0.5787  0.5329 -0.0058
  125MOL    C3337481   0.371   3.448   1.238 -0.2646  0.6468  0.3572
  125MOL    C3437482   0.222   3.468   1.198  0.5545 -0.2097 -0.7142
  125MOL    C3537483   0.439   3.587   1.253  0.4694 -0.1030 -0.5978
  125MOL    O3637484   0.537   3.609   1.331 -0.0398  0.0892 -0.2843
  125MOL    O3737485   0.391   3.681   1.170 -0.0469 -0.7603  0.2998
  125MOL    C3837486   0.458   3.805   1.153 -0.8570  0.1786  0.4343
  125MOL    H3937487   0.398   3.259   1.335  2.7540  0.4753  1.2656
  125MOL    H4037488   0.484   3.386   1.406 -0.9351  2.0546  0.0453
  125MOL    H4137489   0.209   3.511   1.099 -0.5015  0.6496 -0.2074
  125MOL    H4237490   0.166   3.374   1.197 -2.3994  1.4411  0.9517
  125MOL    H4337491   0.166   3.543   1.254 -0.1367  0.3550 -2.1455
  125MOL    H4437492   0.392   3.879   1.108  2.9728  1.5911 -3.1549
  125MOL    H4537493   0.546   3.794   1.089 -2.1308  0.3955 -1.3973
  125MOL    H4637494   0.495   3.846   1.247  0.7932 -1.5848  0.5709
  125MOL    C4737495   0.434   3.357   1.121 -0.7452  0.3957 -0.0052
  125MOL    C4837496   0.587   3.316   1.111 -0.3571  0.0626  0.4094
  125MOL    C4937497   0.677   3.448   1.106  0.0293 -0.3833 -0.3922
  125MOL    C5037498   0.623   3.232   1.238 -0.3358  0.4429  0.6001
  125MOL    O5137499   0.707   3.267   1.320 -0.6269  0.2659  0.2213
  125MOL    O5237500   0.554   3.122   1.240  0.4106  0.0470 -0.3192
  125MOL    C5337501   0.561   3.032   1.358  0.6497 -0.6897 -0.3002
  125MOL    H5437502   0.420   3.406   1.024 -0.0522  2.7215  1.0155
  125MOL    H5537503   0.371   3.269   1.110  2.4447 -1.5165 -3.9917
  125MOL    H5637504   0.779   3.420   1.077  1.0010  2.2605  0.3457
  125MOL    H5737505   0.631   3.536   1.061 -1.0700 -0.6781  0.1403
  125MOL    H5837506   0.694   3.485   1.207 -1.4661  2.1892 -1.0510
  125MOL    H5937507   0.632   2.953   1.335  1.4817  0.4221 -1.6471
  125MOL    H6037508   0.467   2.978   1.372 -0.4130  1.6127  1.7768
  125MOL    H6137509   0.599   3.077   1.450  1.8853 -1.6219 -0.3374
  125MOL    C6237510   0.607   3.228   0.979  0.0030 -0.8541  0.4748
  125MOL    C6337511   0.648   3.278   0.830 -0.9372  0.0652 -0.7253
  125MOL    C6437512   0.576   3.410   0.798  0.6742  1.2303 -0.3978
  125MOL    C6537513   0.802   3.302   0.829  0.0614  0.6757 -0.1757
  125MOL    O6637514   0.870   3.270   0.923  0.5788  0.4156 -0.2253
  125MOL    O6737515   0.850   3.371   0.728 -0.3150 -0.1345  0.3954
  125MOL    C6837516   0.994   3.391   0.712 -0.4151 -0.0499 -0.9243
  125MOL    H6937517   0.508   3.189   0.961 -0.2616 -1.0040  2.1916
  125MOL    H7037518   0.674   3.146   1.006  1.6689  0.1531 -0.4882
  125MOL    H7137519   0.587   3.423   0.690  0.5151 -1.7824 -0.8271
  125MOL    H7237520   0.471   3.393   0.823  0.8319 -1.1444 -1.1855
  125MOL    H7337521   0.622   3.494   0.850  0.3035  1.0168  0.2778
  125MOL    H7437522   1.048   3.460   0.778  1.2964 -0.4484 -1.8806
  125MOL    H7537523   1.006   3.423   0.609 -1.5367  1.1018 -0.7151
  125MOL    H7637524   1.036   3.291   0.711  2.1846  0.9817 -1.1813
  125MOL    C7737525   0.602   3.178   0.714 -0.2260  0.5411  0.0061
  125MOL    C7837526   0.641   3.032   0.710  0.3373 -0.4573  0.9207
  125MOL    C7937527   0.796   3.012   0.708  0.3013  0.0554 -0.3700
  125MOL    C8037528   0.584   2.947   0.826  0.4713 -1.0048 -0.0575
  125MOL    O8137529   0.646   2.890   0.913 -0.3449 -0.3870 -0.2069
  125MOL    O8237530   0.453   2.929   0.820 -0.0653 -0.5531  0.3375
  125MOL    C8337531   0.399   2.833   0.909 -0.5281 -0.4095  0.2850
  125MOL    H8437532   0.636   3.209   0.616  1.0408  0.9539  0.5543
  125MOL    H8537533   0.493   3.184   0.719 -0.2301 -0.6515  2.1350
  125MOL    H8637534   0.821   2.906   0.700  1.8369  0.3465  0.3126
  125MOL    H8737535   0.850   3.067   0.631 -0.9495 -1.1329 -2.1483
  125MOL    H8837536   0.827   3.049   0.806 -1.5554  0.6483  0.0220
  125MOL    H8937537   0.427   2.813   1.013  1.8221 -1.3170 -0.4756
  125MOL    H9037538   0.413   2.736   0.861  1.0274 -0.0762  0.0563
  125MOL    H9137539   0.291   2.850   0.913 -0.8256 -2.2275  0.8448
  125MOL    C9237540   0.566   2.987   0.571 -0.0642  0.0864  0.4089
  125MOL    C9337541   0.583   2.855   0.488  0.0004  0.4366 -0.4920
  125MOL    C9437542   0.570   2.727   0.581 -0.2550  0.4596 -0.0970
  125MOL    C9537543   0.470   2.854   0.385  0.1836 -0.7654  0.3674
  125MOL    O9637544   0.406   2.750   0.365 -0.0181 -0.6038  0.7038
  125MOL    O9737545   0.449   2.963   0.310  0.2522 -0.1985 -0.4337
  125MOL    C9837546   0.335   2.970   0.229  0.1700  0.2527  0.3786
  125MOL    H9937547   0.590   3.062   0.496  0.0621  2.4285  2.6961
  125MOL   H10037548   0.460   3.013   0.575 -0.2734 -0.3345 -2.0923
  125MOL   H10137549   0.649   2.729   0.656  1.4481 -0.4856 -1.8225
  125MOL   H10237550   0.482   2.724   0.645  0.1542  0.5542  0.4641
  125MOL   H10337551   0.588   2.633   0.528  2.9183  0.6393  0.5884
  125MOL   H10437552   0.248   2.951   0.292 -0.0718  1.4102  0.4025
  125MOL   H10537553   0.340   2.896   0.149  0.7157 -0.2438  0.8632
  125MOL   H10637554   0.310   3.068   0.189  1.2903  0.4404  0.1170
  125MOL   C10737555   0.721   2.841   0.419 -0.3852  0.1295 -0.2059
  125MOL   C10837556   0.748   2.822   0.264  0.1403 -0.5152  0.4982
  125MOL   C10937557   0.661   2.711   0.198  0.4249  0.4600 -0.4541
  125MOL   C11037558   0.726   2.954   0.189  0.3164 -0.7710 -0.3396
  125MOL   O11137559   0.697   3.060   0.247 -0.4730 -0.1584 -0.3781
  125MOL   O11237560   0.730   2.956   0.052 -0.0955  0.0411 -0.0070
  125MOL   C11337561   0.700   3.079   7.860 -0.0265  0.2758  0.4194
  125MOL   H11437562   0.770   2.754   0.464  1.3827 -0.0503 -2.3898
  125MOL   H11537563   0.771   2.934   0.446  0.7581  0.1061 -2.1465
  125MOL   H11637564   0.718   2.659   0.121  0.3875  1.1746 -0.9729
  125MOL   H11737565   0.621   2.635   0.264  1.1407 -0.9841 -1.6633
  125MOL   H11837566   0.567   2.736   0.149 -1.0785 -1.4258  1.3769
  125MOL   H11937567   0.683   3.056   7.755  1.4543  0.7381  0.0789
  125MOL   H12037568   0.781   3.150   7.872 -0.3686  0.6637  0.4705
  125MOL   H12137569   0.612   3.130   0.023  0.2812  0.3574  0.9848
  125MOL   C12237570   0.896   2.777   0.230  0.1159  0.0108 -0.7769
  125MOL   C12337571   1.030   2.850   0.276  0.1117  0.3587 -0.1611
  125MOL   C12437572   1.017   3.009   0.251 -0.2534  1.1677  0.1629
  125MOL   C12537573   1.066   2.839   0.427  0.9991  0.1497  0.9589
  125MOL   O12637574   1.001   2.772   0.504  0.2124 -0.1468  0.3421
  125MOL   O12737575   1.184   2.907   0.456  0.5390  0.2441 -0.2642
  125MOL   C12837576   1.241   2.916   0.586  0.6102  0.5267 -0.4671
  125MOL   H12937577   0.909   2.770   0.122  3.2782  0.8180 -0.5004
  125MOL   H13037578   0.907   2.677   0.272  3.3400  0.3524 -0.6841
  125MOL   H13137579   0.943   3.062   0.311  0.1701  1.6802  0.2437
  125MOL   H13237580   1.111   3.064   0.262 -0.6124  1.7835  0.1921
  125MOL   H13337581   0.987   3.047   0.153  0.8091  1.5826 -0.0188
  125MOL   H13437582   1.301   2.830   0.615 -1.0999 -0.9305 -1.1857
  125MOL   H13537583   1.163   2.949   0.653 -0.4821  0.9430 -1.9089
  125MOL   H13637584   1.319   2.991   0.573 -0.2362  1.4286 -0.4060
  125MOL   C13737585   1.145   2.797   0.181 -0.8167 -0.2686 -0.0507
  125MOL   C13837586   1.186   2.642   0.162  0.2139 -0.6605 -0.4136
  125MOL   C13937587   1.183   2.572   0.298  1.1304 -0.3120  0.3291
  125MOL   C14037588   1.082   2.565   0.078 -0.1394  0.3458  0.0006
  125MOL   O14137589   1.025   2.465   0.122 -0.4044  0.5484 -0.0900
  125MOL   O14237590   1.056   2.619   7.834 -0.3774 -0.2608  0.1904
  125MOL   C14337591   0.973   2.548   7.736 -0.7805  0.6575 -0.2660
  125MOL   H14437592   1.232   2.852   0.219 -0.9693  0.5343 -0.8617
  125MOL   H14537593   1.124   2.838   0.082 -1.0430 -0.6569 -0.1643
  125MOL   H14637594   1.253   2.617   0.369  2.1895 -1.4673  0.0472
  125MOL   H14737595   1.087   2.584   0.348 -0.1235  0.0717 -2.0948
  125MOL   H14837596   1.199   2.464   0.307  1.4690 -0.1801  1.3998
  125MOL   H14937597   0.871   2.537   7.774 -1.2703  1.7518 -1.2138
  125MOL   H15037598   1.020   2.452   7.716  1.0555  1.7153 -1.1305
  125MOL   H15137599   0.973   2.610   7.646 -0.1673  1.3706  0.2201
  125MOL   C15237600   1.326   2.632   0.090  0.2393 -0.0667 -0.1930
  125MOL   C15337601   1.441   2.536   0.139 -0.7739 -0.0614  0.2248
  125MOL   C15437602   1.491   2.573   0.283  0.2702 -0.5082  0.1594
  125MOL   C15537603   1.406   2.383   0.137 -0.3310 -0.4625 -0.6884
  125MOL   O15637604   1.294   2.342   0.112 -0.1931 -0.3622 -0.0469
  125MOL   O15737605   1.512   2.310   0.171 -0.0613 -0.4108  0.2668
  125MOL   C15837606   1.508   2.165   0.154  0.2950 -0.9073 -0.2889
  125MOL   H15937607   1.367   2.733   0.092 -0.1746  0.1973 -2.6836
  125MOL   H16037608   1.312   2.614   7.861 -1.6061  0.1498 -0.0014
  125MOL   H16137609   1.599   2.576   0.302 -0.3567  0.2035  3.9532
  125MOL   H16237610   1.470   2.678   0.299 -0.7050 -0.6985  0.1152
  125MOL   H16337611   1.444   2.517   0.364 -0.0401 -0.7912 -0.2167
  125MOL   H16437612   1.601   2.109   0.146  1.1600  0.5359 -0.5875
  125MOL   H16537613   1.446   2.145   0.067  2.2118 -1.4044 -1.5780
  125MOL   H16637614   1.442   2.130   0.233  3.0942 -0.6570  2.2451
  125MOL   C16737615   1.567   2.568   0.037  0.3476 -0.1420 -0.1589
  125MOL   C16837616   1.572   2.554   7.756  0.2382  0.3480 -0.0941
  125MOL   C16937617   1.526   2.409   7.713 -0.1642  0.4710 -0.4606
  125MOL   C17037618   1.486   2.661   7.685 -0.4117 -0.1387 -0.0249
  125MOL   O17137619   1.437   2.635   7.576 -0.7920 -0.5759  0.1252
  125MOL   O17237620   1.478   2.778   7.744 -0.1943  0.3610 -0.2564
  125MOL   C17337621   1.416   2.885   7.691 -0.3546 -0.1467  0.2308
  125MOL   H17437622   1.651   2.515   0.082  0.3654 -0.6848 -0.8131
  125MOL   H17537623   1.605   2.666   0.063  0.5106 -0.5375  1.1300
  125MOL   H17637624   1.566   2.333   7.780  0.6160 -0.2184 -1.6903
  125MOL   H17737625   1.418   2.398   7.727 -0.8553  3.0855 -3.0961
  125MOL   H17837626   1.548   2.383   7.609 -2.5346  1.5657 -1.2856
  125MOL   H17937627   1.319   2.842   7.667 -0.6101 -0.7167  2.2168
  125MOL   H18037628   1.466   2.923   7.601 -2.3275 -0.8734 -1.2144
  125MOL   H18137629   1.413   2.957   7.772 -1.1084 -0.9536  0.9275
  125MOL   C18237630   1.725   2.582   7.719 -0.5451  0.6190  0.2201
  125MOL   C18337631   1.788   2.606   7.575  0.1448  0.0719  0.0721
  125MOL   C18437632   1.719   2.519   7.472 -1.0823 -0.4690  0.5898
  125MOL   C18537633   1.771   2.751   7.525 -0.2778 -0.0135  0.2454
  125MOL   O18637634   1.724   2.845   7.595  0.1579 -0.0818 -0.2723
  125MOL   O18737635   1.792   2.764   7.395 -0.6580 -0.4864 -0.1349
  125MOL   C18837636   1.743   2.886   7.333  0.2983  0.5130  0.2017
  125MOL   H18937637   1.766   2.488   7.756 -0.5660 -0.3076 -2.0216
  125MOL   H19037638   1.756   2.667   7.779 -0.1848  0.4915  0.2186
  125MOL   H19137639   1.622   2.551   7.433  0.2782  1.1634 -1.5201
  125MOL   H19237640   1.777   2.513   7.380 -2.6005 -1.4413 -0.3244
  125MOL   H19337641   1.725   2.414   7.501 -0.9244 -0.8284 -0.7236
  125MOL   H19437642   1.636   2.880   7.314  0.3467  0.1155  0.0365
  125MOL   H19537643   1.804   2.907   7.245 -1.7460  0.8966 -1.1696
  125MOL   H19637644   1.762   2.968   7.402 -0.7622  0.2752  0.7746
  125MOL   C19737645   1.940   2.568   7.575  0.4934  0.2165  0.7333
  125MOL   C19837646   2.058   2.637   7.661 -0.3684 -0.2027  0.2870
  125MOL   C19937647   2.033   2.602   7.812 -0.1879 -0.0419  0.1623
  125MOL   C20037648   2.189   2.566   7.625  0.8958  0.5160 -0.0036
  125MOL   O20137649   2.252   2.500   7.715  0.2092 -0.4801  0.2291
  125MOL   O20237650   2.226   2.582   7.492 -0.2017  0.1841  0.0587
  125MOL   C20337651   2.355   2.548   7.460 -0.3932 -0.8584 -0.0245
  125MOL   H20437652   1.974   2.562   7.472  0.6065 -2.3574  0.8866
  125MOL   H20537653   1.937   2.461   7.594 -1.6544  0.0190 -0.5951
  125MOL   H20637654   1.959   2.675   7.846  1.0538  1.6567 -0.7153
  125MOL   H20737655   1.990   2.502   7.818  0.7392 -0.5127 -0.7578
  125MOL   H20837656   2.124   2.608   7.872 -1.6777 -2.0017  2.7405
  125MOL   H20937657   2.361   2.439   7.455  0.8002 -0.8722  1.3147
  125MOL   H21037658   2.431   2.581   7.531 -1.4091  0.1442  0.6020
  125MOL   H21137659   2.379   2.594   7.364 -2.0558 -2.6528 -1.3287
  125MOL   C21237660   2.071   2.797   7.628 -0.1934 -0.3291  0.3044
  125MOL   C21337661   2.177   2.905   7.694  0.3137 -0.4066  0.2980
  125MOL   C21437662   2.325   2.852   7.686  0.1863 -0.1199 -0.6234
  125MOL   C21537663   2.185   3.032   7.610  0.6187 -0.3102 -0.8093
  125MOL   O21637664   2.278   3.112   7.602  0.2137 -0.7995  0.2957
  125MOL   O21737665   2.072   3.048   7.538 -0.1572 -0.7876  0.0830
  125MOL   C21837666   2.080   3.131   7.429  0.1695 -0.0632 -0.1552
  125MOL   H21937667   1.976   2.849   7.622 -1.8501 -3.2489 -0.0246
  125MOL   H22037668   2.088   2.805   7.520 -2.7667  0.3009 -0.0773
  125MOL   H22137669   2.402   2.924   7.712 -1.4725  1.1612  0.8993
  125MOL   H22237670   2.343   2.753   7.727  0.8001 -0.0292 -0.6763
  125MOL   H22337671   2.352   2.827   7.583 -1.3223 -1.5744 -0.6916
  125MOL   H22437672   2.163   3.104   7.364  2.0410  3.7289  0.4766
  125MOL   H22537673   2.101   3.235   7.455  1.2664  0.0809 -1.5349
  125MOL   H22637674   1.986   3.130   7.374 -0.1432  0.3953  0.3609
  125MOL   C22737675   2.124   2.929   7.833 -0.0015 -0.1080  0.4617
  125MOL   C22837676   2.167   3.033   0.067  0.6888  1.0164 -0.5807
  125MOL   C22937677   2.319   3.031   0.075 -0.3800  0.0856  0.3860
  125MOL   C23037678   2.126   3.175   0.030 -0.1930 -0.4021  0.1732
  125MOL   O23137679   2.208   3.270   0.043 -0.1938  0.2248 -0.7657
  125MOL   O23237680   2.003   3.186   7.871 -0.2059  0.2096  0.1629
  125MOL   C23337681   1.948   3.307   7.828  1.1767  0.3595  0.3829
  125MOL   H23437682   2.105   2.834   0.006 -1.5141 -0.1131 -0.1100
  125MOL   H23537683   2.020   2.952   7.811 -0.2186 -2.7913 -1.5660
  125MOL   H23637684   2.363   2.931   0.077 -0.8046 -0.1730 -1.8686
  125MOL   H23737685   2.358   3.085   7.867 -1.0090  0.2227  0.1848
  125MOL   H23837686   2.347   3.073   0.171 -1.0272 -1.5767  1.3271
  125MOL   H23937687   1.843   3.281   7.816  1.0290  1.5662 -1.0694
  125MOL   H24037688   1.989   3.352   7.738 -1.1781  2.9842  0.5661
  125MOL   H24137689   1.956   3.381   0.030  0.9940  0.9008 -0.1028
  125MOL   C24237690   2.125   2.991   0.216 -1.0943 -0.1069  0.0945
  125MOL   C24337691   1.984   3.007   0.280 -0.3723  0.3195  0.2877
  125MOL   C24437692   1.957   3.156   0.313  0.1153  0.2623  0.3954
  125MOL   C24537693   1.868   2.952   0.186 -0.4162  0.4354 -0.2482
  125MOL   O24637694   1.868   2.835   0.156 -1.0541 -0.2909  0.2312
  125MOL   O24737695   1.791   3.042   0.124  0.4305 -0.4135 -0.3868
  125MOL   C24837696   1.698   3.007   0.023 -0.4992  0.3948 -1.2411
  125MOL   H24937697   2.189   3.038   0.291  0.2914 -0.2213 -0.9928
  125MOL   H25037698   2.149   2.885   0.211  0.2900  0.2020  0.1235
  125MOL   H25137699   1.958   3.214   0.221 -0.2515  0.8293  0.7408
  125MOL   H25237700   1.858   3.164   0.358  0.7340 -1.2900  2.0846
  125MOL   H25337701   2.037   3.204   0.370  0.9959  1.4472 -1.7935
  125MOL   H25437702   1.598   2.994   0.066 -1.7643  0.3904 -4.0439
  125MOL   H25537703   1.715   2.920   7.836  1.0758  0.3293 -0.7560
  125MOL   H25637704   1.677   3.091   7.834 -1.6924  1.2021  0.1275
  125MOL   C25737705   1.985   2.911   0.409  0.3908  0.4228  0.1551
  125MOL   C25837706   1.871   2.905   0.521 -0.3989 -0.2835 -0.4673
  125MOL   C25937707   1.876   3.038   0.606  0.4804  0.0984  1.2146
  125MOL   C26037708   1.730   2.883   0.455 -0.7023 -0.1139 -0.7612
  125MOL   O26137709   1.692   2.770   0.422 -0.5655  0.0549  0.4543
  125MOL   O26237710   1.652   2.996   0.439 -0.0053  0.8838  0.2255
  125MOL   C26337711   1.525   2.970   0.384  0.5519 -0.5070 -0.6432
  125MOL   H26437712   2.076   2.937   0.461 -0.3095  0.2545  1.4809
  125MOL   H26537713   2.002   2.810   0.371  0.9496  0.1599  1.0988
  125MOL   H26637714   1.868   3.138   0.563 -4.8414 -0.8872 -0.3873
  125MOL   H26737715   1.801   3.026   0.683  0.7096  1.8410  1.7186
  125MOL   H26837716   1.966   3.049   0.666  0.3896  1.3460  1.1398
  125MOL   H26937717   1.469   2.896   0.441 -0.6636  0.3721 -0.6949
  125MOL   H27037718   1.541   2.935   0.282  0.1227 -1.0157 -0.5333
  125MOL   H27137719   1.462   3.059   0.376  0.8704 -0.0358  1.7650
  125MOL   C27237720   1.928   2.789   0.607  0.9907 -0.1289  0.1907
  125MOL   C27337721   1.881   2.756   0.752  0.7340  0.1522 -0.0184
  125MOL   C27437722   1.939   2.855   0.860  0.5534 -0.4299  0.2053
  125MOL   C27537723   1.722   2.753   0.768 -0.0679 -0.3830 -0.2871
  125MOL   O27637724   1.659   2.837   0.826 -0.3327  0.3040  0.0785
  125MOL   O27737725   1.663   2.648   0.711  0.1806  0.0269  0.1578
  125MOL   C27837726   1.520   2.645   0.691 -0.7542  0.0017 -0.7860
  125MOL   H27937727   2.037   2.796   0.608  1.0101 -0.3486 -0.2732
  125MOL   H28037728   1.911   2.700   0.546  0.6010 -0.0526  0.1900
  125MOL   H28137729   2.048   2.855   0.860  0.6202  3.0721  0.4634
  125MOL   H28237730   1.900   2.956   0.847 -1.3228 -1.1757 -0.0938
  125MOL   H28337731   1.910   2.825   0.961  0.1088 -0.7022 -0.0048
  125MOL   H28437732   1.468   2.672   0.783 -1.5419 -1.9834 -0.6289
  125MOL   H28537733   1.492   2.541   0.671 -0.7500  0.0647 -1.1301
  125MOL   H28637734   1.500   2.711   0.607  1.7677  1.5481 -0.2345
  125MOL   C28737735   1.928   2.615   0.793  1.1053  0.4971  0.1175
  125MOL   C28837736   2.075   2.584   0.785 -0.2507 -0.2517 -0.6725
  125MOL   C28937737   2.133   2.546   0.924  0.6594 -0.2094 -0.2025
  125MOL   C29037738   2.120   2.476   0.680 -0.1336 -0.0822  0.6022
  125MOL   O29137739   2.143   2.361   0.707 -0.2221  0.1058 -0.4939
  125MOL   O29237740   2.145   2.534   0.559  0.3317  0.1596 -0.4377
  125MOL   C29337741   2.205   2.457   0.456 -0.0643  0.2777 -0.0295
  125MOL   H29437742   1.870   2.536   0.746 -0.1635  0.3324  1.8857
  125MOL   H29537743   1.889   2.594   0.893  2.9325 -0.1772  0.7030
  125MOL   H29637744   2.233   2.506   0.911  1.1138  0.5933  0.8372
  125MOL   H29737745   2.138   2.629   0.995  1.9925 -0.6273  0.1953
  125MOL   H29837746   2.078   2.461   0.965  1.1188 -0.8083 -0.8048
  125MOL   H29937747   2.142   2.421   0.375 -0.3526 -1.9763  1.1472
  125MOL   H30037748   2.254   2.370   0.499 -0.0814  0.3291  0.0927
  125MOL   H30137749   2.273   2.516   0.394 -1.6185  2.6001  0.4222
  125MOL   H30237750   2.131   2.673   0.756 -0.7745  0.0331 -0.8136
  126MOL     C137751   4.747   4.074   6.571  0.1144  0.2080  0.0028
  126MOL     C237752   4.723   3.934   6.635  0.6027 -0.0060 -0.1808
  126MOL     C337753   4.709   3.827   6.521 -0.4154 -0.1715 -0.0360
  126MOL     C437754   4.858   3.909   6.716  0.7500 -0.6937  0.8700
  126MOL     O537755   4.881   3.974   6.815 -0.1313  0.0628 -0.4314
  126MOL     O637756   4.944   3.828   6.651 -0.5041  0.0936  0.1126
  126MOL     C737757   5.067   3.786   6.701 -0.4296  0.6670 -0.3147
  126MOL     H837758   4.654   4.112   6.527  0.7439 -1.7320 -3.1480
  126MOL     H937759   4.772   4.148   6.647 -0.4475  1.5129 -1.0441
  126MOL    H1037760   4.790   3.835   6.448  0.0240  3.8105  0.7672
  126MOL    H1137761   4.690   3.725   6.555 -2.1971  0.1750  0.0258
  126MOL    H1237762   4.624   3.854   6.458 -0.9735  0.8493  1.1457
  126MOL    H1337763   5.128   3.843   6.631 -1.4254 -0.4570 -2.1280
  126MOL    H1437764   5.083   3.680   6.684 -1.1441  0.4474  0.3161
  126MOL    H1537765   5.083   3.810   6.806  1.2975  0.3299 -0.4977
  126MOL    H1637766   4.836   4.083   6.509 -0.8434 -0.6714 -1.5398
  126MOL    C1737767   4.591   3.946   6.727 -0.0475 -0.2912  0.2552
  126MOL    C1837768   4.516   3.823   6.787 -0.4222 -0.2380  0.2807
  126MOL    C1937769   4.437   3.732   6.688 -0.6009 -0.0100 -0.1589
  126MOL    C2037770   4.615   3.743   6.864  0.5092 -0.2117  0.7695
  126MOL    O2137771   4.642   3.632   6.816  0.0473  0.4567 -1.2758
  126MOL    O2237772   4.663   3.814   6.960 -0.1722 -0.0362 -0.4073
  126MOL    C2337773   4.764   3.743   7.033 -0.4274 -0.3334 -0.0471
  126MOL    H2437774   4.519   3.993   6.660  1.5167  0.3857 -0.9900
  126MOL    H2537775   4.613   4.024   6.800 -0.9277 -1.0231  1.3214
  126MOL    H2637776   4.500   3.668   6.626  1.7419  0.9393  1.1423
  126MOL    H2737777   4.386   3.649   6.735  1.0023  0.5195  2.5849
  126MOL    H2837778   4.370   3.789   6.623 -0.5659  1.0578  0.7176
  126MOL    H2937779   4.815   3.799   7.111 -0.4088  0.6662 -0.7596
  126MOL    H3037780   4.850   3.729   6.967 -0.9663 -1.4639 -0.5141
  126MOL    H3137781   4.726   3.646   7.064 -1.6705 -0.0490 -0.6186
  126MOL    C3237782   4.400   3.879   6.873  0.3956  0.1919 -0.6185
  126MOL    C3337783   4.301   3.790   6.969  0.7365 -0.6245  0.6997
  126MOL    C3437784   4.368   3.669   7.026  0.0140  0.0878 -0.0601
  126MOL    C3537785   4.266   3.880   7.088  0.6304  0.2607  1.3252
  126MOL    O3637786   4.323   3.858   7.198  0.3006 -0.4777  0.7186
  126MOL    O3737787   4.196   3.983   7.052 -0.0400  0.1753 -0.4072
  126MOL    C3837788   4.166   4.073   7.159  0.5876 -0.9508  0.2754
  126MOL    H3937789   4.337   3.940   6.808 -0.9066 -0.3293  0.1402
  126MOL    H4037790   4.446   3.960   6.929  0.0733  0.9186 -1.3825
  126MOL    H4137791   4.397   3.608   6.940 -0.5505 -0.2294 -0.0248
  126MOL    H4237792   4.460   3.688   7.081 -0.3012  1.3253  0.0443
  126MOL    H4337793   4.307   3.606   7.091 -0.9675 -1.2901 -2.2506
  126MOL    H4437794   4.088   4.040   7.228  0.0973 -2.8013 -1.1084
  126MOL    H4537795   4.130   4.169   7.122 -0.9162 -1.4021  0.5137
  126MOL    H4637796   4.251   4.095   7.223  0.6041 -0.3360  0.0450
  126MOL    C4737797   4.169   3.752   6.889 -0.0605  0.3548  0.0430
  126MOL    C4837798   4.050   3.658   6.936  0.2963 -0.0218 -0.8552
  126MOL    C4937799   4.083   3.509   6.901 -0.2939 -0.0629  0.5234
  126MOL    C5037800   4.029   3.671   7.095  0.1311  0.3529  0.4081
  126MOL    O5137801   3.993   3.782   7.150  0.2699  0.0294 -0.0994
  126MOL    O5237802   4.056   3.555   7.168 -0.0906 -0.5186  0.3184
  126MOL    C5337803   4.034   3.553   7.304 -0.1141  0.2931  1.3023
  126MOL    H5437804   4.203   3.704   6.797  0.5800  1.4961 -0.3215
  126MOL    H5537805   4.132   3.851   6.862  0.6205  1.1932  2.0817
  126MOL    H5637806   4.176   3.474   6.945  0.5468  0.8132 -0.5271
  126MOL    H5737807   4.015   3.427   6.924  0.1966  0.3658  3.7625
  126MOL    H5837808   4.105   3.500   6.795 -1.4325 -0.8655  0.3504
  126MOL    H5937809   4.089   3.632   7.354  0.3064  0.9309 -0.1510
  126MOL    H6037810   4.061   3.459   7.352 -1.2101 -1.8650 -2.0881
  126MOL    H6137811   3.930   3.570   7.331 -0.2163  1.9241 -0.0365
  126MOL    C6237812   3.918   3.694   6.871  0.1283  0.4241  0.7863
  126MOL    C6337813   3.769   3.638   6.900  1.1120  0.1404  0.2894
  126MOL    C6437814   3.765   3.486   6.923  0.0693 -0.2474 -0.0691
  126MOL    C6537815   3.711   3.724   7.018  0.0357  0.2303  0.2141
  126MOL    O6637816   3.721   3.845   7.011 -0.0822 -0.5126 -0.2299
  126MOL    O6737817   3.642   3.655   7.115 -0.2064  0.1706  0.0589
  126MOL    C6837818   3.568   3.726   7.212 -0.4605 -0.2086 -0.4191
  126MOL    H6937819   3.932   3.653   6.771 -0.5292  2.0341  0.0154
  126MOL    H7037820   3.919   3.803   6.865  0.7128  0.3709 -0.1713
  126MOL    H7137821   3.665   3.457   6.956  0.0823  0.6323  0.7762
  126MOL    H7237822   3.790   3.438   6.829  1.5112  0.7999 -0.2258
  126MOL    H7337823   3.827   3.461   7.010 -1.0033  2.8863  1.6765
  126MOL    H7437824   3.527   3.821   7.179  0.2561  1.1889  2.4621
  126MOL    H7537825   3.639   3.734   7.295  0.4068 -1.4092 -1.0200
  126MOL    H7637826   3.478   3.677   7.249 -0.4637  0.3234  0.2789
  126MOL    C7737827   3.683   3.675   6.773 -0.1325 -0.6319 -0.5410
  126MOL    C7837828   3.523   3.676   6.746  0.1951  0.3902 -0.4800
  126MOL    C7937829   3.516   3.745   6.603 -0.4586  1.1102 -0.4225
  126MOL    C8037830   3.484   3.528   6.734 -0.0575 -0.7715 -0.1486
  126MOL    O8137831   3.468   3.465   6.633  0.0324  0.0849 -0.2531
  126MOL    O8237832   3.466   3.477   6.856 -0.0233 -0.0732  0.2237
  126MOL    C8337833   3.409   3.350   6.872  0.0403 -0.4933 -0.7294
  126MOL    H8437834   3.727   3.617   6.691  0.3838 -0.7037 -0.2119
  126MOL    H8537835   3.714   3.778   6.756 -0.1647 -0.3387  1.1412
  126MOL    H8637836   3.533   3.852   6.600  0.7362  0.9819  1.0137
  126MOL    H8737837   3.607   3.726   6.546 -0.3478 -0.9049  0.3623
  126MOL    H8837838   3.431   3.719   6.540  0.8492 -1.6658 -1.1615
  126MOL    H8937839   3.419   3.328   6.978  0.5329  0.1715 -0.6326
  126MOL    H9037840   3.455   3.273   6.810 -4.1032 -0.9155 -3.5064
  126MOL    H9137841   3.308   3.341   6.832 -0.3694  0.4131  0.0941
  126MOL    C9237842   3.443   3.766   6.847 -0.1833  0.9575 -0.4257
  126MOL    C9337843   3.294   3.813   6.828 -0.0606  0.1948  0.9151
  126MOL    C9437844   3.205   3.722   6.743  0.0411  0.4900 -0.2536
  126MOL    C9537845   3.232   3.811   6.979 -0.3730 -0.2773  0.2942
  126MOL    O9637846   3.167   3.715   7.014 -0.2285  0.2658 -1.0152
  126MOL    O9737847   3.277   3.906   7.060 -0.0015  0.1805 -0.2359
  126MOL    C9837848   3.238   3.910   7.196  0.7359 -0.1552  0.0448
  126MOL    H9937849   3.501   3.857   6.861  1.3124  0.1534 -1.1496
  126MOL   H10037850   3.453   3.716   6.943 -2.2272  0.7838 -0.2820
  126MOL   H10137851   3.196   3.625   6.792  0.7019  1.0353  0.9978
  126MOL   H10237852   3.102   3.757   6.747 -0.1068 -0.1091  1.5417
  126MOL   H10337853   3.234   3.712   6.639 -0.4283  2.3534 -0.5736
  126MOL   H10437854   3.265   4.007   7.237  0.2850  0.1670 -0.4089
  126MOL   H10537855   3.277   3.832   7.261  1.2312  0.5319  0.5769
  126MOL   H10637856   3.130   3.902   7.204  0.5899  0.7941 -0.7839
  126MOL   C10737857   3.294   3.968   6.776  0.3720 -0.0464 -0.5624
  126MOL   C10837858   3.171   4.050   6.710  0.0942 -0.1404  0.4547
  126MOL   C10937859   3.229   4.199   6.695  0.0586 -0.2711  0.8283
  126MOL   C11037860   3.153   3.998   6.568 -0.4953  0.5508  0.1635
  126MOL   O11137861   3.222   3.918   6.510  0.4286 -0.5073  0.0536
  126MOL   O11237862   3.053   4.056   6.498 -0.0380 -0.2532 -0.1799
  126MOL   C11337863   3.031   4.024   6.364  0.2412 -0.8238 -0.0564
  126MOL   H11437864   3.380   3.978   6.710  1.5060 -1.8399  0.5942
  126MOL   H11537865   3.331   4.029   6.858  0.2275 -0.7770  0.0562
  126MOL   H11637866   3.317   4.207   6.632 -1.7905  0.5438 -1.7165
  126MOL   H11737867   3.158   4.271   6.657 -0.0819 -1.0093 -0.3213
  126MOL   H11837868   3.283   4.224   6.787 -0.0869  0.4323  0.7195
  126MOL   H11937869   2.988   3.927   6.341  0.7979 -1.7063  2.4549
  126MOL   H12037870   3.118   4.041   6.300  0.4079  2.0957  0.8737
  126MOL   H12137871   2.949   4.089   6.333 -0.0915 -2.1220 -1.9443
  126MOL   C12237872   3.034   4.041   6.784  0.2974 -0.4225  0.1939
  126MOL   C12337873   2.988   4.146   6.890 -0.2659 -0.3260 -0.9766
  126MOL   C12437874   3.102   4.182   6.996 -0.0049  0.3013  0.0463
  126MOL   C12537875   2.947   4.277   6.810  0.1159 -0.8347 -0.4780
  126MOL   O12637876   2.890   4.264   6.701 -0.4108  0.1262 -0.3436
  126MOL   O12737877   2.969   4.393   6.873  0.5554 -1.1151  0.3282
  126MOL   C12837878   2.926   4.519   6.816  0.3528 -0.9802 -0.8398
  126MOL   H12937879   3.025   3.941   6.827  2.3641 -1.1882 -1.0911
  126MOL   H13037880   2.948   4.025   6.719  1.8698 -3.0582 -1.3189
  126MOL   H13137881   3.105   4.289   7.015 -0.7092  0.3021  0.1753
  126MOL   H13237882   3.077   4.147   7.097  0.7339 -1.4028 -0.3357
  126MOL   H13337883   3.201   4.144   6.971 -0.8387 -1.3812 -0.7957
  126MOL   H13437884   2.840   4.553   6.874  2.3215 -2.0043  2.8572
  126MOL   H13537885   2.901   4.511   6.710 -0.2171  0.3124 -0.8203
  126MOL   H13637886   3.003   4.596   6.823 -0.1776 -0.4643 -0.5363
  126MOL   C13737887   2.871   4.087   6.970  0.1982 -0.1423 -0.0146
  126MOL   C13837888   2.760   4.173   7.047 -0.2288  0.0745  0.1844
  126MOL   C13937889   2.822   4.284   7.132 -0.5960 -0.4806  0.0239
  126MOL   C14037890   2.657   4.227   6.940 -0.4626 -0.6265 -0.0753
  126MOL   O14137891   2.612   4.340   6.943  0.8171  0.1632 -0.2860
  126MOL   O14237892   2.620   4.132   6.845 -0.2756 -0.0269 -0.8426
  126MOL   C14337893   2.539   4.177   6.733 -0.1518 -0.2887 -0.7846
  126MOL   H14437894   2.916   4.015   7.038  1.2116  2.3606  2.0618
  126MOL   H14537895   2.823   4.017   6.903  0.7907 -1.4980  0.9629
  126MOL   H14637896   2.769   4.375   7.162 -0.9869  0.1265 -2.3923
  126MOL   H14737897   2.878   4.252   7.220  1.5717  0.5319 -0.9584
  126MOL   H14837898   2.903   4.332   7.078 -1.0536  1.6524  1.1476
  126MOL   H14937899   2.590   4.231   6.653 -1.6570  1.6317 -0.4884
  126MOL   H15037900   2.460   4.246   6.762  0.1655 -1.8217  4.1874
  126MOL   H15137901   2.491   4.087   6.693 -2.8824 -0.0788  1.8657
  126MOL   C15237902   2.695   4.066   7.145 -0.1516 -0.2104 -0.3396
  126MOL   C15337903   2.561   4.082   7.220 -0.1159 -0.0812 -0.3367
  126MOL   C15437904   2.441   4.057   7.115  0.1604  0.9438  0.1709
  126MOL   C15537905   2.551   3.952   7.314  0.0427  0.6511  0.0888
  126MOL   O15637906   2.568   3.961   7.432 -0.1062 -0.4696 -0.2439
  126MOL   O15737907   2.543   3.832   7.250  0.3207  0.2618  0.0176
  126MOL   C15837908   2.524   3.713   7.324  0.2332 -0.4656 -0.2312
  126MOL   H15937909   2.773   4.044   7.219  0.0402 -2.4008 -1.1819
  126MOL   H16037910   2.684   3.972   7.093 -0.5155 -0.3533 -0.0041
  126MOL   H16137911   2.441   4.137   7.041  1.8460  0.7137 -0.0880
  126MOL   H16237912   2.461   3.964   7.061  0.8916 -0.7133  3.1791
  126MOL   H16337913   2.350   4.057   7.176  0.1450 -2.0647  0.2293
  126MOL   H16437914   2.591   3.698   7.409 -0.0251 -0.3725 -0.0116
  126MOL   H16537915   2.535   3.635   7.249  0.7354  0.8789 -1.5959
  126MOL   H16637916   2.423   3.721   7.363 -0.2355  2.5048 -1.9089
  126MOL   C16737917   2.543   4.220   7.296  0.2638  0.8606 -0.0258
  126MOL   C16837918   2.408   4.278   7.354  0.4140  0.4338 -0.2945
  126MOL   C16937919   2.324   4.173   7.419 -1.1220 -0.0921 -0.6315
  126MOL   C17037920   2.455   4.382   7.466 -0.0786  0.4480 -0.4799
  126MOL   O17137921   2.391   4.387   7.572  0.2071 -0.1888  0.1632
  126MOL   O17237922   2.564   4.450   7.441  0.8185 -0.6212  0.3288
  126MOL   C17337923   2.627   4.526   7.549  0.0849 -0.3633  0.6807
  126MOL   H17437924   2.587   4.295   7.230 -0.9561  1.0042 -0.6774
  126MOL   H17537925   2.617   4.224   7.376  0.6944 -0.7762 -0.3236
  126MOL   H17637926   2.383   4.112   7.487 -1.6685  0.5991  0.4819
  126MOL   H17737927   2.237   4.214   7.470  0.5398  0.5090  1.7988
  126MOL   H17837928   2.285   4.098   7.350  1.6788 -0.5213 -1.8320
  126MOL   H17937929   2.735   4.516   7.535  0.0645  0.4137 -0.0720
  126MOL   H18037930   2.606   4.486   7.648 -0.3528 -1.1571  0.2653
  126MOL   H18137931   2.599   4.632   7.550  0.7218 -0.1904  0.4949
  126MOL   C18237932   2.334   4.359   7.244  0.9920 -0.3802 -0.6213
  126MOL   C18337933   2.212   4.458   7.253 -0.3867 -0.6577 -0.8535
  126MOL   C18437934   2.093   4.382   7.315 -0.7477  0.0758  0.4802
  126MOL   C18537935   2.245   4.582   7.342  0.1553  0.1811  0.4398
  126MOL   O18637936   2.152   4.627   7.416 -0.0962  0.6814 -0.5369
  126MOL   O18737937   2.364   4.640   7.324  0.2387 -0.8623 -0.3673
  126MOL   C18837938   2.405   4.748   7.402 -0.0208  0.1628  0.8215
  126MOL   H18937939   2.311   4.285   7.167  1.1927 -0.3586 -0.7018
  126MOL   H19037940   2.415   4.420   7.204  1.1320 -0.0773  0.1361
  126MOL   H19137941   2.100   4.279   7.282  0.5269  0.8153 -1.6882
  126MOL   H19237942   2.108   4.358   7.420  1.2353  1.1030  0.4668
  126MOL   H19337943   1.993   4.425   7.307 -0.3711  1.2284  1.7998
  126MOL   H19437944   2.496   4.793   7.363 -0.1740 -1.2449 -1.2343
  126MOL   H19537945   2.410   4.715   7.506 -1.1686 -1.1859  0.4655
  126MOL   H19637946   2.339   4.833   7.390  0.5801  0.7915  1.8483
  126MOL   C19737947   2.166   4.522   7.119  0.2639 -0.4881 -0.0861
  126MOL   C19837948   2.136   4.441   6.982 -0.2493  0.5868  0.2986
  126MOL   C19937949   2.273   4.396   6.918 -0.2835  0.4286  0.5108
  126MOL   C20037950   2.053   4.311   7.009  0.4359 -0.4067 -0.1270
  126MOL   O20137951   2.102   4.197   7.015 -0.4666  0.1236  0.2773
  126MOL   O20237952   1.927   4.331   7.044 -0.4438 -0.1364  0.1706
  126MOL   C20337953   1.853   4.212   7.056  0.7463 -0.5097  0.0570
  126MOL   H20437954   2.241   4.597   7.092 -0.4089  0.1993 -0.0822
  126MOL   H20537955   2.083   4.586   7.151  0.8941  1.2786 -1.8359
  126MOL   H20637956   2.337   4.330   6.977 -1.3476 -1.0273  0.0463
  126MOL   H20737957   2.248   4.327   6.838  0.5533  1.7393 -0.9021
  126MOL   H20837958   2.329   4.482   6.882  0.3739 -0.7594 -1.3149
  126MOL   H20937959   1.896   4.158   7.141 -1.7811 -1.4921  0.7725
  126MOL   H21037960   1.863   4.145   6.971  0.4281  2.2881 -2.2571
  126MOL   H21137961   1.747   4.225   7.076  0.6600 -3.8470  2.1656
  126MOL   C21237962   2.052   4.547   6.899 -0.8812 -1.0542 -0.5156
  126MOL   C21337963   1.993   4.525   6.754  0.4695  0.8268 -0.3356
  126MOL   C21437964   1.928   4.659   6.727 -0.5711 -0.9060 -0.3031
  126MOL   C21537965   2.099   4.492   6.655 -0.8212  0.2496 -0.2059
  126MOL   O21637966   2.126   4.370   6.622  0.2536  0.4023 -0.4706
  126MOL   O21737967   2.167   4.595   6.612  0.2527 -0.0191 -0.2057
  126MOL   C21837968   2.269   4.579   6.527 -0.0638  0.0263 -0.3072
  126MOL   H21937969   2.118   4.633   6.899 -2.1644 -0.0491 -0.3737
  126MOL   H22037970   1.968   4.591   6.952  0.3125  0.0245  0.4717
  126MOL   H22137971   1.931   4.683   6.620 -1.9117  0.1078 -0.1236
  126MOL   H22237972   1.822   4.665   6.753 -0.2945 -2.3625  1.2069
  126MOL   H22337973   1.984   4.740   6.773 -0.9373 -1.5430  1.2786
  126MOL   H22437974   2.326   4.672   6.528  0.8950 -0.5183  3.0838
  126MOL   H22537975   2.232   4.561   6.426  0.8313 -0.6109 -0.5293
  126MOL   H22637976   2.340   4.501   6.557  2.3063  2.2867  0.1570
  126MOL   C22737977   1.881   4.416   6.767 -0.1385  0.4637  0.2209
  126MOL   C22837978   1.792   4.371   6.646  0.2994  0.2618 -0.5393
  126MOL   C22937979   1.793   4.468   6.524  0.5588 -0.7570  0.1657
  126MOL   C23037980   1.844   4.235   6.603  0.4489  0.5548 -0.1400
  126MOL   O23137981   1.894   4.218   6.493 -0.1575 -0.7567 -0.1962
  126MOL   O23237982   1.830   4.144   6.702  0.1580 -0.0653 -0.0887
  126MOL   C23337983   1.866   4.014   6.683 -0.0901  0.2546 -0.3668
  126MOL   H23437984   1.818   4.453   6.848 -1.7490 -1.9808  0.1345
  126MOL   H23537985   1.933   4.328   6.804 -0.5716  0.0609 -0.1074
  126MOL   H23637986   1.724   4.544   6.558 -0.3305 -2.3411  2.0002
  126MOL   H23737987   1.886   4.517   6.495 -0.0660  1.0599  1.1957
  126MOL   H23837988   1.746   4.425   6.435 -1.0210 -0.1407  0.6955
  126MOL   H23937989   1.961   3.999   6.631 -1.0825 -0.0074 -2.1739
  126MOL   H24037990   1.785   3.962   6.631 -1.5224  0.1905  1.8641
  126MOL   H24137991   1.884   3.955   6.773  0.2828 -1.4613 -1.5383
  126MOL   C24237992   1.645   4.366   6.703 -0.2031 -0.0740  0.0179
  126MOL   C24337993   1.504   4.353   6.627  0.0224 -0.1881 -0.4539
  126MOL   C24437994   1.445   4.493   6.587  0.5015 -0.1257 -0.2937
  126MOL   C24537995   1.520   4.269   6.498  0.5815  0.4312  0.0800
  126MOL   O24637996   1.490   4.312   6.382 -0.4026  0.4568 -0.1368
  126MOL   O24737997   1.570   4.141   6.528  0.6451 -0.0657  0.5837
  126MOL   C24837998   1.598   4.064   6.415  0.1796  0.2991 -0.0322
  126MOL   H24937999   1.633   4.462   6.754 -0.2872  0.8127 -1.6467
  126MOL   H25038000   1.645   4.291   6.782  2.0509 -1.3933 -1.1917
  126MOL   H25138001   1.347   4.500   6.539  0.5985  0.7624 -0.3682
  126MOL   H25238002   1.446   4.559   6.673  0.5402  0.7586 -0.9657
  126MOL   H25338003   1.512   4.532   6.510 -1.9231 -0.9413 -2.9184
  126MOL   H25438004   1.500   4.047   6.372 -0.1549  0.5893  0.6098
  126MOL   H25538005   1.673   3.986   6.432 -0.7589 -0.5346  0.3322
  126MOL   H25638006   1.658   4.131   6.353 -0.9249  0.9860 -0.3697
  126MOL   C25738007   1.391   4.267   6.719 -0.2818 -0.0543  0.1582
  126MOL   C25838008   1.320   4.325   6.843  0.5107  0.3772 -0.1699
  126MOL   C25938009   1.427   4.392   6.937 -0.6047 -0.3595  0.4690
  126MOL   C26038010   1.217   4.425   6.786 -0.5666  0.3300 -0.8195
  126MOL   O26138011   1.218   4.544   6.833 -0.0932 -0.4466 -0.1326
  126MOL   O26238012   1.126   4.388   6.694 -0.6097  0.1278 -0.0856
  126MOL   C26338013   1.057   4.485   6.623 -0.1261  0.4743 -0.2452
  126MOL   H26438014   1.445   4.178   6.750 -0.1758 -1.2208 -3.1636
  126MOL   H26538015   1.318   4.225   6.651  0.5652  0.2469 -0.9627
  126MOL   H26638016   1.510   4.324   6.955  0.7972  1.0786 -0.5564
  126MOL   H26738017   1.472   4.488   6.915  2.5757 -1.7940  0.4661
  126MOL   H26838018   1.376   4.417   7.030 -1.7286 -0.0506 -0.2145
  126MOL   H26938019   1.020   4.438   6.531  2.7201  1.5697 -2.0154
  126MOL   H27038020   1.116   4.567   6.583  2.0678  0.0601  2.0322
  126MOL   H27138021   0.971   4.513   6.684 -0.7433  1.1778 -1.4148
  126MOL   C27238022   1.244   4.215   6.917  0.7132  0.1220 -0.0376
  126MOL   C27338023   1.292   4.072   6.961  0.4959  0.8949 -0.4012
  126MOL   C27438024   1.197   4.015   7.073  0.2898 -0.1846  0.3688
  126MOL   C27538025   1.284   3.971   6.840  0.7776 -0.1255 -0.4121
  126MOL   O27638026   1.178   3.919   6.803 -0.0824 -1.0330 -0.1073
  126MOL   O27738027   1.404   3.955   6.782  0.2521  0.6066 -0.3103
  126MOL   C27838028   1.417   3.868   6.668  0.1003  0.5511 -1.2611
  126MOL   H27938029   1.150   4.190   6.867  0.7689  1.5600 -0.8787
  126MOL   H28038030   1.208   4.260   7.010 -2.2414 -1.0514 -0.5357
  126MOL   H28138031   1.214   4.057   7.172 -0.7909  1.5904 -0.1641
  126MOL   H28238032   1.095   4.049   7.051  0.3552 -1.4289 -2.0762
  126MOL   H28338033   1.189   3.907   7.072  0.4309 -0.2212  1.9666
  126MOL   H28438034   1.511   3.893   6.617  1.3907 -0.3873  0.5987
  126MOL   H28538035   1.326   3.880   6.609  1.9158 -0.4100 -4.3824
  126MOL   H28638036   1.407   3.761   6.686  1.5285  0.5886 -0.0998
  126MOL   C28738037   1.439   4.070   7.020 -0.2383 -0.5063 -0.7701
  126MOL   C28838038   1.503   3.924   7.057  0.2333  0.3967 -0.2387
  126MOL   C28938039   1.655   3.925   7.050 -0.5922 -0.1941  0.0299
  126MOL   C29038040   1.455   3.881   7.195 -0.3769  0.2770  0.0789
  126MOL   O29138041   1.389   3.775   7.216  0.4116 -0.2263 -0.6037
  126MOL   O29238042   1.480   3.974   7.283  0.5352  0.1268  0.1041
  126MOL   C29338043   1.433   3.955   7.415 -0.3727 -0.0747 -0.4308
  126MOL   H29438044   1.439   4.132   7.110  3.8438  0.3138 -1.2023
  126MOL   H29538045   1.511   4.104   6.945  0.3610 -1.2809 -0.5481
  126MOL   H29638046   1.682   3.996   7.129  2.0967 -0.7408 -0.3211
  126MOL   H29738047   1.692   3.825   7.075  0.4080  0.3467  0.7825
  126MOL   H29838048   1.699   3.949   6.953  0.5717  2.0439  1.0591
  126MOL   H29938049   1.504   3.999   7.486 -0.3689  1.7503 -1.5414
  126MOL   H30038050   1.415   3.850   7.439  0.5382 -0.6049 -2.0238
  126MOL   H30138051   1.334   4.000   7.412  0.9622  3.0465  0.3795
  126MOL   H30238052   1.457   3.843   7.000  1.7516 -0.1362 -0.7481
  127MOL     C138053   6.813   3.290   2.840 -0.2888 -0.1398  0.3943
  127MOL     C238054   6.890   3.296   2.976  0.5262 -0.0355  0.0111
  127MOL     C338055   7.039   3.261   2.952 -0.0235 -0.8707  0.2992
  127MOL     C438056   6.883   3.444   3.010 -0.2933  0.4293  0.2672
  127MOL     O538057   6.984   3.508   3.015  0.4278 -0.1443 -0.3598
  127MOL     O638058   6.765   3.487   3.035 -0.1600 -0.3700  0.2057
  127MOL     C738059   6.749   3.611   3.104 -0.3667 -0.4016 -0.3353
  127MOL     H838060   6.706   3.272   2.849 -0.0092 -1.3757  1.4499
  127MOL     H938061   6.825   3.374   2.772  0.6855  0.7622  1.6502
  127MOL    H1038062   7.088   3.320   2.875  1.3699 -1.0872  1.0083
  127MOL    H1138063   7.099   3.286   3.039  0.9181  0.5404 -0.7459
  127MOL    H1238064   7.060   3.158   2.923 -1.1266 -1.3591  1.1823
  127MOL    H1338065   6.647   3.651   3.094  0.6188  1.9592 -1.4003
  127MOL    H1438066   6.808   3.695   3.067  0.3012 -0.9648 -0.5469
  127MOL    H1538067   6.759   3.601   3.212  0.8084  0.0061 -0.4047
  127MOL    H1638068   6.846   3.199   2.790  1.8423 -0.3405  2.1047
  127MOL    C1738069   6.832   3.199   3.085 -0.2810 -0.0896  0.1073
  127MOL    C1838070   6.881   3.184   3.234 -0.4434  0.6269  0.4006
  127MOL    C1938071   7.012   3.106   3.234 -0.3817  0.2241 -0.4973
  127MOL    C2038072   6.897   3.323   3.308  0.3623  0.9926  0.2795
  127MOL    O2138073   6.797   3.384   3.358  0.2986 -0.2995  0.3365
  127MOL    O2238074   7.020   3.369   3.305  0.0564  0.3481 -0.0058
  127MOL    C2338075   7.054   3.476   3.388  0.0466  0.0376 -0.3385
  127MOL    H2438076   6.837   3.100   3.041 -1.6767 -1.5043  2.9709
  127MOL    H2538077   6.727   3.227   3.092 -0.2696 -0.0969  0.2894
  127MOL    H2638078   7.015   3.024   3.162  1.4326  0.7880 -1.0670
  127MOL    H2738079   7.098   3.166   3.205  0.1525 -0.8021 -1.0916
  127MOL    H2838080   7.033   3.070   3.335  2.3261 -1.3680 -1.5820
  127MOL    H2938081   7.163   3.488   3.384  0.2432  0.5085  4.0112
  127MOL    H3038082   7.042   3.437   3.490  0.3943  2.0839  0.5021
  127MOL    H3138083   6.993   3.565   3.380 -0.1265 -0.2139 -1.8845
  127MOL    C3238084   6.775   3.115   3.329  0.0911 -0.4346 -0.4786
  127MOL    C3338085   6.702   2.975   3.287  0.0379 -0.2802  0.2868
  127MOL    C3438086   6.637   2.944   3.424  0.1461  0.8074 -0.0985
  127MOL    C3538087   6.589   2.990   3.179 -0.4534  1.0114 -0.3906
  127MOL    O3638088   6.468   2.983   3.209 -0.4877  0.3100 -0.1257
  127MOL    O3738089   6.629   2.998   3.059 -0.3388  0.4440 -0.3662
  127MOL    C3838090   6.533   2.992   2.952 -0.6816 -0.0700  0.4471
  127MOL    H3938091   6.686   3.170   3.359  0.9971  0.5826  0.3634
  127MOL    H4038092   6.833   3.095   3.419 -0.2313  0.1051 -0.1513
  127MOL    H4138093   6.716   2.941   3.498 -0.1453  1.8534  0.2606
  127MOL    H4238094   6.570   3.020   3.463  0.5944  1.5832 -0.8168
  127MOL    H4338095   6.570   2.858   3.422  1.3464 -0.1800  1.2937
  127MOL    H4438096   6.514   2.885   2.941  0.2237 -0.4635  2.5196
  127MOL    H4538097   6.584   3.026   2.862 -1.1173  0.7341  0.5001
  127MOL    H4638098   6.456   3.067   2.968  1.3151  2.3165 -0.7523
  127MOL    C4738099   6.808   2.863   3.253 -0.8273  0.4630 -0.4523
  127MOL    C4838100   6.782   2.709   3.255 -0.0335 -0.6097  0.3791
  127MOL    C4938101   6.912   2.653   3.195  0.1453  0.1611 -0.2777
  127MOL    C5038102   6.766   2.664   3.405 -0.6777 -0.0503  0.0325
  127MOL    O5138103   6.668   2.611   3.454 -0.9338  0.4034  0.3049
  127MOL    O5238104   6.880   2.679   3.479  0.1661 -0.0215 -0.4512
  127MOL    C5338105   6.883   2.639   3.617  0.1649  0.4424  0.2805
  127MOL    H5438106   6.897   2.886   3.312 -0.9047  1.8977 -0.8860
  127MOL    H5538107   6.849   2.875   3.153  0.3603  0.4474  0.0217
  127MOL    H5638108   6.993   2.705   3.245 -0.8475  1.3199  0.1527
  127MOL    H5738109   6.930   2.548   3.219  0.5161 -0.0327 -1.3617
  127MOL    H5838110   6.916   2.673   3.088 -0.0123  2.2888  0.0997
  127MOL    H5938111   6.983   2.659   3.655  0.0969  0.6827  0.3328
  127MOL    H6038112   6.860   2.536   3.642 -2.2007  1.0518  0.7390
  127MOL    H6138113   6.813   2.706   3.668 -0.2206  1.5449 -1.6260
  127MOL    C6238114   6.662   2.669   3.167  0.1563 -1.0483 -0.4009
  127MOL    C6338115   6.630   2.523   3.110 -0.1089  0.0949 -0.1393
  127MOL    C6438116   6.637   2.417   3.225 -0.2037 -0.0243  0.1271
  127MOL    C6538117   6.478   2.531   3.065 -0.0561 -0.9916  0.3679
  127MOL    O6638118   6.382   2.458   3.095 -0.5513 -0.2064 -0.5375
  127MOL    O6738119   6.464   2.626   2.973  0.2973  0.4531 -0.0442
  127MOL    C6838120   6.347   2.639   2.906 -0.2624 -0.1709  0.1616
  127MOL    H6938121   6.680   2.732   3.079  1.0019 -2.2476 -1.1071
  127MOL    H7038122   6.572   2.714   3.209  0.5767 -1.6627  1.1913
  127MOL    H7138123   6.607   2.316   3.197 -0.2344 -0.2922  1.1208
  127MOL    H7238124   6.731   2.409   3.279  0.6453  0.5244 -1.2461
  127MOL    H7338125   6.567   2.448   3.303  0.1238 -1.8949  1.1930
  127MOL    H7438126   6.372   2.726   2.845  1.6164 -0.1836  0.9145
  127MOL    H7538127   6.262   2.659   2.971 -1.6555 -0.0233 -1.6339
  127MOL    H7638128   6.336   2.541   2.860  3.0386 -0.7116  0.4181
  127MOL    C7738129   6.727   2.492   2.989  0.0063 -0.1239  0.1789
  127MOL    C7838130   6.708   2.372   2.882  0.1609 -0.1570 -0.0734
  127MOL    C7938131   6.848   2.341   2.818  0.4013 -0.7075  0.1162
  127MOL    C8038132   6.659   2.241   2.955 -1.2120 -0.8102 -0.0648
  127MOL    O8138133   6.541   2.225   2.977  0.1920 -0.2857 -0.9088
  127MOL    O8238134   6.749   2.143   2.971 -0.4775  0.1972  0.4699
  127MOL    C8338135   6.712   2.007   3.011 -0.1826  0.0787 -0.7670
  127MOL    H8438136   6.825   2.484   3.036  0.1754  0.9570  0.0153
  127MOL    H8538137   6.745   2.585   2.936  2.0567 -1.5239 -1.6632
  127MOL    H8638138   6.926   2.331   2.894  1.2452 -0.2776 -0.6732
  127MOL    H8738139   6.850   2.247   2.764  1.7884  0.0483 -1.1887
  127MOL    H8838140   6.887   2.413   2.745  1.3784 -0.3131  1.0228
  127MOL    H8938141   6.803   1.948   3.017  1.3890  2.3816 -1.1741
  127MOL    H9038142   6.665   1.958   2.926  0.0230  0.1031 -0.8953
  127MOL    H9138143   6.644   2.004   3.095 -1.1505  0.5472 -1.5245
  127MOL    C9238144   6.605   2.425   2.776  0.5923 -0.1720  0.4765
  127MOL    C9338145   6.572   2.361   2.639 -0.1763 -0.0764 -0.2039
  127MOL    C9438146   6.688   2.394   2.542  0.0310  0.0276 -0.1101
  127MOL    C9538147   6.567   2.210   2.651  0.2028 -0.1925 -0.2556
  127MOL    O9638148   6.656   2.140   2.603  0.0941  0.0816 -0.1199
  127MOL    O9738149   6.458   2.170   2.716  0.0523  0.5677 -0.2706
  127MOL    C9838150   6.418   2.033   2.712 -0.0522  0.3698 -0.0197
  127MOL    H9938151   6.646   2.524   2.757  0.2912 -0.1561 -0.0785
  127MOL   H10038152   6.508   2.425   2.827 -0.5828 -0.3549 -1.7146
  127MOL   H10138153   6.661   2.342   2.451 -0.0760 -0.9773  0.4843
  127MOL   H10238154   6.712   2.501   2.538  2.2234 -0.2060  3.7306
  127MOL   H10338155   6.782   2.343   2.566 -1.3110 -1.3622  2.3652
  127MOL   H10438156   6.479   1.962   2.768  1.8659  1.3382 -0.8351
  127MOL   H10538157   6.393   1.995   2.613  0.8056  0.6936 -0.3674
  127MOL   H10638158   6.328   2.039   2.773 -0.6159 -0.4019 -0.7616
  127MOL   C10738159   6.440   2.430   2.597 -0.2658  0.2780  0.1670
  127MOL   C10838160   6.367   2.415   2.456  0.8600 -0.3980 -0.7993
  127MOL   C10938161   6.218   2.451   2.485 -0.2026 -0.2123  0.0128
  127MOL   C11038162   6.426   2.525   2.369  1.0433  0.2517 -0.0598
  127MOL   O11138163   6.535   2.522   2.315 -0.2147 -0.6913  0.3090
  127MOL   O11238164   6.345   2.637   2.373  0.2443  0.3151  0.2636
  127MOL   C11338165   6.387   2.754   2.303 -0.1398  0.3523 -0.1834
  127MOL   H11438166   6.460   2.533   2.628  1.4826 -0.0383  0.1769
  127MOL   H11538167   6.365   2.395   2.668  2.5474 -1.2388  2.5029
  127MOL   H11638168   6.161   2.501   2.407  0.0950  0.4124  0.1914
  127MOL   H11738169   6.157   2.367   2.517  0.2768 -0.2687  0.7824
  127MOL   H11838170   6.206   2.515   2.572  0.2881  2.4159 -1.8069
  127MOL   H11938171   6.494   2.768   2.313 -0.4817  3.3716 -0.3913
  127MOL   H12038172   6.353   2.842   2.357  1.0586  1.1611 -0.7444
  127MOL   H12138173   6.367   2.742   2.196 -2.0974  1.9539 -0.0279
  127MOL   C12238174   6.376   2.271   2.394 -0.6509 -0.1220  0.5796
  127MOL   C12338175   6.320   2.225   2.258  0.3626 -0.1125  0.3029
  127MOL   C12438176   6.173   2.275   2.254 -0.4803  0.2049 -0.8069
  127MOL   C12538177   6.403   2.282   2.142 -0.0988 -0.8599  0.0805
  127MOL   O12638178   6.355   2.359   2.063 -0.1625  0.3734  0.3460
  127MOL   O12738179   6.537   2.245   2.142  0.4439  0.5806 -0.5144
  127MOL   C12838180   6.611   2.309   2.046 -0.3050 -0.0290 -0.7189
  127MOL   H12938181   6.334   2.209   2.472  0.4519 -1.3456  0.2100
  127MOL   H13038182   6.483   2.247   2.395 -0.6232 -0.0214  0.0842
  127MOL   H13138183   6.175   2.384   2.246 -2.8152  0.3869  0.5884
  127MOL   H13238184   6.118   2.237   2.168  1.0920 -3.0386 -0.4420
  127MOL   H13338185   6.115   2.252   2.343 -1.0396  1.5185 -0.8239
  127MOL   H13438186   6.563   2.349   1.956 -1.7821  1.3928  0.6775
  127MOL   H13538187   6.691   2.245   2.010 -0.4267 -0.7777  0.3283
  127MOL   H13638188   6.642   2.400   2.097 -0.1212  0.2997 -1.3996
  127MOL   C13738189   6.328   2.065   2.251  0.5788  0.8416  0.2268
  127MOL   C13838190   6.236   1.972   2.166 -0.1852  0.4554 -0.1059
  127MOL   C13938191   6.106   1.965   2.243  0.1026 -0.2172 -0.0667
  127MOL   C14038192   6.213   2.018   2.021 -0.2957  0.0740  0.6024
  127MOL   O14138193   6.104   2.072   1.982  0.3898  0.4218 -0.5753
  127MOL   O14238194   6.326   2.024   1.954 -0.1710 -0.7994 -0.3964
  127MOL   C14338195   6.327   2.081   1.819  0.1651 -0.3453 -0.2856
  127MOL   H14438196   6.321   2.025   2.352 -3.7560 -3.6696 -1.6333
  127MOL   H14538197   6.430   2.033   2.226  0.5134 -0.3695  1.4552
  127MOL   H14638198   6.122   1.949   2.350 -1.3433  0.4739  0.2704
  127MOL   H14738199   6.050   2.059   2.247 -1.0812 -0.8855 -0.6440
  127MOL   H14838200   6.030   1.890   2.220 -0.3229  0.0121  0.5446
  127MOL   H14938201   6.434   2.086   1.797  0.0940  2.1684 -0.2386
  127MOL   H15038202   6.290   2.180   1.844 -1.5305 -1.2513  0.9052
  127MOL   H15138203   6.278   2.031   1.736  0.1389  1.4838 -1.3877
  127MOL   C15238204   6.273   1.817   2.165  0.1663  0.1772  0.3193
  127MOL   C15338205   6.421   1.760   2.159 -0.0314 -0.4188 -0.2150
  127MOL   C15438206   6.509   1.820   2.047  0.8481  0.2075  0.1432
  127MOL   C15538207   6.494   1.784   2.293  0.6489 -0.2906 -0.6929
  127MOL   O15638208   6.425   1.792   2.401  0.1098 -0.2075 -0.1505
  127MOL   O15738209   6.632   1.769   2.292 -0.4085 -0.4099  0.5623
  127MOL   C15838210   6.700   1.759   2.411 -0.1330 -0.7182 -0.5559
  127MOL   H15938211   6.210   1.768   2.091  0.3454  0.8297 -0.2759
  127MOL   H16038212   6.233   1.777   2.258  0.8926 -2.2443 -0.3771
  127MOL   H16138213   6.467   1.810   1.947  0.9855  0.4408  0.0606
  127MOL   H16238214   6.535   1.925   2.063  2.6218 -0.2000  0.0322
  127MOL   H16338215   6.611   1.783   2.051  1.5394  1.6398 -2.7208
  127MOL   H16438216   6.801   1.799   2.400 -0.1831  0.0065  1.3087
  127MOL   H16538217   6.702   1.654   2.440 -0.0780 -0.3071  0.9901
  127MOL   H16638218   6.654   1.812   2.495 -0.2597 -2.2574  0.3617
  127MOL   C16738219   6.416   1.600   2.144  0.1007 -0.3026 -0.0879
  127MOL   C16838220   6.414   1.519   2.011  0.3873  0.2499 -0.0663
  127MOL   C16938221   6.302   1.574   1.919  0.1378  0.0834  0.6744
  127MOL   C17038222   6.550   1.522   1.936 -0.7773 -0.0194 -0.2880
  127MOL   O17138223   6.567   1.548   1.815 -0.2608  0.1752  0.0993
  127MOL   O17238224   6.651   1.479   2.009 -0.8028 -0.2280 -0.2856
  127MOL   C17338225   6.785   1.473   1.949 -0.0420  0.3408  0.9596
  127MOL   H17438226   6.320   1.574   2.190 -0.3026  0.8463 -0.2612
  127MOL   H17538227   6.500   1.553   2.195 -1.9733 -3.9281  0.1386
  127MOL   H17638228   6.307   1.682   1.900 -2.8158 -0.1572 -1.8650
  127MOL   H17738229   6.310   1.534   1.818  0.5588 -0.7644  1.0458
  127MOL   H17838230   6.207   1.539   1.959 -0.5701  0.2429 -0.8430
  127MOL   H17938231   6.783   1.413   1.858  0.9669 -0.7536  1.6464
  127MOL   H18038232   6.860   1.443   2.021  0.3494 -2.6392 -0.6302
  127MOL   H18138233   6.808   1.574   1.913  0.5145 -0.8455 -2.1444
  127MOL   C18238234   6.391   1.373   2.067 -0.6016  0.0516  0.4318
  127MOL   C18338235   6.378   1.238   1.983  0.2923 -0.2765 -0.6117
  127MOL   C18438236   6.296   1.134   2.061 -0.2287  0.0779 -0.1964
  127MOL   C18538237   6.302   1.260   1.846 -0.7187 -0.4675 -0.0315
  127MOL   O18638238   6.362   1.259   1.736  0.1603  0.0632  0.3366
  127MOL   O18738239   6.174   1.293   1.867 -0.1014  0.5288  0.2351
  127MOL   C18838240   6.098   1.331   1.758  0.3258 -0.4663 -0.2316
  127MOL   H18938241   6.299   1.381   2.125 -1.1600  1.4735 -0.6421
  127MOL   H19038242   6.464   1.347   2.144 -0.4936 -0.0802  0.2887
  127MOL   H19138243   6.199   1.178   2.088 -0.3281  0.0252 -0.4712
  127MOL   H19238244   6.286   1.037   2.014 -1.2421 -0.6519  1.4643
  127MOL   H19338245   6.345   1.118   2.157  1.3258 -1.5480 -1.2420
  127MOL   H19438246   6.152   1.342   1.664  0.1812  3.7790  0.0897
  127MOL   H19538247   6.059   1.430   1.780 -1.6494 -1.0145 -1.1135
  127MOL   H19638248   6.006   1.278   1.732  0.3717  0.3197 -2.0785
  127MOL   C19738249   6.521   1.176   1.943 -0.1802  0.1261  0.5625
  127MOL   C19838250   6.625   1.087   2.024  0.9074 -0.2243  0.9187
  127MOL   C19938251   6.568   0.946   2.051  0.8607  0.3895  0.0099
  127MOL   C20038252   6.759   1.065   1.956 -0.9577 -0.2931  0.6630
  127MOL   O20138253   6.797   1.137   1.865  0.2446 -0.4611 -0.1672
  127MOL   O20238254   6.844   0.968   2.015 -0.1516  0.0389  0.2755
  127MOL   C20338255   6.960   0.926   1.947 -0.3762  0.2559  0.1161
  127MOL   H20438256   6.577   1.259   1.899 -1.0432  0.4993  0.1554
  127MOL   H20538257   6.515   1.125   1.847 -0.1383  2.2025 -0.5833
  127MOL   H20638258   6.537   0.902   1.956  1.0516  0.7051 -0.2001
  127MOL   H20738259   6.634   0.869   2.089  1.1137  0.5473 -0.1088
  127MOL   H20838260   6.478   0.944   2.112 -0.7415 -3.0534 -2.2817
  127MOL   H20938261   7.023   1.014   1.955 -0.6914  0.5512 -0.6157
  127MOL   H21038262   6.935   0.906   1.843 -0.2661  0.5433  0.0344
  127MOL   H21138263   6.999   0.837   1.997  3.1310  0.7970 -1.5246
  127MOL   C21238264   6.653   1.161   2.161  0.4050 -0.1558  0.0442
  127MOL   C21338265   6.738   1.131   2.285 -0.2987 -0.6141  0.4193
  127MOL   C21438266   6.705   0.984   2.338  0.5870  0.1358 -0.2752
  127MOL   C21538267   6.888   1.155   2.255 -0.4732 -1.2731  0.1621
  127MOL   O21638268   6.934   1.259   2.202 -0.2285  0.0731  0.3100
  127MOL   O21738269   6.952   1.052   2.292  0.0066 -0.3172 -0.0838
  127MOL   C21838270   7.098   1.055   2.296  0.4851 -0.0982 -0.9759
  127MOL   H21938271   6.551   1.154   2.200  0.9902 -1.5009  1.3890
  127MOL   H22038272   6.670   1.266   2.140 -1.3988  0.5037  1.7323
  127MOL   H22138273   6.742   0.917   2.260  0.4533 -0.7439  0.4070
  127MOL   H22238274   6.758   0.948   2.426  1.0384  0.4003 -0.4320
  127MOL   H22338275   6.599   0.962   2.345  0.3792  0.7624 -1.2381
  127MOL   H22438276   7.125   1.132   2.224  0.4143 -0.5748 -1.5188
  127MOL   H22538277   7.152   0.964   2.268  2.8215  0.9925 -0.1907
  127MOL   H22638278   7.144   1.093   2.388 -2.2555  1.7731 -0.3486
  127MOL   C22738279   6.691   1.232   2.398 -0.1673 -0.2951  0.0593
  127MOL   C22838280   6.764   1.282   2.528  0.1966 -0.1595 -0.1456
  127MOL   C22938281   6.820   1.162   2.605 -0.8316  0.3355  0.1160
  127MOL   C23038282   6.876   1.381   2.489 -0.2014  0.0087  0.3417
  127MOL   O23138283   6.973   1.398   2.560 -0.3492 -0.1013 -0.6608
  127MOL   O23238284   6.851   1.458   2.384 -0.3021  0.0525 -0.5910
  127MOL   C23338285   6.950   1.549   2.338  0.0781 -0.0718  0.0828
  127MOL   H23438286   6.602   1.183   2.437 -1.4401  0.0123 -2.4048
  127MOL   H23538287   6.653   1.324   2.353  1.8753 -0.2905 -1.7682
  127MOL   H23638288   6.895   1.112   2.544 -2.6786 -1.2983 -0.8620
  127MOL   H23738289   6.876   1.196   2.693  0.1545  1.1774 -0.8149
  127MOL   H23838290   6.748   1.086   2.636 -0.4123 -0.7816 -1.5553
  127MOL   H23938291   6.968   1.622   2.417  0.7329 -1.2695  1.0617
  127MOL   H24038292   6.916   1.604   2.250  2.6459  1.0931 -0.2296
  127MOL   H24138293   7.050   1.507   2.326 -0.8774 -2.4056  0.1548
  127MOL   C24238294   6.654   1.339   2.624 -0.3805  0.1748  0.3461
  127MOL   C24338295   6.668   1.405   2.766  0.3394 -0.4622 -0.4627
  127MOL   C24438296   6.731   1.309   2.862  0.2830 -0.6599  0.3897
  127MOL   C24538297   6.758   1.533   2.769  0.7156 -0.2462  0.9451
  127MOL   O24638298   6.781   1.603   2.667 -0.6008 -0.3126 -0.0115
  127MOL   O24738299   6.793   1.562   2.891  0.4217 -0.3069  0.8115
  127MOL   C24838300   6.853   1.683   2.908  0.6560  0.0520  0.5845
  127MOL   H24938301   6.591   1.250   2.625  1.6081 -1.2859 -0.7868
  127MOL   H25038302   6.600   1.407   2.559  0.1560 -0.0182 -0.2984
  127MOL   H25138303   6.838   1.321   2.849 -0.0208 -0.1623 -1.8304
  127MOL   H25238304   6.713   1.346   2.963 -1.4991  0.9555 -0.4768
  127MOL   H25338305   6.700   1.204   2.857 -2.2133  0.0952 -0.5858
  127MOL   H25438306   6.894   1.691   3.009  0.3047 -2.4673  0.9335
  127MOL   H25538307   6.774   1.754   2.885 -1.2210 -1.6680  1.5813
  127MOL   H25638308   6.940   1.697   2.843  0.2359  2.0924  0.4012
  127MOL   C25738309   6.532   1.438   2.830  0.5253 -0.3500 -0.8915
  127MOL   C25838310   6.419   1.528   2.776  0.0376  0.3869 -0.5942
  127MOL   C25938311   6.476   1.662   2.724 -0.4301  0.2700 -0.2375
  127MOL   C26038312   6.341   1.455   2.659 -0.1483 -0.1405 -0.1450
  127MOL   O26138313   6.332   1.330   2.640  0.2759  0.5498  0.1000
  127MOL   O26238314   6.294   1.547   2.580  0.4060  0.0767  0.5383
  127MOL   C26338315   6.245   1.493   2.453  0.6380 -0.4604 -0.0507
  127MOL   H26438316   6.558   1.492   2.921  0.6285 -1.5378 -0.1999
  127MOL   H26538317   6.485   1.343   2.858 -2.8513  1.1304 -1.3369
  127MOL   H26638318   6.551   1.699   2.795  1.0464 -2.2826 -0.4060
  127MOL   H26738319   6.531   1.634   2.634 -1.0060  0.7368 -0.7347
  127MOL   H26838320   6.415   1.745   2.688  1.0598  1.4362 -0.1579
  127MOL   H26938321   6.168   1.420   2.478 -0.2710  0.2988 -0.5625
  127MOL   H27038322   6.317   1.445   2.387  1.0170 -0.3486  0.2796
  127MOL   H27138323   6.196   1.566   2.389  1.2094  1.5742  1.7545
  127MOL   C27238324   6.308   1.551   2.892 -0.1513 -0.7661  0.6634
  127MOL   C27338325   6.224   1.684   2.921  0.5902  0.0814 -0.1185
  127MOL   C27438326   6.316   1.784   2.986 -0.1795 -0.2558  0.2807
  127MOL   C27538327   6.158   1.741   2.799  0.2786  0.4657  0.1457
  127MOL   O27638328   6.162   1.862   2.771  0.4242 -0.0939  0.0268
  127MOL   O27738329   6.089   1.644   2.725  0.1394 -0.2611 -0.0858
  127MOL   C27838330   5.993   1.682   2.626 -0.1466 -0.5005 -0.2318
  127MOL   H27938331   6.364   1.538   2.985 -0.3943 -0.6427  0.8251
  127MOL   H28038332   6.234   1.471   2.893 -1.6681  0.6290  1.8059
  127MOL   H28138333   6.338   1.755   3.088 -0.2551  0.2160  0.4332
  127MOL   H28238334   6.418   1.786   2.949  0.5374  2.2894  2.2574
  127MOL   H28338335   6.285   1.888   2.981 -2.1104 -0.7927  0.5702
  127MOL   H28438336   6.025   1.774   2.578  1.2542 -0.5065  0.6661
  127MOL   H28538337   5.893   1.698   2.668 -0.5534 -0.7718 -1.0766
  127MOL   H28638338   5.995   1.616   2.539 -2.4193  2.0490 -2.2998
  127MOL   C28738339   6.106   1.646   3.023  0.7729 -0.0934 -0.1197
  127MOL   C28838340   6.013   1.760   3.085  0.5186 -0.1976  0.8156
  127MOL   C28938341   5.895   1.794   2.993  0.8291  0.2909 -0.0799
  127MOL   C29038342   5.960   1.734   3.223 -0.0215  0.0198  0.3466
  127MOL   O29138343   5.987   1.813   3.309 -1.1694  0.5417 -0.5994
  127MOL   O29238344   5.899   1.615   3.239  0.2093  0.1737 -0.0475
  127MOL   C29338345   5.857   1.574   3.369 -0.3267  0.2942 -0.4109
  127MOL   H29438346   6.157   1.595   3.104  0.3569 -1.1765 -0.5339
  127MOL   H29538347   6.045   1.566   2.981  2.2951 -0.7977 -1.0206
  127MOL   H29638348   5.817   1.846   3.048  0.4629  0.1379 -0.4524
  127MOL   H29738349   5.937   1.861   2.917  0.6862  2.6500  1.8634
  127MOL   H29838350   5.862   1.705   2.940  0.0156  0.9544 -0.7067
  127MOL   H29938351   5.875   1.467   3.383  1.1281  0.2498 -2.3210
  127MOL   H30038352   5.763   1.604   3.414 -0.0179  2.7961 -1.3737
  127MOL   H30138353   5.934   1.610   3.437  0.2416 -0.6906 -0.5210
  127MOL   H30238354   6.090   1.836   3.098 -0.5135  0.5106  2.9470
  128MOL     C138355   1.045   2.311   3.925  0.1621  0.1846  0.0268
  128MOL     C238356   1.122   2.430   3.865 -1.1938 -0.2370 -0.3162
  128MOL     C338357   1.263   2.390   3.879 -0.1842 -0.0067 -0.0474
  128MOL     C438358   1.094   2.430   3.711 -0.2716  1.2886  0.0682
  128MOL     O538359   1.059   2.529   3.652  0.5411  0.1503  0.1925
  128MOL     O638360   1.100   2.310   3.651 -0.4557  0.2085 -0.5663
  128MOL     C738361   1.068   2.299   3.515 -0.3372  0.1405  0.6030
  128MOL     H838362   1.078   2.213   3.890  0.3656  0.2589  0.0103
  128MOL     H938363   1.060   2.298   4.032  1.5002 -0.7384 -0.2749
  128MOL    H1038364   1.333   2.473   3.872 -1.3674  1.1993  1.9275
  128MOL    H1138365   1.290   2.339   3.972  1.5184  1.0954  0.0821
  128MOL    H1238366   1.296   2.324   3.798 -0.3916  0.5478 -0.5809
  128MOL    H1338367   1.148   2.336   3.451  0.0740 -0.4735  0.7611
  128MOL    H1438368   0.981   2.361   3.495  1.2946  1.5407 -2.4539
  128MOL    H1538369   1.041   2.195   3.494  1.0658  0.3739 -2.6682
  128MOL    H1638370   0.937   2.309   3.908  0.0841  0.5869  0.4651
  128MOL    C1738371   1.111   2.563   3.945  0.0970  0.3776  0.0911
  128MOL    C1838372   0.973   2.621   3.987 -0.1132  0.0280  0.1054
  128MOL    C1938373   0.873   2.614   3.866 -0.0548  0.3999  0.4421
  128MOL    C2038374   0.922   2.543   4.112  0.6866 -0.9112  0.2198
  128MOL    O2138375   0.809   2.502   4.114  0.0421  0.2492  0.1972
  128MOL    O2238376   1.000   2.538   4.224 -0.1503 -0.2833  0.6518
  128MOL    C2338377   0.957   2.475   4.338 -0.4974 -0.2023  0.3628
  128MOL    H2438378   1.149   2.644   3.884 -0.9352  0.7887  0.0017
  128MOL    H2538379   1.176   2.560   4.033 -0.3316  1.4035  0.4370
  128MOL    H2638380   0.776   2.661   3.885 -0.3699 -1.0826  2.6379
  128MOL    H2738381   0.909   2.674   3.782 -0.8881 -0.2525 -0.4070
  128MOL    H2838382   0.862   2.511   3.830  2.0324 -0.1789  1.4112
  128MOL    H2938383   0.920   2.374   4.319 -1.1683  0.3478 -1.4667
  128MOL    H3038384   0.876   2.531   4.385  0.0214  0.6164  0.2810
  128MOL    H3138385   1.032   2.472   4.417 -0.4014  0.8610  0.3089
  128MOL    C3238386   1.000   2.767   4.026  1.1345  0.5568 -0.1553
  128MOL    C3338387   0.889   2.866   4.092  0.3734 -0.8851 -0.6376
  128MOL    C3438388   0.752   2.848   4.023  0.1611  0.4324 -0.5001
  128MOL    C3538389   0.867   2.843   4.245  0.3931 -0.3577 -0.2704
  128MOL    O3638390   0.758   2.857   4.305 -0.1943  0.5686  0.3354
  128MOL    O3738391   0.991   2.828   4.305  0.9543  0.2781  0.2837
  128MOL    C3838392   1.012   2.811   4.444 -0.7598  0.4224  0.4497
  128MOL    H3938393   1.032   2.818   3.935  0.1723  1.1568 -0.1653
  128MOL    H4038394   1.095   2.766   4.079  1.8864  0.6765 -1.4677
  128MOL    H4138395   0.713   2.746   4.035 -0.1388  0.7651  1.5717
  128MOL    H4238396   0.677   2.914   4.067  0.3652  1.0561 -1.0953
  128MOL    H4338397   0.759   2.875   3.918 -4.2128  2.8612 -0.2911
  128MOL    H4438398   1.116   2.831   4.470 -0.4944 -2.3771  1.7228
  128MOL    H4538399   1.000   2.706   4.469 -0.1121  0.1789 -0.2482
  128MOL    H4638400   0.949   2.871   4.511  0.2621  1.5955  0.3806
  128MOL    C4738401   0.951   3.010   4.067  0.4971 -0.5288 -0.3363
  128MOL    C4838402   0.869   3.141   4.115 -0.1401  0.4561 -0.6012
  128MOL    C4938403   0.741   3.155   4.035  0.4346  0.4790  0.1002
  128MOL    C5038404   0.866   3.155   4.265  0.3591  0.3762  0.1260
  128MOL    O5138405   0.965   3.125   4.330 -0.2996  0.3835  0.0168
  128MOL    O5238406   0.756   3.202   4.320 -0.1053  0.0392 -0.1344
  128MOL    C5338407   0.748   3.224   4.462 -0.2870  0.3695  0.6344
  128MOL    H5438408   0.981   3.023   3.963  0.7590  2.2609  0.0713
  128MOL    H5538409   1.049   3.009   4.115  0.1498  1.8116  0.4822
  128MOL    H5638410   0.699   3.255   4.037 -0.0177  0.2842  0.5106
  128MOL    H5738411   0.747   3.121   3.932 -3.4690 -0.1139 -0.0062
  128MOL    H5838412   0.654   3.109   4.084  0.0540  1.4445  0.3440
  128MOL    H5938413   0.820   3.296   4.499 -0.7825 -1.7211  6.1121
  128MOL    H6038414   0.754   3.134   4.524  3.1647  0.5227  0.6187
  128MOL    H6138415   0.649   3.267   4.480  0.4149  1.7302  1.3242
  128MOL    C6238416   0.964   3.247   4.060  0.4554 -0.3419 -0.4618
  128MOL    C6338417   0.990   3.398   4.117  0.3134 -0.4874 -0.0918
  128MOL    C6438418   1.075   3.389   4.239  0.2382  0.0822 -0.4007
  128MOL    C6538419   1.083   3.466   4.010  0.2440 -0.0661 -0.0455
  128MOL    O6638420   1.205   3.483   4.028 -0.2714  0.3101  0.1567
  128MOL    O6738421   1.022   3.482   3.898 -0.7875 -0.8072  0.8259
  128MOL    C6838422   1.084   3.576   3.802 -0.3869  0.4880  0.1406
  128MOL    H6938423   0.946   3.252   3.952  2.7292 -0.7456 -0.8883
  128MOL    H7038424   1.064   3.204   4.066  0.7639  0.5320  0.7639
  128MOL    H7138425   1.128   3.482   4.257  1.3538 -0.7128  0.5499
  128MOL    H7238426   1.020   3.370   4.332  2.0063 -2.5663  0.1841
  128MOL    H7338427   1.150   3.309   4.235 -0.3814 -0.5423  0.1911
  128MOL    H7438428   1.183   3.544   3.769  0.3092  3.8881 -1.2936
  128MOL    H7538429   1.101   3.666   3.861  1.0831  0.5109 -0.3116
  128MOL    H7638430   1.012   3.584   3.720 -1.3276  0.7941  0.9792
  128MOL    C7738431   0.855   3.481   4.128  0.1047  0.0060 -0.4970
  128MOL    C7838432   0.838   3.632   4.167  0.7397 -0.2010  0.0677
  128MOL    C7938433   0.939   3.727   4.097  0.3195  0.6346  0.2875
  128MOL    C8038434   0.689   3.664   4.124  0.0673  0.0495 -0.2523
  128MOL    O8138435   0.661   3.748   4.041 -0.3068 -0.7654 -0.5341
  128MOL    O8238436   0.594   3.582   4.181 -0.0034  0.3500  0.5697
  128MOL    C8338437   0.454   3.598   4.152 -0.2310  0.0314 -0.0991
  128MOL    H8438438   0.785   3.433   4.196  0.6894  1.5367  1.2478
  128MOL    H8538439   0.808   3.466   4.031 -1.3236 -0.6180  0.2788
  128MOL    H8638440   0.922   3.830   4.127  1.5041  1.0868 -0.5608
  128MOL    H8738441   1.038   3.700   4.133 -0.0375  0.5735  1.2326
  128MOL    H8838442   0.932   3.733   3.989 -2.1866 -3.1682  0.1139
  128MOL    H8938443   0.427   3.703   4.166  0.3080  0.0182  1.1872
  128MOL    H9038444   0.386   3.550   4.222 -2.4755  1.5117 -1.2363
  128MOL    H9138445   0.435   3.567   4.050 -2.6327 -0.2321  0.3990
  128MOL    C9238446   0.846   3.637   4.323 -0.0639 -0.3157  0.1017
  128MOL    C9338447   0.831   3.767   4.419  0.5851 -0.2324 -0.1064
  128MOL    C9438448   0.850   3.719   4.562 -0.6352 -0.9402 -0.4602
  128MOL    C9538449   0.939   3.872   4.394  0.5101  0.1107 -1.1040
  128MOL    O9638450   0.918   3.982   4.336  0.1952  0.0793 -0.4532
  128MOL    O9738451   1.062   3.839   4.437  0.2409 -0.4844  0.2944
  128MOL    C9838452   1.172   3.923   4.429  0.7777 -0.8646 -0.3220
  128MOL    H9938453   0.948   3.608   4.346 -0.1373 -0.3330  0.4009
  128MOL   H10038454   0.778   3.561   4.361  0.1021 -0.5780 -0.1242
  128MOL   H10138455   0.763   3.671   4.608 -1.5497  1.6133  0.5297
  128MOL   H10238456   0.943   3.662   4.570 -0.1292  0.2446  2.5292
  128MOL   H10338457   0.865   3.802   4.631 -0.3980 -1.0408 -0.3887
  128MOL   H10438458   1.127   4.012   4.473  0.4444 -0.8701 -0.6522
  128MOL   H10538459   1.196   3.953   4.327  0.4903  2.2242  0.4712
  128MOL   H10638460   1.262   3.893   4.484  0.3448 -2.1882 -0.3082
  128MOL   C10738461   0.679   3.826   4.398 -0.5730  0.4015  0.2885
  128MOL   C10838462   0.600   3.925   4.492 -0.1309 -0.5121 -0.1224
  128MOL   C10938463   0.562   3.847   4.616 -0.1232  1.0574  0.3995
  128MOL   C11038464   0.680   4.049   4.543 -0.7173 -0.4308 -0.2001
  128MOL   O11138465   0.729   4.053   4.655 -0.5804  0.3118  0.1761
  128MOL   O11238466   0.692   4.147   4.451  1.1813 -0.3828 -0.5046
  128MOL   C11338467   0.762   4.261   4.498 -0.2907  0.3974 -1.0959
  128MOL   H11438468   0.607   3.744   4.396 -0.0057 -0.1049  0.5702
  128MOL   H11538469   0.685   3.881   4.303 -1.9422 -1.9161 -1.1941
  128MOL   H11638470   0.518   3.751   4.588 -0.0465  0.6078  1.7707
  128MOL   H11738471   0.643   3.821   4.683  0.0304  1.4248  0.3541
  128MOL   H11838472   0.497   3.900   4.686  0.6493 -0.7390  2.5115
  128MOL   H11938473   0.865   4.241   4.528 -0.1430  1.0901 -1.1347
  128MOL   H12038474   0.696   4.310   4.570  1.1963  0.4045  0.2790
  128MOL   H12138475   0.771   4.325   4.410 -1.4323  0.5889 -1.0834
  128MOL   C12238476   0.468   3.973   4.414  0.0955 -0.2312  0.1990
  128MOL   C12338477   0.356   4.072   4.470  0.2837  0.3105 -0.2084
  128MOL   C12438478   0.344   4.082   4.625 -0.6223 -0.2828 -0.7493
  128MOL   C12538479   0.388   4.212   4.427  0.2877 -1.4569 -0.0140
  128MOL   O12638480   0.351   4.318   4.484 -0.3958 -0.2073 -0.4146
  128MOL   O12738481   0.453   4.219   4.308 -0.2436  0.4020 -0.4937
  128MOL   C12838482   0.494   4.336   4.251 -0.1871  0.1932 -0.0548
  128MOL   H12938483   0.409   3.884   4.390  0.9586 -0.6614 -0.3348
  128MOL   H13038484   0.504   4.003   4.316  0.8230 -0.1274  0.4943
  128MOL   H13138485   0.266   4.154   4.646 -0.1323  0.1228 -0.3080
  128MOL   H13238486   0.323   3.986   4.672 -0.0449  0.2627  0.6593
  128MOL   H13338487   0.433   4.129   4.667 -1.2100 -0.2302  0.4522
  128MOL   H13438488   0.603   4.332   4.240  0.3542  1.1361  4.1597
  128MOL   H13538489   0.463   4.418   4.315 -0.3935 -1.4813  2.0620
  128MOL   H13638490   0.452   4.341   4.150  3.7051 -0.9125 -1.8365
  128MOL   C13738491   0.209   4.028   4.418  0.1897 -0.4115  0.5028
  128MOL   C13838492   0.132   4.086   4.290  0.6978 -0.0771 -0.5771
  128MOL   C13938493   0.102   4.239   4.325  0.6066  0.7733 -0.7248
  128MOL   C14038494   0.217   4.069   4.161 -0.6502  1.0084 -0.3444
  128MOL   O14138495   0.230   4.168   4.083 -0.0121  0.4535 -0.1680
  128MOL   O14238496   0.274   3.946   4.139  0.6435  0.1358 -0.0883
  128MOL   C14338497   0.336   3.920   4.011 -0.7763 -0.6166  0.1213
  128MOL   H14438498   0.133   4.034   4.496  0.4740 -0.8806  0.8198
  128MOL   H14538499   0.207   3.919   4.410  1.1217 -0.4805  1.1058
  128MOL   H14638500   0.181   4.303   4.286 -0.1498  1.1102 -1.7362
  128MOL   H14738501   0.005   4.270   4.285  0.2269 -1.7744 -1.8842
  128MOL   H14838502   0.093   4.270   4.429 -0.2835 -1.4312 -0.1059
  128MOL   H14938503   0.363   3.816   3.995  0.4894 -0.3699  0.5438
  128MOL   H15038504   0.421   3.985   3.987 -2.1523  1.0010 -0.4795
  128MOL   H15138505   0.267   3.938   3.929 -2.7048 -0.8611  1.6616
  128MOL   C15238506   7.867   4.016   4.286  0.3950 -0.2347 -0.1210
  128MOL   C15338507   7.775   3.992   4.152 -0.1606 -0.1852 -0.3251
  128MOL   C15438508   7.753   4.129   4.086 -0.2449  0.1044  0.6168
  128MOL   C15538509   7.835   3.889   4.055 -0.4217 -0.3597 -0.5746
  128MOL   O15638510   7.859   3.916   3.937 -0.3664  0.4090 -0.0983
  128MOL   O15738511   7.869   3.771   4.117  0.4296  0.4619  0.3745
  128MOL   C15838512   0.053   3.668   4.041 -0.0347  0.0926 -0.5579
  128MOL   H15938513   7.810   4.063   4.366  0.7292  0.9974 -0.5922
  128MOL   H16038514   7.867   3.914   4.326 -2.4975  0.0614  0.7361
  128MOL   H16138515   7.676   4.128   4.009  0.0554  1.3393  0.2775
  128MOL   H16238516   7.717   4.197   4.163 -3.9116  1.0268 -1.7644
  128MOL   H16338517   7.833   4.186   4.037 -1.7116  0.9086 -0.8892
  128MOL   H16438518   0.034   3.569   4.083  2.4343 -0.1417  0.1098
  128MOL   H16538519   0.160   3.687   4.040 -0.0387  0.0879 -1.4474
  128MOL   H16638520   0.015   3.665   3.939 -0.6941 -0.1956 -0.3080
  128MOL   C16738521   7.644   3.938   4.218  0.1614 -0.0608  0.5709
  128MOL   C16838522   7.507   3.920   4.144  0.5179  0.4826  0.3465
  128MOL   C16938523   7.435   4.059   4.141  0.4109  0.3895 -0.3709
  128MOL   C17038524   7.517   3.875   3.998 -0.3018  0.2123  0.1042
  128MOL   O17138525   7.481   3.948   3.908 -0.3672  0.0668 -0.4536
  128MOL   O17238526   7.569   3.758   3.983  0.0267 -0.1439  0.3440
  128MOL   C17338527   7.594   3.717   3.845  0.7770 -0.1079 -0.6919
  128MOL   H17438528   7.616   3.993   4.308  1.1681 -0.0843  0.9016
  128MOL   H17538529   7.676   3.841   4.257  0.8406  0.2080  0.6908
  128MOL   H17638530   7.341   4.052   4.085 -0.0358 -0.7205  0.5023
  128MOL   H17738531   7.424   4.090   4.245 -2.0473  1.0042 -0.7674
  128MOL   H17838532   7.494   4.138   4.095  3.2026 -1.4427 -0.0877
  128MOL   H17938533   7.496   3.712   3.798  0.3851  0.8020  0.0213
  128MOL   H18038534   7.630   3.614   3.844 -0.1605 -0.5192  2.2722
  128MOL   H18138535   7.659   3.786   3.791  2.0303 -1.3524 -0.8090
  128MOL   C18238536   7.438   3.814   4.230  0.2887  0.0268  0.3189
  128MOL   C18338537   7.282   3.767   4.223 -0.0367 -0.3145  0.4463
  128MOL   C18438538   7.236   3.756   4.080  0.2421  0.4949  0.4165
  128MOL   C18538539   7.264   3.627   4.291 -0.2992 -0.3612  0.4689
  128MOL   O18638540   7.210   3.528   4.248  0.2957  0.2510 -0.3740
  128MOL   O18738541   7.324   3.626   4.408 -0.0893 -0.2292  0.0104
  128MOL   C18838542   7.286   3.516   4.501  0.4812 -0.6757  0.2152
  128MOL   H18938543   7.457   3.835   4.336 -1.0026 -0.3460  0.6311
  128MOL   H19038544   7.491   3.720   4.214 -1.7186 -1.0636 -0.0320
  128MOL   H19138545   7.309   3.717   4.010  0.1896 -1.0649  1.2141
  128MOL   H19238546   7.155   3.686   4.060 -0.4562  1.5280 -0.3988
  128MOL   H19338547   7.209   3.850   4.031  0.3770 -0.7725 -2.1452
  128MOL   H19438548   7.309   3.552   4.601  2.5842  1.4952 -0.9853
  128MOL   H19538549   7.355   3.432   4.496 -1.3701 -2.1743 -1.0047
  128MOL   H19638550   7.186   3.475   4.488  0.0769 -0.5558  2.6828
  128MOL   C19738551   7.195   3.882   4.294  0.2559  0.0115  0.1861
  128MOL   C19838552   7.044   3.870   4.346  0.7233  0.3031  0.1159
  128MOL   C19938553   6.964   3.821   4.226  0.3645  0.8999 -0.1458
  128MOL   C20038554   7.032   3.770   4.468 -0.1929 -0.3492  0.6337
  128MOL   O20138555   6.962   3.670   4.469  0.2834  0.2528  0.2565
  128MOL   O20238556   7.107   3.804   4.571 -0.0865 -0.3233  0.3269
  128MOL   C20338557   7.118   3.733   4.694 -0.0943 -0.4508  0.3900
  128MOL   H20438558   7.196   3.972   4.232  0.1065  0.7429  1.2234
  128MOL   H20538559   7.256   3.921   4.376 -0.0552  0.4284  0.2222
  128MOL   H20638560   6.994   3.721   4.192  3.5175  1.2755  1.3487
  128MOL   H20738561   6.857   3.822   4.243  0.5276  0.7954  0.9463
  128MOL   H20838562   6.981   3.871   4.131  1.1089  0.7804 -0.0806
  128MOL   H20938563   7.134   3.627   4.673 -0.4718 -0.5300  0.5149
  128MOL   H21038564   7.021   3.733   4.742  0.7540  0.7571  2.1685
  128MOL   H21138565   7.191   3.779   4.760 -1.2502  0.3218  1.1439
  128MOL   C21238566   7.008   4.018   4.387 -0.2479  0.5770  0.2951
  128MOL   C21338567   6.868   4.067   4.442  0.7398 -0.9239 -0.2677
  128MOL   C21438568   6.837   4.005   4.578  0.4729 -0.3561  0.3594
  128MOL   C21538569   6.893   4.224   4.463 -0.5207 -0.2494 -0.5212
  128MOL   O21638570   6.971   4.281   4.389  0.5516  0.4810 -0.0805
  128MOL   O21738571   6.809   4.279   4.550  0.5063 -0.2288 -0.1329
  128MOL   C21838572   6.800   4.419   4.555  0.2483  0.5812 -0.7046
  128MOL   H21938573   7.048   4.089   4.315  0.5141 -1.1567 -1.0330
  128MOL   H22038574   7.074   4.032   4.472  0.2692  1.2956 -0.2235
  128MOL   H22138575   6.758   4.051   4.636  2.6598  1.4602  2.0082
  128MOL   H22238576   6.825   3.897   4.565  3.5156 -0.7101  0.0995
  128MOL   H22338577   6.926   4.007   4.641  0.3626 -0.0695  0.5023
  128MOL   H22438578   6.891   4.478   4.550  0.3025  0.5588 -0.0742
  128MOL   H22538579   6.758   4.450   4.651  2.2832 -0.1672  0.4539
  128MOL   H22638580   6.742   4.468   4.477 -2.7857  1.4318  1.9424
  128MOL   C22738581   6.746   4.026   4.347  0.0258  0.3042 -0.2353
  128MOL   C22838582   6.610   4.096   4.332  0.4910 -0.3587  0.2765
  128MOL   C22938583   6.546   4.110   4.472  0.4041  0.1789  0.1955
  128MOL   C23038584   6.625   4.236   4.280 -0.1649  0.1034  0.3761
  128MOL   O23138585   6.575   4.336   4.332 -0.1502 -0.2065 -0.2155
  128MOL   O23238586   6.716   4.249   4.183  0.1472  0.2178 -0.4381
  128MOL   C23338587   6.736   4.376   4.126  0.2605 -0.1620  0.9855
  128MOL   H23438588   6.722   3.925   4.381  2.3905 -1.3877 -3.2764
  128MOL   H23538589   6.786   4.013   4.246 -0.0763 -1.9564 -0.0206
  128MOL   H23638590   6.441   4.139   4.472  0.5722  0.7709 -0.6359
  128MOL   H23738591   6.543   4.014   4.525 -1.1480 -0.1192 -0.4072
  128MOL   H23838592   6.613   4.176   4.526 -2.3526  2.9587  0.3733
  128MOL   H23938593   6.661   4.404   4.053  1.0038 -0.9663 -0.1150
  128MOL   H24038594   6.837   4.388   4.085  0.3162  1.3665  1.5335
  128MOL   H24138595   6.733   4.445   4.210 -0.3834  2.2810 -0.9946
  128MOL   C24238596   6.526   4.003   4.237  0.6620  0.3719  0.5024
  128MOL   C24338597   6.406   4.050   4.149  0.4622  0.3553  0.0070
  128MOL   C24438598   6.312   4.143   4.232  0.2214 -0.7846  0.2188
  128MOL   C24538599   6.463   4.118   4.023 -0.0903  0.2950 -0.3504
  128MOL   O24638600   6.425   4.228   3.987 -0.5790  0.2082 -0.4465
  128MOL   O24738601   6.557   4.043   3.964 -0.3643  0.1704  0.0286
  128MOL   C24838602   6.628   4.094   3.849  0.3034  0.4546  0.0463
  128MOL   H24938603   6.480   3.931   4.305 -0.5772  2.2825  1.7380
  128MOL   H25038604   6.587   3.939   4.173 -0.4918 -0.8145  0.5639
  128MOL   H25138605   6.233   4.083   4.277 -1.2765  1.6429  0.9428
  128MOL   H25238606   6.359   4.212   4.302  0.1266 -0.4963 -0.0016
  128MOL   H25338607   6.252   4.208   4.167  1.2827  0.3962  0.3966
  128MOL   H25438608   6.681   4.009   3.804  1.3246  0.6050  0.9497
  128MOL   H25538609   6.712   4.161   3.868  1.4229 -0.0102 -2.8799
  128MOL   H25638610   6.569   4.129   3.765  0.5113  1.5060  0.3395
  128MOL   C25738611   6.333   3.914   4.113  0.6892 -0.2903  0.4134
  128MOL   C25838612   6.217   3.899   4.011 -0.2231  0.3258 -0.1363
  128MOL   C25938613   6.113   4.006   4.022 -0.0549 -0.6545 -0.2166
  128MOL   C26038614   6.267   3.899   3.869 -0.4727 -0.1275  0.2872
  128MOL   O26138615   6.227   3.978   3.780  0.3917  0.1499 -0.1195
  128MOL   O26238616   6.358   3.803   3.850  0.3532  0.9507  0.0051
  128MOL   C26338617   6.422   3.797   3.727 -0.4211 -0.0359  0.5377
  128MOL   H26438618   6.298   3.871   4.207 -0.3001  0.7039  0.5044
  128MOL   H26538619   6.409   3.839   4.090  1.3256  0.0896  1.2616
  128MOL   H26638620   6.029   3.997   3.953 -0.4623  0.9134  0.0653
  128MOL   H26738621   6.072   4.009   4.123 -0.9512 -0.2815 -0.5823
  128MOL   H26838622   6.163   4.102   4.006  1.4215 -1.2697  0.6067
  128MOL   H26938623   6.460   3.893   3.693 -1.7047  1.2775  2.6956
  128MOL   H27038624   6.364   3.761   3.642 -2.6913 -3.0182  3.1927
  128MOL   H27138625   6.517   3.744   3.728  0.2321  0.9480 -3.1026
  128MOL   C27238626   6.161   3.757   4.049  0.3324 -0.4384 -0.5934
  128MOL   C27338627   6.065   3.663   3.964  0.2889 -0.5312  0.1539
  128MOL   C27438628   5.950   3.748   3.899 -0.3409  0.0694  0.0508
  128MOL   C27538629   6.143   3.587   3.851 -0.0071 -0.1264 -0.1695
  128MOL   O27638630   6.213   3.489   3.879 -0.0995 -0.8162 -0.0867
  128MOL   O27738631   6.133   3.637   3.725  0.3141 -0.3279  0.5221
  128MOL   C27838632   6.187   3.564   3.623 -0.5424  0.2268  0.3085
  128MOL   H27938633   6.115   3.767   4.148 -0.5392 -0.1360 -1.0184
  128MOL   H28038634   6.244   3.691   4.074  1.7331  1.1691 -0.8935
  128MOL   H28138635   5.999   3.805   3.820  2.5126 -1.6729  0.4854
  128MOL   H28238636   5.866   3.698   3.850  0.7885 -1.9674  0.1244
  128MOL   H28338637   5.904   3.821   3.965 -1.2613 -1.1171  0.7571
  128MOL   H28438638   6.154   3.461   3.637  0.3239 -0.1684 -0.4809
  128MOL   H28538639   6.294   3.583   3.612  0.1967 -3.7267  0.0897
  128MOL   H28638640   6.147   3.601   3.528 -0.8557  0.9449  0.7192
  128MOL   C28738641   6.000   3.565   4.060  0.6399  0.5064 -0.3412
  128MOL   C28838642   5.881   3.478   4.019 -0.5074 -0.0497 -0.2009
  128MOL   C28938643   5.909   3.378   3.910 -0.7359 -0.1199 -0.3978
  128MOL   C29038644   5.815   3.405   4.138 -0.4497 -0.4721  0.4415
  128MOL   O29138645   5.719   3.455   4.198 -0.4585  0.1458  0.3253
  128MOL   O29238646   5.889   3.310   4.186  0.7018  0.2257 -0.0106
  128MOL   C29338647   5.857   3.245   4.308  0.4251 -0.0020 -0.2722
  128MOL   H29438648   5.961   3.616   4.148  1.0013 -1.8992  1.2915
  128MOL   H29538649   6.076   3.503   4.109  0.2135 -0.3748 -0.7924
  128MOL   H29638650   5.922   3.416   3.809 -0.6586 -1.3755 -0.8620
  128MOL   H29738651   5.987   3.309   3.943 -0.6165  0.3758  0.3674
  128MOL   H29838652   5.824   3.311   3.898 -0.7743  0.0252 -0.9327
  128MOL   H29938653   5.848   3.315   4.391  0.1385  0.4850 -0.7096
  128MOL   H30038654   5.946   3.189   4.337  1.1586  0.0476 -2.3681
  128MOL   H30138655   5.778   3.170   4.316  2.0251 -1.5882  1.4081
  128MOL   H30238656   5.800   3.543   3.985 -0.5558  1.6902  3.0453
  129MOL     C138657   3.694   2.934   3.214 -0.0485 -0.8644  0.4162
  129MOL     C238658   3.706   3.061   3.126 -0.1722 -0.8187  0.3409
  129MOL     C338659   3.821   3.134   3.193  0.3734  0.6332 -0.0742
  129MOL     C438660   3.742   3.015   2.984 -0.0410 -0.2560 -0.1832
  129MOL     O538661   3.838   3.064   2.927 -0.2861  0.1159  0.1111
  129MOL     O638662   3.654   2.919   2.933  0.6455  0.4186 -0.1129
  129MOL     C738663   3.661   2.882   2.795  0.4172  0.4233  0.7360
  129MOL     H838664   3.770   2.862   3.183  1.1398 -0.2432  1.8245
  129MOL     H938665   3.712   2.953   3.320 -0.2554 -0.1362  0.3276
  129MOL    H1038666   3.835   3.231   3.146 -0.7126 -0.0173 -1.8061
  129MOL    H1138667   3.799   3.159   3.297  0.5067 -1.2413  0.4229
  129MOL    H1238668   3.915   3.080   3.205  0.9235  0.9918 -2.4692
  129MOL    H1338669   3.640   2.967   2.731 -0.4726  1.2090  2.0470
  129MOL    H1438670   3.603   2.795   2.762  3.9580 -1.1643 -1.5353
  129MOL    H1538671   3.764   2.853   2.775  0.3004  0.8822 -0.6031
  129MOL    H1638672   3.601   2.879   3.198 -0.6676 -0.1017  1.3431
  129MOL    C1738673   3.572   3.137   3.134  0.4191  0.1432 -0.0635
  129MOL    C1838674   3.539   3.265   3.048  1.1259 -0.4055 -0.3259
  129MOL    C1938675   3.659   3.353   3.006  0.4279  0.3176  0.3775
  129MOL    C2038676   3.469   3.215   2.917 -0.3809 -0.7833 -0.6944
  129MOL    O2138677   3.524   3.233   2.810  0.0980 -0.3849  0.3236
  129MOL    O2238678   3.361   3.139   2.933 -0.0643  0.0551 -0.0697
  129MOL    C2338679   3.299   3.077   2.820 -0.2144 -0.5804  0.4566
  129MOL    H2438680   3.556   3.155   3.240  0.0274 -0.7300  0.0266
  129MOL    H2538681   3.494   3.067   3.106  0.1834 -0.0470  1.0377
  129MOL    H2638682   3.615   3.428   2.941  1.2883  0.5053  0.0075
  129MOL    H2738683   3.718   3.414   3.074 -0.1499  2.0447 -0.6371
  129MOL    H2838684   3.732   3.293   2.952 -1.0255 -1.3154  0.1785
  129MOL    H2938685   3.220   3.008   2.850  0.0871 -1.0414  0.2050
  129MOL    H3038686   3.368   3.021   2.757 -0.7512  0.1687 -0.8104
  129MOL    H3138687   3.253   3.161   2.769  1.5228 -0.7040 -1.3787
  129MOL    C3238688   3.438   3.368   3.122  0.5052  0.6653 -0.3535
  129MOL    C3338689   3.481   3.470   3.233  0.1138 -0.5379  0.8737
  129MOL    C3438690   3.570   3.407   3.326  0.3495 -0.3124  0.0562
  129MOL    C3538691   3.558   3.601   3.173  0.3677  0.1526  0.3747
  129MOL    O3638692   3.539   3.644   3.064 -0.1688 -0.0440  0.3458
  129MOL    O3738693   3.635   3.663   3.269 -0.0553  0.2909  0.0859
  129MOL    C3838694   3.725   3.765   3.229  0.0027  0.4977 -0.4656
  129MOL    H3938695   3.375   3.290   3.164 -0.2176  0.5949 -1.5401
  129MOL    H4038696   3.380   3.420   3.046 -1.5300  1.6963  1.8649
  129MOL    H4138697   3.597   3.466   3.414  0.4267  0.0704 -0.2248
  129MOL    H4238698   3.517   3.322   3.369  2.3733 -1.0040  1.2134
  129MOL    H4338699   3.659   3.370   3.276 -0.1061  1.5723 -2.2357
  129MOL    H4438700   3.684   3.824   3.147  0.0278 -1.2990 -1.7934
  129MOL    H4538701   3.820   3.719   3.203 -0.3304 -0.0776 -0.6676
  129MOL    H4638702   3.748   3.823   3.318  0.4848  1.8222 -1.4422
  129MOL    C4738703   3.356   3.528   3.313 -0.0549 -0.3947 -0.2716
  129MOL    C4838704   3.227   3.588   3.259 -0.1583  0.6061 -0.7671
  129MOL    C4938705   3.252   3.710   3.169 -1.1304 -0.0529 -0.9072
  129MOL    C5038706   3.151   3.484   3.173  0.0297  0.2258 -0.7359
  129MOL    O5138707   3.106   3.502   3.059 -0.2172  0.1943 -0.1540
  129MOL    O5238708   3.133   3.369   3.239 -0.2875  0.0383 -0.6501
  129MOL    C5338709   3.074   3.255   3.185  0.4160 -0.5570  0.1671
  129MOL    H5438710   3.399   3.607   3.374  0.0982 -1.7063  1.3498
  129MOL    H5538711   3.328   3.443   3.375  2.7288 -1.7323 -0.7464
  129MOL    H5638712   3.310   3.698   3.078 -0.6601  0.7478 -0.7251
  129MOL    H5738713   3.159   3.759   3.138 -0.7372  0.8906 -0.6407
  129MOL    H5838714   3.317   3.779   3.223 -1.1572 -1.6915  1.2949
  129MOL    H5938715   3.003   3.288   3.110  0.0625  1.7210  1.4678
  129MOL    H6038716   3.030   3.201   3.268  2.9225 -2.9323  0.0400
  129MOL    H6138717   3.133   3.187   3.124  0.8036 -0.1156  0.0447
  129MOL    C6238718   3.148   3.626   3.389  0.3993  1.7794 -0.4463
  129MOL    C6338719   3.017   3.720   3.393 -0.0467  0.3911  0.4142
  129MOL    C6438720   3.078   3.870   3.398 -0.0517 -0.0097 -0.2223
  129MOL    C6538721   2.920   3.707   3.276  0.3320  0.0986 -0.3764
  129MOL    O6638722   2.902   3.801   3.202  0.2293 -0.2868  0.4372
  129MOL    O6738723   2.878   3.577   3.255  0.8363  1.1605 -0.6093
  129MOL    C6838724   2.801   3.542   3.142  0.0214 -0.3920 -0.0886
  129MOL    H6938725   3.209   3.638   3.478  0.4642 -0.8056 -0.0913
  129MOL    H7038726   3.094   3.536   3.419  1.7888  0.8685 -0.6409
  129MOL    H7138727   3.002   3.948   3.388  1.6741  2.0078  1.9395
  129MOL    H7238728   3.128   3.900   3.489 -0.1281  1.3424 -0.6073
  129MOL    H7338729   3.145   3.899   3.317 -0.7222  0.7298 -0.5213
  129MOL    H7438730   2.828   3.584   3.045 -1.3313  2.5469  0.7550
  129MOL    H7538731   2.696   3.572   3.149  0.3724  1.4432 -2.2256
  129MOL    H7638732   2.815   3.435   3.127  0.9821 -0.3981  0.8043
  129MOL    C7738733   2.939   3.695   3.527 -0.0729 -0.8717 -0.1163
  129MOL    C7838734   2.823   3.780   3.591  0.9698  0.4755 -0.4624
  129MOL    C7938735   2.881   3.894   3.677  0.5414 -0.4971 -0.6960
  129MOL    C8038736   2.723   3.831   3.485  0.6215 -0.2991 -0.3918
  129MOL    O8138737   2.711   3.950   3.460  0.6511  0.5174  0.5897
  129MOL    O8238738   2.650   3.733   3.442  0.4975 -0.9176 -0.0707
  129MOL    C8338739   2.560   3.758   3.343 -0.5466  0.5330  0.0384
  129MOL    H8438740   3.014   3.679   3.604  0.8115 -0.9194 -0.9692
  129MOL    H8538741   2.900   3.593   3.520  0.1495 -1.1606  2.6353
  129MOL    H8638742   2.937   3.955   3.606  0.4460 -1.9543 -2.0557
  129MOL    H8738743   2.803   3.958   3.718 -0.3336 -1.2735 -1.1353
  129MOL    H8838744   2.940   3.863   3.763  1.5144 -1.1520 -1.5918
  129MOL    H8938745   2.576   3.851   3.289 -0.2375  0.4986  0.0692
  129MOL    H9038746   2.461   3.745   3.385 -2.0196  1.0760 -3.1430
  129MOL    H9138747   2.565   3.662   3.291 -0.1472  0.1957  0.6866
  129MOL    C9238748   2.744   3.680   3.693 -0.2079 -0.1628  0.3777
  129MOL    C9338749   2.629   3.724   3.802 -0.5285  0.3909 -0.2854
  129MOL    C9438750   2.692   3.790   3.926  0.0648 -0.6010 -0.4404
  129MOL    C9538751   2.526   3.817   3.739  0.3933 -0.0921 -0.2288
  129MOL    O9638752   2.446   3.778   3.656  0.1092  0.2947  0.2435
  129MOL    O9738753   2.555   3.946   3.764  0.0377  0.4014 -0.5543
  129MOL    C9838754   2.499   4.057   3.700  0.2474 -0.7517 -0.5805
  129MOL    H9938755   2.826   3.619   3.732 -0.7059 -3.0591 -2.8173
  129MOL   H10038756   2.706   3.600   3.629 -2.6504  0.9906  0.3190
  129MOL   H10138757   2.754   3.878   3.906  1.4557 -1.2634  0.9330
  129MOL   H10238758   2.611   3.831   3.987  0.0308 -0.8575 -0.3138
  129MOL   H10338759   2.735   3.716   3.993 -0.2453 -0.0921  0.3368
  129MOL   H10438760   2.399   4.036   3.663 -0.5641 -0.0370  1.1366
  129MOL   H10538761   2.555   4.077   3.609  0.3130  0.0362 -0.3647
  129MOL   H10638762   2.517   4.144   3.762  0.7699 -0.7433 -0.7406
  129MOL   C10738763   2.567   3.590   3.846 -0.9125  0.2545 -0.2156
  129MOL   C10838764   2.426   3.568   3.924 -0.1941 -0.1413  0.0509
  129MOL   C10938765   2.450   3.430   3.984  0.0216  0.1257  0.0584
  129MOL   C11038766   2.408   3.672   4.041  0.3271  0.5647  0.1886
  129MOL   O11138767   2.427   3.642   4.158 -0.1937  0.9951  0.5866
  129MOL   O11238768   2.367   3.800   3.997 -0.3553 -0.6259  0.6681
  129MOL   C11338769   2.353   3.895   4.097  0.1705  0.5141 -0.0852
  129MOL   H11438770   2.645   3.547   3.907 -1.8038  0.7678  1.3128
  129MOL   H11538771   2.560   3.520   3.763  0.4586 -1.2211  0.8994
  129MOL   H11638772   2.528   3.427   4.061 -1.2648  2.7842  1.5397
  129MOL   H11738773   2.358   3.394   4.030  1.6735 -1.6102  2.1518
  129MOL   H11838774   2.486   3.363   3.906 -1.7804  1.7331 -2.2110
  129MOL   H11938775   2.282   3.867   4.175  0.9864 -1.4408  0.0070
  129MOL   H12038776   2.338   3.988   4.043  1.0374  0.9569  0.4202
  129MOL   H12138777   2.456   3.898   4.135  0.8198  0.9572 -1.8171
  129MOL   C12238778   2.297   3.564   3.821 -0.0604  0.0317  0.1302
  129MOL   C12338779   2.156   3.505   3.855 -0.2377 -0.7892  0.7009
  129MOL   C12438780   2.155   3.351   3.833  0.1000 -0.5188  0.4145
  129MOL   C12538781   2.111   3.534   4.000 -0.2461 -0.2956 -0.1873
  129MOL   O12638782   2.135   3.455   4.088 -0.1255 -0.0997  0.2348
  129MOL   O12738783   2.069   3.658   4.024 -0.2857 -0.2734  0.7159
  129MOL   C12838784   2.030   3.699   4.155 -0.6343  0.0984  0.1971
  129MOL   H12938785   2.328   3.495   3.742  0.6479  1.7268 -1.0942
  129MOL   H13038786   2.285   3.654   3.761 -3.0205 -0.7785 -0.6013
  129MOL   H13138787   2.063   3.298   3.858 -2.4487  2.4056 -2.3190
  129MOL   H13238788   2.182   3.319   3.733  0.4608 -2.7003  1.1837
  129MOL   H13338789   2.232   3.309   3.899  0.7648 -0.7464 -0.4975
  129MOL   H13438790   2.015   3.807   4.162  0.8162  0.2202  1.5265
  129MOL   H13538791   2.106   3.660   4.223 -0.0664 -0.9845 -1.0327
  129MOL   H13638792   1.936   3.654   4.188 -0.0087 -0.8471  0.7117
  129MOL   C13738793   2.059   3.572   3.751 -0.1160  0.0073 -0.3356
  129MOL   C13838794   1.909   3.516   3.716 -0.3905  1.0138  0.3334
  129MOL   C13938795   1.913   3.412   3.605  0.4684  0.6243 -0.2955
  129MOL   C14038796   1.836   3.456   3.838  0.5476  0.9494 -0.6678
  129MOL   O14138797   1.803   3.336   3.843 -0.1187  0.6112 -0.0839
  129MOL   O14238798   1.792   3.549   3.921 -0.1989 -0.2796 -0.0316
  129MOL   C14338799   1.695   3.511   4.015 -0.1575 -0.3174 -0.3474
  129MOL   H14438800   2.124   3.564   3.664 -0.0809 -0.3707 -0.2737
  129MOL   H14538801   2.054   3.677   3.780 -2.5171 -0.2100  0.1486
  129MOL   H14638802   1.985   3.336   3.634 -1.2383 -0.8520  0.1306
  129MOL   H14738803   1.821   3.354   3.605 -1.5170  3.6374  0.1097
  129MOL   H14838804   1.930   3.435   3.500 -1.8543 -0.7991 -1.0074
  129MOL   H14938805   1.680   3.403   4.019 -1.3814 -0.0827  2.1716
  129MOL   H15038806   1.598   3.543   3.977 -0.0248 -0.5493 -0.9018
  129MOL   H15138807   1.712   3.550   4.115  0.3874  1.5974 -1.1692
  129MOL   C15238808   1.833   3.641   3.658 -0.2145  0.0808  0.2604
  129MOL   C15338809   1.686   3.641   3.597  0.4334  0.3169  0.2836
  129MOL   C15438810   1.707   3.640   3.448  0.7429  0.2095  0.0221
  129MOL   C15538811   1.598   3.517   3.625 -0.8084 -0.0636 -0.5897
  129MOL   O15638812   1.565   3.437   3.537 -0.2485  0.1928  0.4225
  129MOL   O15738813   1.557   3.516   3.754 -0.1936  0.2896 -0.8492
  129MOL   C15838814   1.463   3.413   3.801  0.3062 -0.0550 -0.1047
  129MOL   H15938815   1.906   3.694   3.598 -0.6375  0.1753 -0.1775
  129MOL   H16038816   1.832   3.703   3.748  0.7110  1.3729 -0.6083
  129MOL   H16138817   1.770   3.563   3.403 -0.5151 -0.4877 -0.5832
  129MOL   H16238818   1.613   3.618   3.399  0.1685  0.9558  0.7803
  129MOL   H16338819   1.750   3.733   3.413 -0.7349  0.4246 -1.2704
  129MOL   H16438820   1.389   3.398   3.722 -0.0812  0.1528  0.2168
  129MOL   H16538821   1.401   3.432   3.889  0.0243  1.3124 -0.5968
  129MOL   H16638822   1.509   3.315   3.819 -0.5317 -0.3551  0.4422
  129MOL   C16738823   1.629   3.781   3.643 -0.3783  0.2389  0.0594
  129MOL   C16838824   1.496   3.845   3.590 -0.1534  0.6452  0.2685
  129MOL   C16938825   1.510   3.905   3.449 -0.2087  0.0035  0.0990
  129MOL   C17038826   1.374   3.752   3.578  0.6666  0.2841  1.1871
  129MOL   O17138827   1.273   3.763   3.642  0.2875  0.1515 -0.0071
  129MOL   O17238828   1.375   3.677   3.466  0.8222  0.1529 -0.0012
  129MOL   C17338829   1.275   3.596   3.432 -0.1184  0.7196 -0.2173
  129MOL   H17438830   1.715   3.848   3.636 -0.0656 -0.1081  0.5628
  129MOL   H17538831   1.624   3.779   3.752 -1.3767  2.4993  0.0902
  129MOL   H17638832   1.415   3.937   3.407  0.9809  3.4342 -0.2283
  129MOL   H17738833   1.586   3.984   3.449 -0.1096 -0.0919 -0.5675
  129MOL   H17838834   1.562   3.837   3.382 -1.3367 -1.2006  0.4355
  129MOL   H17938835   1.322   3.532   3.357  0.4056  0.2053  0.5387
  129MOL   H18038836   1.187   3.647   3.393  0.2262  0.6287 -1.1269
  129MOL   H18138837   1.250   3.530   3.515  0.1274  2.5338  1.3369
  129MOL   C18238838   1.437   3.972   3.676  0.1252  0.8253 -0.5162
  129MOL   C18338839   1.415   3.977   3.836  0.4834 -0.1877 -0.5155
  129MOL   C18438840   1.386   3.839   3.909 -0.0162  0.3322 -0.1459
  129MOL   C18538841   1.542   4.047   3.898  0.3738  0.4486 -0.3061
  129MOL   O18638842   1.630   3.986   3.959  0.1208 -0.5737 -0.5366
  129MOL   O18738843   1.547   4.178   3.858  0.5472  0.4889 -0.7674
  129MOL   C18838844   1.671   4.240   3.859 -0.0225 -0.1818 -0.6054
  129MOL   H18938845   1.346   4.000   3.623 -0.1849 -0.5119 -0.6916
  129MOL   H19038846   1.495   4.061   3.649  2.2447 -0.6619 -0.9591
  129MOL   H19138847   1.404   3.858   4.014 -0.3241  0.3050 -0.0864
  129MOL   H19238848   1.284   3.803   3.894 -0.2194  1.0001 -0.4021
  129MOL   H19338849   1.464   3.767   3.882  1.5664  1.2875  1.8103
  129MOL   H19438850   1.725   4.192   3.777 -0.8359 -0.1645 -1.1608
  129MOL   H19538851   1.722   4.222   3.954 -2.2232  2.0676  1.0689
  129MOL   H19638852   1.646   4.343   3.834 -0.2016 -0.1525 -0.3046
  129MOL   C19738853   1.290   4.076   3.846  0.1298  0.3857 -0.1600
  129MOL   C19838854   1.215   4.122   3.975 -0.1813 -0.7142 -0.2207
  129MOL   C19938855   1.132   4.002   4.034 -0.3090 -0.0433  0.1403
  129MOL   C20038856   1.325   4.153   4.085  0.1219  0.6949 -0.2263
  129MOL   O20138857   1.363   4.064   4.158  0.6758  0.2931 -0.0786
  129MOL   O20238858   1.377   4.275   4.085  0.8786  0.3338  0.5539
  129MOL   C20338859   1.478   4.303   4.175 -0.2118  0.5331 -0.7161
  129MOL   H20438860   1.223   4.007   3.795 -0.1231 -1.5048  2.5971
  129MOL   H20538861   1.316   4.169   3.796  0.5243  1.3003  1.7083
  129MOL   H20638862   1.059   4.015   4.114 -0.0002 -0.3085  0.4619
  129MOL   H20738863   1.064   3.967   3.956 -0.4458 -2.3217  1.2488
  129MOL   H20838864   1.188   3.918   4.076 -0.2262  0.8639  1.9004
  129MOL   H20938865   1.566   4.247   4.145 -0.9769 -0.4722 -1.1007
  129MOL   H21038866   1.456   4.281   4.280 -1.8744 -0.8891 -1.3524
  129MOL   H21138867   1.511   4.407   4.165 -1.2605  0.7905 -1.5986
  129MOL   C21238868   1.129   4.253   3.960 -0.3226 -0.3337  0.5847
  129MOL   C21338869   1.001   4.269   3.880  0.4642  0.5016  0.3778
  129MOL   C21438870   0.996   4.169   3.763  0.3372  0.3036  0.3958
  129MOL   C21538871   0.877   4.232   3.971 -0.0903  0.0605  0.6384
  129MOL   O21638872   0.881   4.215   4.098 -0.6719 -0.2999  0.0281
  129MOL   O21738873   0.771   4.220   3.896  0.6883  0.6432 -0.5962
  129MOL   C21838874   0.655   4.170   3.957 -0.3020  0.8233 -0.3319
  129MOL   H21938875   1.196   4.328   3.918 -0.6067  0.5027  1.6036
  129MOL   H22038876   1.113   4.295   4.059  0.2588  2.3362 -0.4235
  129MOL   H22138877   1.087   4.173   3.703 -0.9714  0.1452 -1.6572
  129MOL   H22238878   0.975   4.068   3.797  0.9551 -0.6293 -1.8861
  129MOL   H22338879   0.911   4.194   3.699 -0.6203 -1.8817  0.7762
  129MOL   H22438880   0.645   4.062   3.962  0.8695  0.7609  0.6279
  129MOL   H22538881   0.571   4.217   3.904 -1.3367 -1.9565 -1.2914
  129MOL   H22638882   0.643   4.209   4.058  0.3994  1.8018 -0.6192
  129MOL   C22738883   0.982   4.412   3.818  0.2601  0.0254 -0.3145
  129MOL   C22838884   0.973   4.553   3.888 -0.1270  0.5820  0.3530
  129MOL   C22938885   0.865   4.554   4.004  0.1432  0.0561 -0.1101
  129MOL   C23038886   1.118   4.591   3.945  0.1814  0.3646  0.6174
  129MOL   O23138887   1.129   4.638   4.056  0.2857 -0.6541 -0.0095
  129MOL   O23238888   1.215   4.575   3.861  0.2975  0.0458 -0.0474
  129MOL   C23338889   1.351   4.610   3.897  0.5187  0.0369 -0.8176
  129MOL   H23438890   0.888   4.413   3.763 -1.1885 -0.2066  2.1131
  129MOL   H23538891   1.055   4.421   3.737  0.4847  1.1809  0.0142
  129MOL   H23638892   0.857   4.647   4.061 -2.0048  0.1729 -0.5674
  129MOL   H23738893   0.768   4.541   3.957 -0.3290  0.5418  0.7288
  129MOL   H23838894   0.890   4.475   4.075  0.9169  0.1427 -0.2752
  129MOL   H23938895   1.368   4.573   3.998 -0.4587 -1.3824 -1.1613
  129MOL   H24038896   1.377   4.716   3.894  1.1594 -0.0183  1.4655
  129MOL   H24138897   1.414   4.550   3.831 -0.2705  0.0394 -1.5808
  129MOL   C24238898   0.949   4.650   3.764 -0.3672 -0.2091  0.1356
  129MOL   C24338899   0.910   4.804   3.764 -0.0331 -0.0814  0.2552
  129MOL   C24438900   0.788   4.832   3.852 -0.5210  0.2826 -0.3564
  129MOL   C24538901   1.018   4.907   3.810 -0.0214  0.3299  0.5490
  129MOL   O24638902   1.128   4.871   3.849 -0.0733  0.8030  0.1252
  129MOL   O24738903   0.975   5.031   3.799 -0.6502 -0.2740 -0.0372
  129MOL   C24838904   1.070   5.135   3.825  0.0091 -0.0084  0.4871
  129MOL   H24938905   0.860   4.604   3.721 -2.1922  0.9920  2.5061
  129MOL   H25038906   1.036   4.631   3.701 -0.1685  0.3009  0.2546
  129MOL   H25138907   0.821   4.827   3.956  1.0889 -1.9862 -0.9440
  129MOL   H25238908   0.740   4.928   3.834  2.3102  1.5519 -1.5198
  129MOL   H25338909   0.718   4.751   3.829 -1.3023  0.9140 -0.2242
  129MOL   H25438910   1.152   5.122   3.754  0.7496  2.4163  0.8477
  129MOL   H25538911   1.124   5.138   3.920  1.1340  1.9190 -0.1830
  129MOL   H25638912   1.033   5.233   3.797  0.1877 -0.8075 -2.7460
  129MOL   C25738913   0.865   4.844   3.615 -1.4113  0.3116  0.0362
  129MOL   C25838914   0.961   4.822   3.486  0.0231 -0.0885  0.1299
  129MOL   C25938915   1.109   4.864   3.519 -0.2400  0.2475  1.0361
  129MOL   C26038916   0.963   4.673   3.429  0.5329 -1.4322  0.1962
  129MOL   O26138917   0.901   4.582   3.483  0.4590 -0.1804 -0.4592
  129MOL   O26238918   1.023   4.660   3.313 -0.4315  0.1446 -0.6948
  129MOL   C26338919   0.989   4.547   3.231 -0.3019  0.3557 -0.3807
  129MOL   H26438920   0.829   4.947   3.612  1.8361  1.4830 -2.7389
  129MOL   H26538921   0.783   4.777   3.588  1.2252 -2.1564 -2.2598
  129MOL   H26638922   1.171   4.859   3.429 -0.6851  0.8312  0.6940
  129MOL   H26738923   1.126   4.967   3.553  1.8958 -0.8464  3.4458
  129MOL   H26838924   1.168   4.800   3.585  1.2627 -0.2042 -0.7228
  129MOL   H26938925   1.029   4.562   3.131 -0.9204  0.1956 -0.6600
  129MOL   H27038926   0.881   4.530   3.220 -0.4487  0.4046  0.9061
  129MOL   H27138927   1.041   4.460   3.270  1.3888  1.9908  1.0743
  129MOL   C27238928   0.910   4.917   3.365 -0.8539 -0.1738 -0.0388
  129MOL   C27338929   0.769   4.923   3.291  0.2808  0.0240 -0.0927
  129MOL   C27438930   0.725   4.777   3.250  0.1145  0.2096  0.1340
  129MOL   C27538931   0.661   4.975   3.393  0.0660  0.0694  0.4061
  129MOL   O27638932   0.567   4.910   3.442  0.0566  0.0760 -0.0937
  129MOL   O27738933   0.677   5.101   3.415 -0.3294  0.0102 -0.9015
  129MOL   C27838934   0.576   5.177   3.485  0.1766  0.9907  0.8822
  129MOL   H27938935   0.985   4.891   3.290 -0.4805  2.0069 -0.4545
  129MOL   H28038936   0.948   5.015   3.392  2.3277 -1.4471  0.3872
  129MOL   H28138937   0.700   4.713   3.334  2.0176 -0.0613  0.5082
  129MOL   H28238938   0.649   4.774   3.172 -1.7175 -0.1860  1.8899
  129MOL   H28338939   0.809   4.733   3.197 -0.2429  1.7511 -1.7813
  129MOL   H28438940   0.547   5.263   3.425  0.4865 -0.1450 -0.9263
  129MOL   H28538941   0.581   5.190   3.594 -0.3039 -1.6500  1.2604
  129MOL   H28638942   0.487   5.115   3.474  1.9029 -1.3511 -0.3737
  129MOL   C28738943   0.789   5.022   3.170  0.0338  0.4373  0.1826
  129MOL   C28838944   0.671   5.037   3.071  0.2500 -0.2664  0.1612
  129MOL   C28938945   0.674   5.170   2.997  0.3463 -0.0992  0.1276
  129MOL   C29038946   0.632   4.921   2.984 -0.8747  0.1749  0.2150
  129MOL   O29138947   0.517   4.875   2.980 -0.4730 -0.2955  0.4689
  129MOL   O29238948   0.734   4.888   2.902 -0.4987 -0.3743  0.2273
  129MOL   C29338949   0.726   4.778   2.816  0.6919 -0.6956  0.7420
  129MOL   H29438950   0.866   4.966   3.116 -0.5060 -2.5341  2.3622
  129MOL   H29538951   0.833   5.118   3.195  1.2569  0.9115 -3.4174
  129MOL   H29638952   0.769   5.181   2.943  0.9059 -1.3082  0.8497
  129MOL   H29738953   0.616   5.155   2.906  0.5490  1.4637 -0.2696
  129MOL   H29838954   0.645   5.257   3.056  2.4907  2.2948 -2.2010
  129MOL   H29938955   0.656   4.789   2.733  2.2767  0.4425 -0.4655
  129MOL   H30038956   0.686   4.695   2.874  1.3597 -0.1595  1.9764
  129MOL   H30138957   0.824   4.752   2.777 -0.3378 -1.9494 -1.0976
  129MOL   H30238958   0.589   5.049   3.142 -0.5168  2.8542 -1.1714
  130MOL     C138959   4.002   2.427   5.613  0.5709  0.4404  0.0650
  130MOL     C238960   4.086   2.395   5.738  0.0024 -0.1541 -0.1747
  130MOL     C338961   4.236   2.368   5.689  0.1986 -0.2414 -0.9651
  130MOL     C438962   4.109   2.531   5.820  0.3830  0.0553 -0.2311
  130MOL     O538963   4.078   2.635   5.763  0.3271  0.0352  0.0200
  130MOL     O638964   4.179   2.522   5.937 -0.2922 -0.5672  0.5181
  130MOL     C738965   4.237   2.644   5.981 -0.0464 -0.5414  0.2889
  130MOL     H838966   3.978   2.335   5.559  0.3817  0.0235  0.8590
  130MOL     H938967   3.908   2.480   5.630  1.8984  2.4828  1.2013
  130MOL    H1038968   4.244   2.300   5.604  1.4936 -0.4714 -0.6579
  130MOL    H1138969   4.266   2.465   5.650 -3.8867  2.6965  2.6129
  130MOL    H1238970   4.305   2.327   5.762 -0.4756 -0.6876 -0.5669
  130MOL    H1338971   4.271   2.717   5.908  1.9111 -0.9566  0.7613
  130MOL    H1438972   4.316   2.611   6.048 -0.1384  0.0924  0.7154
  130MOL    H1538973   4.161   2.681   6.050 -0.7207  0.6164 -1.0296
  130MOL    H1638974   4.056   2.492   5.544  1.6582  1.2095  1.6291
  130MOL    C1738975   4.035   2.281   5.829  0.2460 -0.8436  0.8254
  130MOL    C1838976   3.887   2.267   5.889 -0.1348 -0.3706 -0.6633
  130MOL    C1938977   3.855   2.394   5.970  0.2916  0.1758 -0.1633
  130MOL    C2038978   3.792   2.261   5.763  0.7672 -0.0722  0.4778
  130MOL    O2138979   3.714   2.349   5.731 -0.3945  0.1684 -0.1459
  130MOL    O2238980   3.811   2.149   5.686 -0.1244  0.0582 -0.8503
  130MOL    C2338981   3.743   2.127   5.570 -0.0973 -0.6590 -0.3819
  130MOL    H2438982   4.105   2.293   5.912  0.9657 -2.4182  0.4771
  130MOL    H2538983   4.053   2.190   5.772 -2.4002 -0.5198 -0.6177
  130MOL    H2638984   3.833   2.475   5.900  0.6918  0.3138 -0.1332
  130MOL    H2738985   3.774   2.381   6.041 -1.0619  1.8656 -1.3520
  130MOL    H2838986   3.941   2.435   6.023  0.8119 -0.0232 -0.8368
  130MOL    H2938987   3.766   2.042   5.507 -2.0797  0.3678 -2.5305
  130MOL    H3038988   3.772   2.210   5.505 -1.1521  0.6000  0.7256
  130MOL    H3138989   3.636   2.141   5.579 -0.3341 -1.7402 -1.4884
  130MOL    C3238990   3.867   2.142   5.978 -0.0159 -0.3846  0.6819
  130MOL    C3338991   3.977   2.077   6.078 -0.5036 -0.0437  0.3123
  130MOL    C3438992   4.093   2.014   6.002  0.7555 -0.9965 -0.1384
  130MOL    C3538993   4.038   2.191   6.171  1.1385  0.1877 -0.0431
  130MOL    O3638994   4.154   2.191   6.200 -0.3732 -0.4415  0.2866
  130MOL    O3738995   3.950   2.270   6.226 -0.6963  0.1961  0.0963
  130MOL    C3838996   3.997   2.380   6.299 -0.0752 -0.1120 -0.3258
  130MOL    H3938997   3.851   2.058   5.911  1.6022 -2.1432  2.4510
  130MOL    H4038998   3.770   2.152   6.028 -0.8053  0.9269 -1.0610
  130MOL    H4138999   4.044   1.958   5.922 -0.2218 -0.0817 -0.1935
  130MOL    H4239000   4.152   2.085   5.945  1.5903 -0.3357  1.5359
  130MOL    H4339001   4.163   1.950   6.055  0.6291 -2.2426 -1.4522
  130MOL    H4439002   4.080   2.433   6.252 -0.3227 -0.9738 -1.7600
  130MOL    H4539003   4.027   2.351   6.400 -1.1981  0.4637  0.1780
  130MOL    H4639004   3.918   2.455   6.305 -0.7157 -0.7893 -0.2753
  130MOL    C4739005   3.919   1.973   6.182 -0.9251  0.0064 -0.0394
  130MOL    C4839006   3.884   1.821   6.142  0.6007  0.4226  0.3085
  130MOL    C4939007   3.793   1.806   6.018  0.5919 -0.0163  0.3923
  130MOL    C5039008   4.009   1.732   6.123  0.4015  0.3746 -0.6165
  130MOL    O5139009   4.027   1.668   6.018  0.2856 -0.0912 -0.2751
  130MOL    O5239010   4.098   1.730   6.229  0.0198  0.1251 -0.4456
  130MOL    C5339011   4.228   1.690   6.204  0.4082 -0.1294  0.1387
  130MOL    H5439012   3.825   2.012   6.221 -0.8943 -2.7686  2.9934
  130MOL    H5539013   3.982   1.973   6.271 -0.3595  0.7315 -0.4308
  130MOL    H5639014   3.707   1.872   6.008 -0.2712 -1.2435 -0.2950
  130MOL    H5739015   3.851   1.831   5.929  1.9293  1.1094  1.5386
  130MOL    H5839016   3.771   1.705   5.984  2.3253  0.4983 -2.4053
  130MOL    H5939017   4.288   1.731   6.285 -0.6596  1.9756 -0.0987
  130MOL    H6039018   4.262   1.741   6.113  0.6491 -2.7250 -1.2696
  130MOL    H6139019   4.219   1.582   6.199  1.8833 -0.2567  0.0774
  130MOL    C6239020   3.806   1.763   6.266 -0.2192 -0.1375 -0.2943
  130MOL    C6339021   3.721   1.628   6.267 -0.5775  0.1756  0.6055
  130MOL    C6439022   3.788   1.509   6.183  0.4129 -0.2265 -0.1690
  130MOL    C6539023   3.713   1.578   6.414 -0.0033 -0.0116  0.4187
  130MOL    O6639024   3.773   1.479   6.455  0.8550 -0.6101 -0.8483
  130MOL    O6739025   3.650   1.655   6.500 -0.1352 -0.1092  0.1527
  130MOL    C6839026   3.644   1.614   6.635 -0.6529  0.3388  0.0817
  130MOL    H6939027   3.741   1.841   6.303  1.9070  1.6398 -0.1938
  130MOL    H7039028   3.875   1.746   6.349 -0.6517 -0.2755  0.0367
  130MOL    H7139029   3.746   1.413   6.213 -0.7444  0.5065  0.6058
  130MOL    H7239030   3.768   1.527   6.077 -0.1070  1.5598  0.2093
  130MOL    H7339031   3.896   1.504   6.189  0.4827 -2.2754 -2.3275
  130MOL    H7439032   3.739   1.608   6.688  0.3806  1.0118 -1.6454
  130MOL    H7539033   3.599   1.516   6.646 -1.4341  0.6578 -0.2829
  130MOL    H7639034   3.578   1.673   6.698  0.0235  0.8735  0.3044
  130MOL    C7739035   3.573   1.669   6.223  0.2347 -0.0199  0.0083
  130MOL    C7839036   3.457   1.571   6.196  0.7667  0.0217 -0.0875
  130MOL    C7939037   3.462   1.440   6.277 -0.0125 -0.3462 -0.4474
  130MOL    C8039038   3.319   1.639   6.237  0.6490  0.6182 -1.0787
  130MOL    O8139039   3.309   1.762   6.224 -0.2013  0.0275  0.1800
  130MOL    O8239040   3.222   1.560   6.286 -0.5498  0.3129  0.0653
  130MOL    C8339041   3.116   1.627   6.355 -0.0299  0.8924  0.5381
  130MOL    H8439042   3.579   1.745   6.145  1.8124 -0.4388 -0.2986
  130MOL    H8539043   3.537   1.735   6.303  2.0932  0.9806  0.0618
  130MOL    H8639044   3.450   1.453   6.385  0.0770 -0.7048 -0.3922
  130MOL    H8739045   3.390   1.362   6.252 -1.0513  0.7232 -0.8315
  130MOL    H8839046   3.550   1.375   6.273  1.3607  1.4574 -0.0843
  130MOL    H8939047   3.060   1.691   6.287  2.1462 -0.1238 -2.3397
  130MOL    H9039048   3.159   1.701   6.423  0.8638  0.7091  0.1861
  130MOL    H9139049   3.064   1.551   6.412  0.8544  1.2865  1.9073
  130MOL    C9239050   3.456   1.521   6.049  0.0340 -0.6889 -0.0493
  130MOL    C9339051   3.368   1.573   5.933 -0.0971 -0.0691 -0.0915
  130MOL    C9439052   3.218   1.527   5.958 -0.7831  0.1777  0.3114
  130MOL    C9539053   3.390   1.730   5.916 -0.7490  0.5713  0.7733
  130MOL    O9639054   3.498   1.783   5.912 -0.1927 -0.0493  0.5928
  130MOL    O9739055   3.279   1.788   5.906  0.1066 -0.4210 -0.1520
  130MOL    C9839056   3.276   1.926   5.871 -0.0537  0.0681 -0.0244
  130MOL    H9939057   3.432   1.415   6.046 -1.4304 -0.3476 -1.6669
  130MOL   H10039058   3.556   1.532   6.007  1.0683 -1.8360  2.0526
  130MOL   H10139059   3.197   1.430   6.003 -1.4259  0.8488  1.4915
  130MOL   H10239060   3.161   1.601   6.014 -0.6451  0.9070 -0.4887
  130MOL   H10339061   3.171   1.520   5.859  0.4500 -2.0264 -0.1556
  130MOL   H10439062   3.318   1.941   5.771 -0.2473  0.7831 -0.0075
  130MOL   H10539063   3.332   1.977   5.949  0.3725 -0.9465  0.3318
  130MOL   H10639064   3.172   1.954   5.889 -0.4620  0.2882 -2.5352
  130MOL   C10739065   3.415   1.492   5.801 -0.4831  0.8107  0.9721
  130MOL   C10839066   3.400   1.535   5.647  0.0168  0.0991 -0.3371
  130MOL   C10939067   3.252   1.551   5.601 -0.3576  0.2189  0.3719
  130MOL   C11039068   3.477   1.671   5.627  0.3517 -0.2226  0.0659
  130MOL   O11139069   3.419   1.769   5.576  0.3099 -0.3161  0.2085
  130MOL   O11239070   3.606   1.668   5.663  0.2672 -0.2915  0.3673
  130MOL   C11339071   3.687   1.785   5.646 -0.3192 -0.2868  0.1087
  130MOL   H11439072   3.376   1.391   5.805  3.4503 -0.8013  1.2329
  130MOL   H11539073   3.523   1.491   5.814 -0.1119  1.3013 -1.7101
  130MOL   H11639074   3.255   1.541   5.493 -0.3422 -0.2636  0.4159
  130MOL   H11739075   3.181   1.469   5.614 -2.1023  1.5933 -0.2790
  130MOL   H11839076   3.214   1.651   5.620  0.2204  0.9720 -2.2843
  130MOL   H11939077   3.743   1.771   5.554  0.3814 -1.2964  0.6759
  130MOL   H12039078   3.762   1.788   5.725 -1.0254 -0.0683  0.7753
  130MOL   H12139079   3.631   1.878   5.655 -0.5964 -0.4803  0.4076
  130MOL   C12239080   3.477   1.417   5.570  0.6728  0.4308 -0.6573
  130MOL   C12339081   3.484   1.386   5.418 -0.4583  0.3620  0.1594
  130MOL   C12439082   3.355   1.310   5.380  0.4110  0.6752 -0.3688
  130MOL   C12539083   3.483   1.521   5.338  0.0907  0.0424 -0.0163
  130MOL   O12639084   3.399   1.564   5.256 -0.2819  0.0355 -0.7491
  130MOL   O12739085   3.601   1.573   5.362  0.4204 -0.2505 -0.3532
  130MOL   C12839086   3.639   1.708   5.324  0.1129  0.0657  0.1231
  130MOL   H12939087   3.461   1.323   5.623  2.9770 -0.4399 -1.4348
  130MOL   H13039088   3.582   1.439   5.593  0.3611  0.8440  0.3800
  130MOL   H13139089   3.261   1.361   5.399 -0.9916 -2.1142  0.4836
  130MOL   H13239090   3.344   1.285   5.274 -1.1844 -0.7013  0.0943
  130MOL   H13339091   3.345   1.218   5.437  1.7414 -0.6656 -2.2356
  130MOL   H13439092   3.745   1.725   5.343 -0.0338  0.0910  0.9105
  130MOL   H13539093   3.593   1.785   5.385  3.1319  2.6240 -0.7353
  130MOL   H13639094   3.634   1.721   5.216  1.9742  0.3814  0.0572
  130MOL   C13739095   3.611   1.291   5.393  0.8079  0.2493  0.1678
  130MOL   C13839096   3.620   1.201   5.266 -0.1861  0.3449 -0.8127
  130MOL   C13939097   3.547   1.065   5.286  0.2202 -0.4551  0.4245
  130MOL   C14039098   3.567   1.271   5.133 -0.6076  0.0100 -0.0307
  130MOL   O14139099   3.480   1.223   5.063  0.2371  0.1885 -0.6088
  130MOL   O14239100   3.631   1.387   5.108  0.2230  0.4642  0.2507
  130MOL   C14339101   3.583   1.468   5.007  0.2399 -0.7137 -0.0321
  130MOL   H14439102   3.612   1.226   5.481 -1.3491 -0.0704 -0.0270
  130MOL   H14539103   3.703   1.349   5.390 -0.9583  3.0964 -0.5642
  130MOL   H14639104   3.563   1.015   5.191  0.7718 -1.3842  0.9878
  130MOL   H14739105   3.583   1.007   5.371  1.6548 -0.5940 -0.2713
  130MOL   H14839106   3.441   1.085   5.299  0.7309  3.8137 -1.1136
  130MOL   H14939107   3.477   1.445   4.990  0.6672 -1.9182 -1.1023
  130MOL   H15039108   3.646   1.449   4.920 -0.3765 -2.4184 -0.1277
  130MOL   H15139109   3.587   1.575   5.030 -0.6659 -0.9823  1.4394
  130MOL   C15239110   3.773   1.162   5.239  0.0616 -0.0973 -0.0772
  130MOL   C15339111   3.876   1.083   5.330 -0.0083  0.5660 -0.7811
  130MOL   C15439112   3.894   1.165   5.460 -0.2554 -0.2463 -0.1522
  130MOL   C15539113   3.829   0.939   5.364 -1.1309  0.7594  0.5607
  130MOL   O15639114   3.829   0.891   5.477  0.0633 -0.0429  0.1509
  130MOL   O15739115   3.793   0.872   5.251  0.1560  0.5698 -0.4031
  130MOL   C15839116   3.755   0.738   5.269  0.2903 -0.3079 -0.0025
  130MOL   H15939117   3.821   1.257   5.217  0.1917  0.1974  1.4292
  130MOL   H16039118   3.763   1.106   5.146 -0.6712  0.1109 -0.1335
  130MOL   H16139119   3.803   1.155   5.519 -2.5256 -1.1597 -3.7237
  130MOL   H16239120   3.974   1.119   5.518  1.0486 -1.1921 -2.6260
  130MOL   H16339121   3.913   1.270   5.438 -0.9459 -0.5655 -2.3402
  130MOL   H16439122   3.679   0.735   5.347  0.5297 -2.6980  0.1753
  130MOL   H16539123   3.841   0.680   5.301  0.4582  0.0736  0.2423
  130MOL   H16639124   3.724   0.694   5.174  1.6698  0.5886 -0.8886
  130MOL   C16739125   4.014   1.083   5.252  0.1320 -0.4553 -0.1515
  130MOL   C16839126   4.144   0.997   5.286  0.3235  0.0675  0.3612
  130MOL   C16939127   4.192   1.026   5.433  0.7530  0.2327  0.3529
  130MOL   C17039128   4.114   0.845   5.268 -0.4748 -0.0798 -0.4721
  130MOL   O17139129   4.149   0.768   5.353 -0.0842  0.0817 -0.0403
  130MOL   O17239130   4.059   0.805   5.149  0.3583 -0.3169 -0.2732
  130MOL   C17339131   4.044   0.672   5.108  0.2933  0.3973  0.1575
  130MOL   H17439132   4.052   1.184   5.267  2.3068 -0.9664 -1.9727
  130MOL   H17539133   4.002   1.075   5.144  1.1096 -1.4456 -0.2056
  130MOL   H17639134   4.290   0.979   5.444  0.8225  0.5265  1.0177
  130MOL   H17739135   4.209   1.132   5.447 -0.6147  0.4238  0.6596
  130MOL   H17839136   4.125   0.978   5.505  0.0692 -0.9537 -1.0472
  130MOL   H17939137   4.139   0.620   5.098  0.9780  1.5306  0.6576
  130MOL   H18039138   3.989   0.682   5.015  0.0561 -3.5401 -0.2265
  130MOL   H18139139   3.981   0.614   5.176 -0.5916 -1.0179 -1.8279
  130MOL   C18239140   4.260   1.057   5.192 -0.0782 -0.0475 -0.9596
  130MOL   C18339141   4.332   0.986   5.068  0.1268 -0.5133  0.2670
  130MOL   C18439142   4.389   0.843   5.106 -0.3284 -0.2142  0.4174
  130MOL   C18539143   4.234   0.969   4.951 -0.7105  0.1237  0.8438
  130MOL   O18639144   4.124   1.026   4.939 -0.3375 -0.2624 -0.3905
  130MOL   O18739145   4.280   0.888   4.865  0.0322  0.0755  0.6519
  130MOL   C18839146   4.209   0.861   4.737  0.0217 -0.2212 -0.0586
  130MOL   H18939147   4.335   1.098   5.260 -0.9859  0.9674 -0.5503
  130MOL   H19039148   4.218   1.148   5.150 -1.6220 -0.3206 -0.0355
  130MOL   H19139149   4.453   0.807   5.026 -1.2950 -0.3856 -0.2916
  130MOL   H19239150   4.454   0.860   5.192 -0.7942  1.0479  0.5460
  130MOL   H19339151   4.325   0.759   5.133  0.9747 -0.7709  1.8454
  130MOL   H19439152   4.189   0.958   4.693 -0.3544  0.5718  1.8341
  130MOL   H19539153   4.116   0.810   4.764 -0.0237  0.9004  2.0407
  130MOL   H19639154   4.272   0.803   4.670 -1.0338 -0.4555 -0.8639
  130MOL   C19739155   4.463   1.058   5.021  0.2374  0.0604  0.1212
  130MOL   C19839156   4.484   1.204   4.968  0.5207  0.9059 -0.5467
  130MOL   C19939157   4.395   1.235   4.846 -0.0987 -0.1664 -1.1139
  130MOL   C20039158   4.446   1.310   5.072  0.2032 -0.0568  0.1149
  130MOL   O20139159   4.403   1.419   5.040 -0.1134  0.2904  0.4309
  130MOL   O20239160   4.486   1.272   5.198  1.0792 -0.0927 -0.2704
  130MOL   C20339161   4.451   1.364   5.303 -0.5118 -0.2904  0.0670
  130MOL   H20439162   4.504   1.002   4.937 -0.1182 -0.1344  0.0736
  130MOL   H20539163   4.519   1.044   5.114  0.0398 -0.1550  0.2105
  130MOL   H20639164   4.389   1.150   4.779 -0.4229 -0.2047 -1.0390
  130MOL   H20739165   4.293   1.268   4.869 -0.0290  0.0028 -1.0449
  130MOL   H20839166   4.436   1.317   4.788 -2.2914  1.7766 -0.0000
  130MOL   H20939167   4.485   1.332   5.402  1.5452  1.5914  0.0079
  130MOL   H21039168   4.343   1.381   5.301 -0.9128 -2.2768  2.0575
  130MOL   H21139169   4.495   1.463   5.294 -0.5352 -0.2805  0.0625
  130MOL   C21239170   4.632   1.223   4.917 -0.1194  0.2312 -0.6661
  130MOL   C21339171   4.767   1.216   4.995  0.1507 -0.3092 -0.0544
  130MOL   C21439172   4.762   1.292   5.129 -0.1315 -0.2339 -0.0501
  130MOL   C21539173   4.797   1.068   5.030  0.1930  0.8466 -0.8414
  130MOL   O21639174   4.811   1.025   5.149  0.2531 -0.3512 -0.0031
  130MOL   O21739175   4.801   0.994   4.921 -0.1321  0.4697  0.3443
  130MOL   C21839176   4.816   0.847   4.923  0.1126 -0.3823 -0.7022
  130MOL   H21939177   4.633   1.315   4.858 -0.0954  0.7327  0.1190
  130MOL   H22039178   4.644   1.146   4.840 -1.2556  0.0219 -0.6402
  130MOL   H22139179   4.723   1.230   5.209  0.9998 -1.4342 -0.4223
  130MOL   H22239180   4.857   1.334   5.162 -0.7286 -0.1881  1.6467
  130MOL   H22339181   4.708   1.387   5.124 -0.0129 -0.1831 -0.3640
  130MOL   H22439182   4.895   0.819   4.994 -0.2745  0.7014  0.1711
  130MOL   H22539183   4.850   0.809   4.827  0.6448  0.5538 -0.8828
  130MOL   H22639184   4.721   0.799   4.947  1.0472 -1.6115  0.6656
  130MOL   C22739185   4.872   1.294   4.903  0.3205  0.2510 -0.7911
  130MOL   C22839186   5.028   1.263   4.911  0.1880  0.0561  0.3557
  130MOL   C22939187   5.084   1.270   5.058 -0.2412  0.0111  0.4073
  130MOL   C23039188   5.066   1.122   4.850  0.0212 -0.4880 -0.0313
  130MOL   O23139189   5.131   1.033   4.908  0.3783  0.0477  0.0578
  130MOL   O23239190   4.999   1.104   4.743  0.0772  0.0324  0.3850
  130MOL   C23339191   5.037   0.996   4.656  0.2629  0.5737  0.1580
  130MOL   H23439192   4.857   1.397   4.935  0.1094  0.2064 -0.7422
  130MOL   H23539193   4.851   1.304   4.797 -1.5656  0.6361 -0.4112
  130MOL   H23639194   5.036   1.199   5.125  0.1612 -0.8916 -0.2406
  130MOL   H23739195   5.186   1.233   5.054  0.4225  1.9156 -1.2565
  130MOL   H23839196   5.078   1.370   5.100 -0.0965  0.0100  0.4319
  130MOL   H23939197   4.990   0.999   4.558  0.6499 -1.0341 -0.0792
  130MOL   H24039198   5.017   0.903   4.709  0.0149 -0.1778 -1.2464
  130MOL   H24139199   5.144   1.012   4.646  0.3646 -0.2068 -0.0021
  130MOL   C24239200   5.080   1.388   4.830 -0.1764 -0.4493 -0.7504
  130MOL   C24339201   5.214   1.408   4.761 -0.3239 -0.8682  0.3984
  130MOL   C24439202   5.325   1.341   4.837  0.8455 -0.0760 -0.8528
  130MOL   C24539203   5.212   1.352   4.617 -0.2802  0.2762 -0.5080
  130MOL   O24639204   5.105   1.308   4.573 -0.7006  0.0005 -0.0345
  130MOL   O24739205   5.332   1.382   4.550 -0.5334 -0.4768  0.0345
  130MOL   C24839206   5.350   1.355   4.411 -0.0985  0.4039  0.0748
  130MOL   H24939207   5.076   1.472   4.899  3.0019 -1.4512  0.7570
  130MOL   H25039208   5.007   1.408   4.752 -2.2778 -0.3501  1.1772
  130MOL   H25139209   5.415   1.379   4.790  2.1915 -3.9455 -1.6099
  130MOL   H25239210   5.342   1.370   4.941  0.6542 -2.0244 -0.2521
  130MOL   H25339211   5.335   1.232   4.842 -0.0983 -0.1299  0.3818
  130MOL   H25439212   5.262   1.397   4.361  0.1672  0.7661 -0.0871
  130MOL   H25539213   5.356   1.250   4.386 -1.5309  0.2408  0.3711
  130MOL   H25639214   5.438   1.399   4.365 -0.7938  2.1770  0.3565
  130MOL   C25739215   5.257   1.568   4.754  0.6886 -0.1295  0.4894
  130MOL   C25839216   5.165   1.678   4.677  0.6009  0.3046  0.0824
  130MOL   C25939217   5.258   1.799   4.676  0.0256 -0.5995 -0.0485
  130MOL   C26039218   5.142   1.643   4.531 -0.3820  1.0987 -0.7988
  130MOL   O26139219   5.218   1.674   4.440 -0.0505 -0.4495  0.3765
  130MOL   O26239220   5.041   1.575   4.511  0.0592  0.0314 -0.5026
  130MOL   C26339221   5.004   1.533   4.381 -0.1312  0.0730  0.3101
  130MOL   H26439222   5.361   1.579   4.724  0.2446  0.9247 -0.6782
  130MOL   H26539223   5.274   1.593   4.859  0.7378 -0.1360  0.4829
  130MOL   H26639224   5.360   1.773   4.646 -0.1175 -1.6981  0.4129
  130MOL   H26739225   5.233   1.874   4.600 -3.5547 -1.0065  0.6575
  130MOL   H26839226   5.264   1.851   4.771 -0.6115  0.7202 -0.7228
  130MOL   H26939227   5.085   1.478   4.334 -0.7114  0.9718 -1.8293
  130MOL   H27039228   4.971   1.621   4.325 -0.0492  1.1440  1.8991
  130MOL   H27139229   4.911   1.478   4.387 -1.2812  1.8966 -0.2305
  130MOL   C27239230   5.030   1.713   4.753 -0.1886 -0.0467  0.1264
  130MOL   C27339231   4.942   1.838   4.738 -0.3617 -0.1849 -0.1724
  130MOL   C27439232   4.819   1.827   4.835  0.5578  0.3278 -0.1457
  130MOL   C27539233   5.036   1.958   4.774  0.2666  0.3146 -0.5627
  130MOL   O27639234   5.054   2.053   4.697  0.0632  0.4042  0.4894
  130MOL   O27739235   5.094   1.951   4.898  0.0188 -0.5229  0.5449
  130MOL   C27839236   5.184   2.052   4.945  0.5374  0.1622 -0.8926
  130MOL   H27939237   5.056   1.706   4.858 -2.3761 -1.4125  0.5963
  130MOL   H28039238   4.954   1.635   4.743 -0.6275  0.5847 -1.7332
  130MOL   H28139239   4.767   1.920   4.860  0.8193 -0.3097  2.8888
  130MOL   H28239240   4.754   1.755   4.785  0.4636 -0.4649  1.1030
  130MOL   H28339241   4.855   1.788   4.930 -0.8099  1.0762  0.7039
  130MOL   H28439242   5.277   2.042   4.889  1.9096 -2.3967  1.7221
  130MOL   H28539243   5.214   2.047   5.050  0.3882 -2.7472 -0.9585
  130MOL   H28639244   5.142   2.151   4.927 -0.6841 -0.6709 -2.7627
  130MOL   C28739245   4.893   1.859   4.590 -0.1318  1.0199  1.0381
  130MOL   C28839246   4.791   1.973   4.572 -0.1641  0.4124 -1.2741
  130MOL   C28939247   4.809   2.039   4.430 -0.7118  0.3628 -0.3808
  130MOL   C29039248   4.641   1.940   4.593 -0.7564  0.4118  0.0582
  130MOL   O29139249   4.591   1.825   4.589 -0.1949 -0.1057 -0.2074
  130MOL   O29239250   4.579   2.055   4.616 -0.1367  0.2546  0.4596
  130MOL   C29339251   4.442   2.039   4.648  0.2900  0.7369 -0.8540
  130MOL   H29439252   4.852   1.761   4.563  1.3814  1.3598 -2.6851
  130MOL   H29539253   4.973   1.887   4.523 -0.4378 -2.1308 -0.7429
  130MOL   H29639254   4.770   1.966   4.359 -1.0794  1.0950 -0.9273
  130MOL   H29739255   4.742   2.125   4.431  0.0636  0.9843 -1.2000
  130MOL   H29839256   4.910   2.070   4.404 -1.8189  3.5526 -1.1110
  130MOL   H29939257   4.430   1.956   4.718 -1.4144  2.7605  1.3364
  130MOL   H30039258   4.389   2.018   4.555  0.4692  0.4414 -0.8889
  130MOL   H30139259   4.405   2.131   4.694 -2.0224 -0.7871  0.4484
  130MOL   H30239260   4.810   2.048   4.649 -1.7439 -1.1573  0.6841
  131MOL     C139261   6.538   1.109   3.209  0.2588  0.2671  0.1591
  131MOL     C239262   6.396   1.167   3.207 -0.3443  0.2667 -0.1300
  131MOL     C339263   6.327   1.141   3.070  0.1134 -0.1893 -0.5649
  131MOL     C439264   6.315   1.095   3.316 -0.1742 -0.2621 -0.4663
  131MOL     O539265   6.369   1.011   3.385  0.2062 -0.6972  0.3427
  131MOL     O639266   6.183   1.116   3.312  0.2264 -0.7673 -0.0151
  131MOL     C739267   6.105   1.038   3.404  0.2637 -1.1367 -0.3371
  131MOL     H839268   6.534   1.000   3.215 -0.8736  0.2317 -0.9723
  131MOL     H939269   6.600   1.130   3.122  2.4935 -1.4873  1.2660
  131MOL    H1039270   6.242   1.205   3.046 -0.4022 -0.2610  0.9951
  131MOL    H1139271   6.402   1.147   2.991  1.2479 -2.6279  0.2655
  131MOL    H1239272   6.289   1.039   3.062 -0.2352 -0.1486  0.5374
  131MOL    H1339273   6.131   0.933   3.385  0.6170 -1.0689 -0.2283
  131MOL    H1439274   5.998   1.053   3.406 -0.1037 -3.0376 -2.8400
  131MOL    H1539275   6.137   1.056   3.506 -1.9181 -0.7815  0.2955
  131MOL    H1639276   6.590   1.137   3.301  0.6634  0.0636 -0.0071
  131MOL    C1739277   6.385   1.323   3.245 -0.6434  0.6478  0.9089
  131MOL    C1839278   6.456   1.388   3.373  0.3344  0.6258 -0.1556
  131MOL    C1939279   6.420   1.310   3.498  0.5907  0.7006 -0.0715
  131MOL    C2039280   6.612   1.384   3.356  0.1917  0.7040 -0.2695
  131MOL    O2139281   6.682   1.335   3.449 -0.7193 -0.3774  0.1167
  131MOL    O2239282   6.658   1.436   3.249 -0.5561 -0.7185 -0.0895
  131MOL    C2339283   6.799   1.454   3.222 -0.1060 -0.2052  0.4771
  131MOL    H2439284   6.281   1.353   3.233 -1.1066 -0.5386  1.8829
  131MOL    H2539285   6.429   1.357   3.151  1.8367 -0.5005  1.5999
  131MOL    H2639286   6.313   1.300   3.516  1.0172 -1.9099  1.1804
  131MOL    H2739287   6.476   1.217   3.497 -2.4946 -1.2182  0.0904
  131MOL    H2839288   6.443   1.371   3.585 -0.5940 -2.0167  2.2175
  131MOL    H2939289   6.834   1.371   3.162 -0.2289 -0.3596  0.6170
  131MOL    H3039290   6.863   1.462   3.310  2.0382 -0.0058 -1.0636
  131MOL    H3139291   6.812   1.550   3.171 -0.3550  1.0321  2.6425
  131MOL    C3239292   6.393   1.535   3.376 -0.4175 -0.1093  0.4858
  131MOL    C3339293   6.453   1.665   3.437 -0.1989  0.3418 -0.5623
  131MOL    C3439294   6.487   1.627   3.589 -0.0639 -0.2847 -0.2255
  131MOL    C3539295   6.582   1.701   3.358  0.1124  0.3536 -0.0168
  131MOL    O3639296   6.575   1.729   3.235 -0.5270 -0.2336  0.0204
  131MOL    O3739297   6.695   1.707   3.436 -0.0352  0.6954  0.4405
  131MOL    C3839298   6.809   1.758   3.367 -0.6745  0.2426 -0.0674
  131MOL    H3939299   6.288   1.525   3.403 -0.3915  0.7846  0.9573
  131MOL    H4039300   6.369   1.563   3.274 -0.0928  0.4467  0.5610
  131MOL    H4139301   6.561   1.548   3.593  0.8851  0.6236  0.2375
  131MOL    H4239302   6.535   1.712   3.637 -2.4527  2.0109 -1.7440
  131MOL    H4339303   6.400   1.596   3.647  0.2453  0.7429  0.8198
  131MOL    H4439304   6.812   1.867   3.367 -0.3500  0.2334  0.0318
  131MOL    H4539305   6.821   1.726   3.264 -2.8385  0.4297 -0.4007
  131MOL    H4639306   6.894   1.710   3.416 -2.0838 -2.4255 -0.1677
  131MOL    C4739307   6.345   1.782   3.425 -0.3320 -0.2282 -0.1077
  131MOL    C4839308   6.368   1.941   3.443 -0.4447  0.4374  0.3417
  131MOL    C4939309   6.433   2.002   3.320  0.1568 -0.0236  0.6054
  131MOL    C5039310   6.223   2.003   3.460  0.4850 -0.3786  0.3987
  131MOL    O5139311   6.176   2.067   3.371  0.0133  0.0723 -0.0643
  131MOL    O5239312   6.157   1.964   3.570  0.6065  0.4678  0.6180
  131MOL    C5339313   6.022   1.996   3.580 -0.4114  0.1489  0.4949
  131MOL    H5439314   6.259   1.754   3.485 -1.6238 -0.3913 -1.9808
  131MOL    H5539315   6.278   1.765   3.340  1.7436  1.0136 -2.0655
  131MOL    H5639316   6.420   2.110   3.316 -0.2994 -0.1677 -2.6732
  131MOL    H5739317   6.539   1.981   3.309 -0.3397 -1.1859 -2.6083
  131MOL    H5839318   6.387   1.957   3.233  1.1403  0.1619 -0.0176
  131MOL    H5939319   5.975   1.951   3.667 -0.3541  2.4215  1.7140
  131MOL    H6039320   5.961   1.956   3.499  4.8834  1.1120 -4.3412
  131MOL    H6139321   6.001   2.102   3.586 -1.8773 -0.1483  0.7206
  131MOL    C6239322   6.458   1.960   3.571  1.1370  0.7803 -0.2690
  131MOL    C6339323   6.495   2.095   3.643  0.5961  0.2198  0.0902
  131MOL    C6439324   6.653   2.090   3.678 -0.2438 -0.1235 -0.0634
  131MOL    C6539325   6.477   2.221   3.559 -0.1940  0.2042  0.2233
  131MOL    O6639326   6.567   2.268   3.497 -0.3437  0.3160  0.5913
  131MOL    O6739327   6.353   2.273   3.562  0.0180  0.1788  0.0421
  131MOL    C6839328   6.315   2.364   3.468 -0.3461 -0.3909  0.2375
  131MOL    H6939329   6.554   1.913   3.548  1.3197  1.6242 -1.2383
  131MOL    H7039330   6.420   1.885   3.641  0.4597  0.0583 -1.3817
  131MOL    H7139331   6.668   2.179   3.739 -0.8401  0.4981 -0.8045
  131MOL    H7239332   6.690   2.002   3.730 -0.9780  0.8502  2.1531
  131MOL    H7339333   6.721   2.102   3.594 -0.3369  0.2088 -0.0909
  131MOL    H7439334   6.335   2.324   3.368  1.1250  0.3302  0.2155
  131MOL    H7539335   6.374   2.455   3.480 -1.9470  0.5724  0.8533
  131MOL    H7639336   6.214   2.402   3.482 -0.7066 -2.3786  3.5880
  131MOL    C7739337   6.401   2.117   3.774  0.0828 -0.0793  0.5463
  131MOL    C7839338   6.429   2.045   3.916  0.1744  0.0454 -0.2135
  131MOL    C7939339   6.454   1.890   3.887  0.3382  0.1474 -0.0962
  131MOL    C8039340   6.558   2.103   3.978  0.4026 -0.1702 -0.6369
  131MOL    O8139341   6.585   2.219   3.966 -0.3987  0.3070  0.1553
  131MOL    O8239342   6.624   2.006   4.056  0.0374  0.4295  0.1066
  131MOL    C8339343   6.758   2.036   4.101  0.1397  0.1678 -0.6360
  131MOL    H8439344   6.303   2.087   3.738 -0.1243  2.2102 -0.8313
  131MOL    H8539345   6.387   2.223   3.794 -0.7763 -0.0758 -0.0531
  131MOL    H8639346   6.357   1.851   3.855 -0.0642  0.0440  1.2085
  131MOL    H8739347   6.530   1.859   3.816  1.4905 -1.7018  1.8900
  131MOL    H8839348   6.486   1.819   3.964 -0.2429  0.1215  0.1293
  131MOL    H8939349   6.771   2.055   4.207 -0.0143  0.0789 -0.6015
  131MOL    H9039350   6.815   2.109   4.043  1.5907 -1.9934 -1.9760
  131MOL    H9139351   6.815   1.946   4.079 -0.2058 -0.5299  1.3192
  131MOL    C9239352   6.300   2.072   4.016 -0.7891 -0.0652  0.6838
  131MOL    C9339353   6.293   2.048   4.175 -0.2361  0.5512 -1.0808
  131MOL    C9439354   6.147   2.073   4.211  0.2248 -0.3914  0.4700
  131MOL    C9539355   6.311   1.896   4.198  0.7889 -0.1171 -0.2939
  131MOL    O9639356   6.228   1.802   4.173 -0.1715  0.6273 -0.3884
  131MOL    O9739357   6.432   1.875   4.249  0.1447  0.4151 -0.4188
  131MOL    C9839358   6.482   1.749   4.281 -0.2236  0.2920  0.3550
  131MOL    H9939359   6.211   2.037   3.964  1.4376 -1.1084 -2.6168
  131MOL   H10039360   6.282   2.180   4.008 -1.7801 -0.3567 -1.3629
  131MOL   H10139361   6.116   2.166   4.165  0.7608 -0.7788 -0.7011
  131MOL   H10239362   6.072   1.999   4.181  0.0235  0.1064 -0.2678
  131MOL   H10339363   6.142   2.080   4.320  0.6167  2.0092  0.3486
  131MOL   H10439364   6.590   1.746   4.295 -0.2772  2.0467  1.2057
  131MOL   H10539365   6.450   1.674   4.208 -1.0367  0.7047  0.2819
  131MOL   H10639366   6.434   1.695   4.363  2.8948  0.0606  2.1127
  131MOL   C10739367   6.387   2.149   4.247 -0.1115 -0.0694 -0.1522
  131MOL   C10839368   6.397   2.192   4.395 -0.2470  0.1571 -0.3599
  131MOL   C10939369   6.366   2.071   4.484  0.6026 -0.7184 -0.0906
  131MOL   C11039370   6.541   2.231   4.436 -0.3424  0.1812  1.2307
  131MOL   O11139371   6.632   2.228   4.352  0.5888  0.0422  0.2550
  131MOL   O11239372   6.557   2.260   4.568 -0.1137 -0.1113 -0.5219
  131MOL   C11339373   6.680   2.314   4.590  0.3367 -0.1236 -0.2572
  131MOL   H11439374   6.374   2.245   4.195 -1.2285  0.7154  1.5192
  131MOL   H11539375   6.486   2.111   4.225 -0.6074 -0.4989 -1.6445
  131MOL   H11639376   6.377   2.084   4.592 -3.1828  0.4358  0.2019
  131MOL   H11739377   6.263   2.038   4.478 -0.0872  1.3630 -0.1670
  131MOL   H11839378   6.426   1.983   4.459  0.6272 -0.8280  0.3413
  131MOL   H11939379   6.676   2.412   4.543 -0.1642  1.4222  2.9355
  131MOL   H12039380   6.768   2.257   4.559  0.9362  0.2237  0.7836
  131MOL   H12139381   6.689   2.336   4.696 -1.1394  2.0157 -0.5502
  131MOL   C12239382   6.285   2.293   4.443  0.3231  0.4583  0.0595
  131MOL   C12339383   6.265   2.441   4.390 -0.0131 -0.2560  0.3287
  131MOL   C12439384   6.406   2.501   4.354 -0.1393 -0.6394 -0.0753
  131MOL   C12539385   6.166   2.436   4.279 -0.7729 -0.3836 -0.6531
  131MOL   O12639386   6.064   2.374   4.290  0.1769 -0.5857  0.4411
  131MOL   O12739387   6.206   2.484   4.168 -0.4241 -0.7870 -0.0340
  131MOL   C12839388   6.131   2.493   4.051  0.1421  0.1948 -0.0015
  131MOL   H12939389   6.293   2.305   4.552  0.5431  4.4850 -0.3145
  131MOL   H13039390   6.185   2.252   4.442  1.2882 -1.9749  0.1824
  131MOL   H13139391   6.470   2.432   4.298  0.1292 -0.2680 -0.2315
  131MOL   H13239392   6.398   2.578   4.277  1.6766  2.0957  2.3447
  131MOL   H13339393   6.462   2.528   4.444  0.6084  0.5036 -0.8629
  131MOL   H13439394   6.033   2.538   4.064 -0.6075 -0.7059 -2.3145
  131MOL   H13539395   6.126   2.397   4.000  1.1439  1.1818 -2.0189
  131MOL   H13639396   6.186   2.553   3.979  1.4778  0.0094  0.8327
  131MOL   C13739397   6.210   2.525   4.511 -0.7191 -0.3060 -0.4318
  131MOL   C13839398   6.144   2.670   4.494  0.2008  0.5110 -0.1411
  131MOL   C13939399   6.230   2.761   4.407 -0.3277  0.1674 -0.8429
  131MOL   C14039400   6.005   2.651   4.432  0.1547 -0.0680  0.2568
  131MOL   O14139401   5.971   2.728   4.339  0.0923  0.0216  0.0179
  131MOL   O14239402   5.941   2.547   4.472 -0.0272  0.5528  0.1356
  131MOL   C14339403   5.813   2.520   4.418 -0.0764  0.0797  0.7854
  131MOL   H14439404   6.293   2.548   4.577  0.0485 -1.0442 -1.1233
  131MOL   H14539405   6.150   2.460   4.574  0.4117 -0.9864 -0.0423
  131MOL   H14639406   6.329   2.772   4.450 -0.4741 -2.1616  0.1558
  131MOL   H14739407   6.227   2.725   4.304  2.8440  0.0891 -0.9484
  131MOL   H14839408   6.187   2.859   4.387  1.8525  1.4221  0.4738
  131MOL   H14939409   5.760   2.492   4.509 -2.1082  0.9327 -0.0838
  131MOL   H15039410   5.829   2.433   4.354 -2.6614  0.0832  0.0492
  131MOL   H15139411   5.768   2.596   4.354 -0.7765  1.3713  2.7502
  131MOL   C15239412   6.125   2.722   4.638 -0.7547 -0.4507 -0.9181
  131MOL   C15339413   6.105   2.880   4.671  0.0140 -0.3507  0.0163
  131MOL   C15439414   6.226   2.970   4.633  0.0349 -0.0537  0.1519
  131MOL   C15539415   5.971   2.934   4.611  0.3719 -1.0292 -0.2816
  131MOL   O15639416   5.970   3.039   4.538 -0.4710  0.1671 -0.0616
  131MOL   O15739417   5.861   2.861   4.636 -0.5866  0.0324  0.0403
  131MOL   C15839418   5.747   2.884   4.549 -0.0596  1.2454 -0.0705
  131MOL   H15939419   6.214   2.693   4.693 -1.6517  2.1621  2.0555
  131MOL   H16039420   6.041   2.667   4.681 -0.6088  0.3496  0.3991
  131MOL   H16139421   6.320   2.915   4.636 -0.5507 -1.0104  1.6613
  131MOL   H16239422   6.214   3.016   4.535 -0.7852 -0.3675  0.1010
  131MOL   H16339423   6.231   3.054   4.702  0.7976 -0.9777  1.2417
  131MOL   H16439424   5.693   2.790   4.546  1.4130  0.4199 -0.9831
  131MOL   H16539425   5.771   2.931   4.453  1.8010  0.5748  0.0471
  131MOL   H16639426   5.675   2.954   4.592  2.4549  3.8480  0.0793
  131MOL   C16739427   6.075   2.893   4.827 -0.7380  0.4815  0.1923
  131MOL   C16839428   6.160   2.821   4.943  0.0257  0.5948 -0.5094
  131MOL   C16939429   6.110   2.680   4.959 -0.7303  0.3602  0.1576
  131MOL   C17039430   6.315   2.819   4.917  0.0445  0.8826  0.8532
  131MOL   O17139431   6.376   2.710   4.900  0.1726 -0.1667 -0.3180
  131MOL   O17239432   6.375   2.939   4.905  0.5011 -0.5422  0.0254
  131MOL   C17339433   6.513   2.947   4.876 -0.7000 -0.0963 -0.0362
  131MOL   H17439434   5.970   2.876   4.852 -0.8817 -0.0930 -0.7880
  131MOL   H17539435   6.086   3.000   4.843 -0.5165  1.0068 -3.0557
  131MOL   H17639436   6.126   2.610   4.877 -3.1996  1.3156 -1.1639
  131MOL   H17739437   6.159   2.627   5.041  0.6546  2.6662  0.8577
  131MOL   H17839438   6.003   2.691   4.977 -0.7048  0.6783  0.1108
  131MOL   H17939439   6.570   2.922   4.965  3.2770  0.7965 -2.1582
  131MOL   H18039440   6.532   3.050   4.846 -0.6589  0.2130  1.0443
  131MOL   H18139441   6.534   2.879   4.793 -0.6196 -1.7317  1.2989
  131MOL   C18239442   6.130   2.901   5.072  0.4639 -0.0329  0.5795
  131MOL   C18339443   6.159   2.853   5.222  0.6796  0.6773  0.0647
  131MOL   C18439444   6.039   2.763   5.266 -0.0709  0.0885 -0.3085
  131MOL   C18539445   6.289   2.770   5.236 -0.2754 -0.1967  0.5558
  131MOL   O18639446   6.292   2.652   5.280  1.0421  0.0707  0.4756
  131MOL   O18739447   6.399   2.832   5.198  0.2394  0.3087 -0.3267
  131MOL   C18839448   6.524   2.782   5.225  0.2271  0.1364  0.2286
  131MOL   H18939449   6.028   2.941   5.065  0.2968 -0.2484  1.6425
  131MOL   H19039450   6.193   2.989   5.066 -0.4847  0.7152  1.3268
  131MOL   H19139451   6.027   2.672   5.208 -1.1926 -0.3448  0.5866
  131MOL   H19239452   6.019   2.753   5.373  1.3381  0.6204  0.0082
  131MOL   H19339453   5.952   2.823   5.239  0.3319  0.6887 -0.2947
  131MOL   H19439454   6.537   2.738   5.324 -0.2381 -3.1438 -1.0783
  131MOL   H19539455   6.599   2.860   5.214 -1.0348  1.2025 -1.0522
  131MOL   H19639456   6.540   2.710   5.145  0.8963 -0.3195  0.7694
  131MOL   C19739457   6.178   2.992   5.299 -0.2430  0.3203 -0.2763
  131MOL   C19839458   6.165   3.006   5.453  0.1009 -0.7759  0.3877
  131MOL   C19939459   6.215   2.870   5.520  0.0559  1.0946  0.0824
  131MOL   C20039460   6.250   3.130   5.496 -0.5350 -0.9820  0.6762
  131MOL   O20139461   6.345   3.124   5.572  0.5552  0.2735  0.3657
  131MOL   O20239462   6.204   3.234   5.433 -0.3919 -0.1539 -0.5669
  131MOL   C20339463   6.260   3.356   5.464  0.5158 -0.1061 -0.1451
  131MOL   H20439464   6.111   3.062   5.249  1.6284  1.3498 -1.4084
  131MOL   H20539465   6.274   3.033   5.269  0.4076 -0.9534  0.0297
  131MOL   H20639466   6.226   2.906   5.623  1.1939  0.8537  0.0483
  131MOL   H20739467   6.153   2.780   5.511  1.4043  0.3017 -1.5427
  131MOL   H20839468   6.318   2.841   5.501  0.3953  0.6978  2.3246
  131MOL   H20939469   6.368   3.355   5.460  0.5837 -2.6497  1.2259
  131MOL   H21039470   6.238   3.399   5.562  1.3220  2.6889 -1.1408
  131MOL   H21139471   6.220   3.433   5.398  0.2804  0.9637  1.2147
  131MOL   C21239472   6.012   3.027   5.478 -0.3283 -0.3073  0.1008
  131MOL   C21339473   5.950   3.031   5.626  0.1646  0.2098  0.5735
  131MOL   C21439474   5.801   3.053   5.618 -0.2391 -0.1598 -0.0287
  131MOL   C21539475   5.958   2.884   5.685 -0.1017 -0.0848  0.3378
  131MOL   O21639476   6.028   2.857   5.780  0.4698 -0.2577  0.3221
  131MOL   O21739477   5.898   2.792   5.614 -0.3606  0.1655  0.1198
  131MOL   C21839478   5.906   2.651   5.651 -0.4424 -0.2197  0.4227
  131MOL   H21939479   5.954   2.951   5.426 -2.2613  0.0297  1.7179
  131MOL   H22039480   5.981   3.115   5.422  1.3854  0.9596  1.0890
  131MOL   H22139481   5.757   2.990   5.542 -0.6112  0.7589 -0.5790
  131MOL   H22239482   5.747   3.042   5.712  1.6583 -1.1044  0.9887
  131MOL   H22339483   5.787   3.155   5.582 -1.1800 -0.4793 -0.5540
  131MOL   H22439484   5.844   2.609   5.572  0.0667 -0.2750  0.0488
  131MOL   H22539485   5.860   2.634   5.748 -4.2056  0.5315 -1.1463
  131MOL   H22639486   6.007   2.609   5.653 -0.2930  0.0825 -0.6811
  131MOL   C22739487   6.024   3.142   5.715 -0.7289  0.4388 -0.2662
  131MOL   C22839488   5.963   3.204   5.854  0.1203 -0.2010  0.6193
  131MOL   C22939489   5.855   3.310   5.815 -0.1096  0.1392  0.3330
  131MOL   C23039490   5.899   3.104   5.945 -0.7871 -0.6303  0.7539
  131MOL   O23139491   5.781   3.103   5.963  0.1492 -0.3605  0.3161
  131MOL   O23239492   5.988   3.013   6.001 -0.3011  0.0714 -0.7211
  131MOL   C23339493   5.929   2.906   6.085  0.1951 -0.5381  0.7644
  131MOL   H23439494   6.028   3.222   5.641  0.7979 -1.9089 -2.8269
  131MOL   H23539495   6.126   3.108   5.732 -0.9537 -0.1494 -0.0837
  131MOL   H23639496   5.809   3.358   5.901  2.2957  2.5684  0.3544
  131MOL   H23739497   5.896   3.387   5.749 -1.2556 -0.8308 -1.5841
  131MOL   H23839498   5.771   3.256   5.771 -0.0359 -0.5504  1.0461
  131MOL   H23939499   5.856   2.850   6.027  0.8693 -1.5373  0.8701
  131MOL   H24039500   5.867   2.947   6.164 -0.3734  0.7173 -0.3186
  131MOL   H24139501   6.003   2.835   6.124 -0.7176 -2.4675 -0.9053
  131MOL   C24239502   6.084   3.288   5.927 -0.3134 -0.4517  0.6012
  131MOL   C24339503   6.085   3.339   6.078 -0.3487 -0.0022  0.0226
  131MOL   C24439504   5.949   3.395   6.124 -0.3655 -0.1658 -0.4279
  131MOL   C24539505   6.117   3.223   6.178 -0.3504  0.2796  0.5756
  131MOL   O24639506   6.059   3.209   6.287  0.3019  0.5657  0.0621
  131MOL   O24739507   6.208   3.138   6.139 -0.3106 -0.4553 -0.4034
  131MOL   C24839508   6.241   3.019   6.209  0.2196 -0.5393 -0.1423
  131MOL   H24939509   6.117   3.369   5.862 -2.9415 -0.5338 -0.9067
  131MOL   H25039510   6.169   3.222   5.914  0.2368  0.1549  1.0931
  131MOL   H25139511   5.872   3.319   6.115  2.1010 -2.4985 -2.8261
  131MOL   H25239512   5.967   3.424   6.228  0.4149 -0.9286 -0.3386
  131MOL   H25339513   5.911   3.488   6.083 -0.8117 -0.4109 -0.5667
  131MOL   H25439514   6.276   3.032   6.312  0.6340 -1.8371 -0.0982
  131MOL   H25539515   6.319   2.970   6.151  1.9669 -0.2005  1.8435
  131MOL   H25639516   6.165   2.942   6.220 -0.7359  0.7814  3.0623
  131MOL   C25739517   6.182   3.468   6.088 -0.2087 -0.1238 -0.2527
  131MOL   C25839518   6.339   3.472   6.116  0.1483  0.0283  0.6256
  131MOL   C25939519   6.384   3.402   6.245 -0.1506  0.4036 -0.3321
  131MOL   C26039520   6.408   3.391   6.003 -0.0799 -0.2092 -0.5401
  131MOL   O26139521   6.485   3.297   6.023  0.3869  0.4915  0.5160
  131MOL   O26239522   6.381   3.439   5.888 -0.1072  0.0152 -0.0538
  131MOL   C26339523   6.433   3.371   5.775  0.3722 -0.1178  0.1772
  131MOL   H26439524   6.141   3.517   6.176 -2.1602 -0.7437 -0.7874
  131MOL   H26539525   6.164   3.537   6.006 -1.0140 -1.1596 -0.9525
  131MOL   H26639526   6.372   3.294   6.254  0.0303  0.4615  0.6931
  131MOL   H26739527   6.491   3.411   6.266  0.2093  1.0639 -2.3387
  131MOL   H26839528   6.332   3.436   6.334  1.0423 -0.3812  0.6889
  131MOL   H26939529   6.525   3.315   5.792 -0.3964 -1.4319  0.0976
  131MOL   H27039530   6.437   3.443   5.694  3.4833  0.8694  1.1373
  131MOL   H27139531   6.361   3.295   5.743  2.0087 -1.7832  0.3062
  131MOL   C27239532   6.394   3.620   6.097 -0.0092 -0.7365 -0.3506
  131MOL   C27339533   6.397   3.724   6.212 -0.0939  0.2327 -0.5260
  131MOL   C27439534   6.257   3.744   6.271 -0.9930  0.1209  0.6370
  131MOL   C27539535   6.495   3.693   6.330 -0.2096  0.5054 -0.3264
  131MOL   O27639536   6.452   3.696   6.444 -0.2886  0.2661  0.0319
  131MOL   O27739537   6.620   3.664   6.292  0.2054  0.1918  0.0615
  131MOL   C27839538   6.715   3.625   6.387  0.3089  0.4014 -0.5188
  131MOL   H27939539   6.348   3.659   6.006  0.6037 -0.0098 -0.3504
  131MOL   H28039540   6.498   3.609   6.067 -0.2510 -0.8091 -1.1975
  131MOL   H28139541   6.233   3.659   6.336  2.1842 -0.3238  1.3071
  131MOL   H28239542   6.263   3.837   6.328 -2.4859  0.8740 -0.4036
  131MOL   H28339543   6.186   3.760   6.190  0.6233  2.6457 -0.3239
  131MOL   H28439544   6.816   3.635   6.347  0.1091 -0.0290 -1.1448
  131MOL   H28539545   6.690   3.520   6.402 -1.8439  1.1199  1.1690
  131MOL   H28639546   6.721   3.677   6.482  0.5760  0.0432 -0.3381
  131MOL   C28739547   6.444   3.863   6.150  0.4942 -0.3707  0.3566
  131MOL   C28839548   6.342   3.921   6.040 -0.5951 -0.1235  0.5039
  131MOL   C28939549   6.235   4.012   6.104 -0.2566 -0.3537  0.1128
  131MOL   C29039550   6.426   4.005   5.938 -0.5270  0.3658 -0.2123
  131MOL   O29139551   6.416   4.126   5.937 -0.3054 -0.3095  0.2524
  131MOL   O29239552   6.498   3.935   5.853 -0.3373  0.0262  0.3264
  131MOL   C29339553   6.596   3.993   5.768 -0.0861  0.1980 -0.5950
  131MOL   H29439554   6.542   3.848   6.105  0.2470 -0.9075 -0.0016
  131MOL   H29539555   6.451   3.939   6.228 -2.9815  0.4003 -0.0004
  131MOL   H29639556   6.187   3.984   6.197  1.9531  0.1175  1.4216
  131MOL   H29739557   6.277   4.111   6.120  0.9267 -0.7649 -0.3386
  131MOL   H29839558   6.148   4.028   6.039 -1.2076  0.7992  1.6445
  131MOL   H29939559   6.573   3.975   5.662  0.8368  1.1692 -0.9607
  131MOL   H30039560   6.694   3.950   5.785 -0.4132 -0.4938 -0.4187
  131MOL   H30139561   6.604   4.100   5.785  2.8271 -0.1995  0.6654
  131MOL   H30239562   6.298   3.840   5.982  0.6712 -0.4661  0.0033
  132MOL     C139563   2.347   6.123   0.210 -0.0793 -0.1698 -0.6340
  132MOL     C239564   2.472   6.154   0.302  0.1457  0.2262  0.6100
  132MOL     C339565   2.570   6.038   0.309 -0.1110 -0.0279 -0.2640
  132MOL     C439566   2.548   6.280   0.245  0.1557  0.1371 -0.5610
  132MOL     O539567   2.503   6.334   0.144 -0.5270 -0.0437  0.7616
  132MOL     O639568   2.660   6.315   0.309  0.8265 -0.1428  0.0306
  132MOL     C739569   2.721   6.439   0.275  0.0703 -0.5028  0.3196
  132MOL     H839570   2.384   6.094   0.112  1.1645  0.1898 -0.2842
  132MOL     H939571   2.299   6.031   0.243  1.6493 -1.1857 -0.8432
  132MOL    H1039572   2.642   6.046   0.390 -2.3372  0.3418  1.7293
  132MOL    H1139573   2.518   5.944   0.329 -0.7179  0.1095 -1.1750
  132MOL    H1239574   2.635   6.035   0.221  0.1885 -1.7278 -0.0145
  132MOL    H1339575   2.815   6.442   0.330  1.8739  1.2372 -2.7524
  132MOL    H1439576   2.647   6.514   0.303  0.9298  0.3689  0.2535
  132MOL    H1539577   2.733   6.448   0.167 -1.0471 -0.1541  0.2171
  132MOL    H1639578   2.272   6.201   0.202 -0.1624 -0.3332 -1.5471
  132MOL    C1739579   2.433   6.177   0.448 -0.3114 -0.1675  0.1206
  132MOL    C1839580   2.308   6.266   0.497  0.0682 -0.0832 -0.4201
  132MOL    C1939581   2.325   6.407   0.431  0.0346 -0.4923  0.8214
  132MOL    C2039582   2.174   6.200   0.450  0.6869 -0.5424  0.2164
  132MOL    O2139583   2.087   6.259   0.387 -0.4391 -0.8011 -0.6338
  132MOL    O2239584   2.155   6.079   0.492 -0.2251  0.7826 -0.0310
  132MOL    C2339585   2.038   6.007   0.460 -0.1948 -0.4518 -0.0987
  132MOL    H2439586   2.524   6.211   0.498 -0.9538  0.8468  0.6045
  132MOL    H2539587   2.414   6.082   0.498  0.0919  0.1275  0.8468
  132MOL    H2639588   2.329   6.407   0.322 -1.4095  1.5032  0.7290
  132MOL    H2739589   2.245   6.477   0.453 -0.9900 -1.2665 -0.4052
  132MOL    H2839590   2.424   6.448   0.456 -0.2726  1.3770 -0.9090
  132MOL    H2939591   2.030   5.983   0.353  1.1978 -1.3905 -0.0006
  132MOL    H3039592   1.940   6.047   0.486  0.6081  0.3085  1.7914
  132MOL    H3139593   2.043   5.913   0.514  0.2773 -0.4508 -0.1389
  132MOL    C3239594   2.312   6.260   0.655 -0.0990 -0.4099  0.2174
  132MOL    C3339595   2.258   6.369   0.745 -0.7581  0.3025  0.2618
  132MOL    C3439596   2.291   6.327   0.897 -0.1206 -0.4109  0.5880
  132MOL    C3539597   2.340   6.499   0.709  0.7903  0.4560 -0.7251
  132MOL    O3639598   2.290   6.603   0.670  0.1784 -0.0279 -0.7926
  132MOL    O3739599   2.477   6.483   0.713 -0.0779  0.3218 -0.5185
  132MOL    C3839600   2.561   6.589   0.681  0.4588 -0.1436 -0.3241
  132MOL    H3939601   2.417   6.238   0.673 -0.0415 -1.5649 -1.4784
  132MOL    H4039602   2.276   6.169   0.705 -0.1457 -1.0855 -1.0266
  132MOL    H4139603   2.248   6.395   0.971  0.2178 -2.0926  2.3650
  132MOL    H4239604   2.254   6.227   0.921 -0.4850  0.2209  2.7487
  132MOL    H4339605   2.399   6.330   0.911 -0.2024  1.9002  1.0112
  132MOL    H4439606   2.659   6.540   0.688  1.8094  2.5067  0.1105
  132MOL    H4539607   2.556   6.667   0.757 -1.0647 -0.0277 -0.5437
  132MOL    H4639608   2.551   6.637   0.584 -1.5323  1.3731  0.6059
  132MOL    C4739609   2.107   6.385   0.714 -0.0420 -0.8000 -0.2781
  132MOL    C4839610   1.997   6.447   0.817 -0.1020 -0.2371 -0.1744
  132MOL    C4939611   2.044   6.586   0.873 -0.1331 -0.0114  0.1448
  132MOL    C5039612   1.876   6.470   0.721 -0.2460  0.0267  0.1175
  132MOL    O5139613   1.808   6.577   0.714  0.0761 -0.2341 -0.7184
  132MOL    O5239614   1.841   6.358   0.650  0.4103  0.3188 -0.1719
  132MOL    C5339615   1.723   6.356   0.563 -0.8504 -0.1172 -0.0874
  132MOL    H5439616   2.073   6.285   0.687 -2.5452 -0.5973  1.8116
  132MOL    H5539617   2.109   6.445   0.623  0.7209 -1.3610 -0.6317
  132MOL    H5639618   2.129   6.573   0.940  0.8321 -1.3210 -1.2929
  132MOL    H5739619   2.082   6.648   0.792 -0.3277  2.3938  1.8338
  132MOL    H5839620   1.967   6.656   0.906 -0.4125 -0.1393 -0.2399
  132MOL    H5939621   1.742   6.394   0.463 -0.3644  1.3007  0.5414
  132MOL    H6039622   1.634   6.404   0.603 -0.2401  0.0311  1.1170
  132MOL    H6139623   1.691   6.254   0.541  0.0630 -0.4148 -0.0437
  132MOL    C6239624   1.972   6.337   0.928 -0.1596 -0.1810  0.4391
  132MOL    C6339625   1.886   6.360   1.058  0.3815  0.6003 -0.2365
  132MOL    C6439626   1.974   6.445   1.161 -0.6525 -0.1383 -0.7128
  132MOL    C6539627   1.752   6.431   1.025 -0.4442 -0.0138 -0.0379
  132MOL    O6639628   1.732   6.531   1.083 -0.3343 -0.0777 -0.0477
  132MOL    O6739629   1.672   6.370   0.935  0.2164  0.1905  0.1435
  132MOL    C6839630   1.557   6.443   0.898  0.6307 -0.6259 -0.7226
  132MOL    H6939631   2.061   6.294   0.973  0.4160  0.5665  0.0403
  132MOL    H7039632   1.913   6.263   0.874 -1.1507  0.6141  0.4031
  132MOL    H7139633   1.969   6.551   1.137 -3.3847 -0.3484 -1.1678
  132MOL    H7239634   1.944   6.437   1.265  0.7275 -0.6868 -0.3413
  132MOL    H7339635   2.080   6.417   1.164 -0.0168  2.0447 -1.5279
  132MOL    H7439636   1.498   6.472   0.984 -0.5965  0.4587 -1.9040
  132MOL    H7539637   1.477   6.387   0.850 -0.5303 -0.5668  1.1170
  132MOL    H7639638   1.572   6.534   0.840 -1.3212 -0.9089 -1.7100
  132MOL    C7739639   1.839   6.229   1.125  0.1623  0.6190  0.0150
  132MOL    C7839640   1.932   6.101   1.156  0.5338  0.1006 -0.2484
  132MOL    C7939641   1.832   6.003   1.226 -0.6081  0.0614  0.3504
  132MOL    C8039642   1.972   6.036   1.027 -0.7068 -0.6612 -0.3409
  132MOL    O8139643   2.088   6.030   0.989 -0.3342  0.0665  0.5274
  132MOL    O8239644   1.867   5.991   0.962  0.0393 -0.2302 -0.1777
  132MOL    C8339645   1.882   5.947   0.833  0.2771 -0.6064 -0.1773
  132MOL    H8439646   1.757   6.193   1.063  0.4272  1.1314 -0.6381
  132MOL    H8539647   1.802   6.256   1.225  2.6935 -0.6950  1.3489
  132MOL    H8639648   1.793   6.036   1.322  1.1733  0.2955  1.0273
  132MOL    H8739649   1.737   5.996   1.173 -1.7518 -1.2664  2.5119
  132MOL    H8839650   1.862   5.899   1.234 -0.5177  0.1677  1.5048
  132MOL    H8939651   1.896   6.034   0.769  0.0188  1.3434  2.3344
  132MOL    H9039652   1.799   5.891   0.789 -0.0355 -1.1346  1.0569
  132MOL    H9139653   1.967   5.880   0.821  0.0783 -1.1108  1.2181
  132MOL    C9239654   2.059   6.140   1.239 -0.4422 -0.0301  0.0274
  132MOL    C9339655   2.125   6.046   1.344 -0.2260  0.2967 -1.0475
  132MOL    C9439656   2.038   6.046   1.471 -0.2283  0.0036  0.4795
  132MOL    C9539657   2.131   5.902   1.286  1.0091 -0.0148 -0.3551
  132MOL    O9639658   2.066   5.809   1.334 -0.0839  0.0353 -0.2245
  132MOL    O9739659   2.209   5.886   1.177 -0.2175 -0.5099  0.0203
  132MOL    C9839660   2.242   5.756   1.129  0.2995 -0.0864  0.2246
  132MOL    H9939661   2.023   6.227   1.295 -1.6485  0.1063 -0.9326
  132MOL   H10039662   2.129   6.179   1.165 -2.2779  4.2116  0.3642
  132MOL   H10139663   2.086   5.990   1.550  1.3392  0.7512  0.0721
  132MOL   H10239664   2.039   6.147   1.512 -2.0159  0.1390  0.2471
  132MOL   H10339665   1.934   6.017   1.457  0.7102 -4.1205  1.4338
  132MOL   H10439666   2.342   5.747   1.086  0.5078 -2.1936  1.1081
  132MOL   H10539667   2.178   5.726   1.046  0.2497  0.5605  0.0235
  132MOL   H10639668   2.241   5.683   1.209  0.9532  1.6735  1.8729
  132MOL   C10739669   2.270   6.085   1.384  0.5318  0.3296 -0.1780
  132MOL   C10839670   2.310   6.202   1.479 -0.0246  0.3919 -0.1172
  132MOL   C10939671   2.251   6.332   1.422  0.2086  0.0447 -0.7124
  132MOL   C11039672   2.270   6.185   1.626 -0.4494 -0.4465  0.1214
  132MOL   O11139673   2.182   6.250   1.682 -0.1865 -0.5134 -0.7657
  132MOL   O11239674   2.332   6.082   1.674  0.3620  0.4960 -0.7039
  132MOL   C11339675   2.295   6.034   1.809 -0.4858  0.9216 -0.7134
  132MOL   H11439676   2.319   6.095   1.287 -1.0301  1.5677 -0.8622
  132MOL   H11539677   2.304   5.997   1.438  1.4695  0.4683 -0.5297
  132MOL   H11639678   2.142   6.331   1.419  0.2156 -0.8842 -0.9370
  132MOL   H11739679   2.284   6.419   1.479 -1.2915  1.3392 -1.7877
  132MOL   H11839680   2.292   6.374   1.330  1.9695  1.9313  0.8724
  132MOL   H11939681   2.187   6.045   1.817 -0.5586  1.4518 -2.3374
  132MOL   H12039682   2.328   6.084   1.901  0.0269 -0.8725  0.0914
  132MOL   H12139683   2.323   5.929   1.819 -0.1953  0.9707 -1.0063
  132MOL   C12239684   2.469   6.204   1.466 -0.0680 -0.0841 -0.0908
  132MOL   C12339685   2.576   6.310   1.506  0.2860 -0.4290 -0.0718
  132MOL   C12439686   2.567   6.338   1.655 -0.3128  0.1370 -0.4835
  132MOL   C12539687   2.711   6.238   1.477  0.1795  0.4086  0.0104
  132MOL   O12639688   2.799   6.226   1.560  0.1770 -0.2892 -0.0317
  132MOL   O12739689   2.722   6.180   1.354 -1.0205  0.1450 -0.3646
  132MOL   C12839690   2.842   6.140   1.293  0.0831  0.3554 -0.3106
  132MOL   H12939691   2.489   6.187   1.360 -0.2538 -1.1470  0.0327
  132MOL   H13039692   2.505   6.116   1.520  0.2553  0.1454  0.0639
  132MOL   H13139693   2.627   6.425   1.680  0.0148  0.3338 -1.9301
  132MOL   H13239694   2.466   6.354   1.693  0.6604 -0.6423  2.6242
  132MOL   H13339695   2.606   6.257   1.717  2.0176  0.8931 -0.9187
  132MOL   H13439696   2.831   6.141   1.184 -1.5300  2.1163 -0.1544
  132MOL   H13539697   2.884   6.043   1.322  1.9307  0.8154 -1.3208
  132MOL   H13639698   2.929   6.204   1.309 -0.6005  1.5705 -1.4241
  132MOL   C13739699   2.556   6.439   1.414  0.1401  0.2800  0.4756
  132MOL   C13839700   2.670   6.536   1.367 -0.0285 -0.0956 -0.4637
  132MOL   C13939701   2.766   6.572   1.486  0.3611  0.3559  1.0203
  132MOL   C14039702   2.752   6.472   1.247 -0.1404  0.0068 -0.6302
  132MOL   O14139703   2.693   6.395   1.164  0.2896 -0.7197 -0.6260
  132MOL   O14239704   2.886   6.506   1.249 -0.3110 -0.5901 -0.1655
  132MOL   C14339705   2.974   6.448   1.154  0.7020  0.4493  0.1173
  132MOL   H14439706   2.480   6.497   1.466 -1.4203 -1.7623  0.4869
  132MOL   H14539707   2.511   6.396   1.325  0.8598 -1.1903  0.8072
  132MOL   H14639708   2.722   6.635   1.563 -0.1182  0.4605  0.6623
  132MOL   H14739709   2.818   6.484   1.526 -0.1448  0.3241  1.6310
  132MOL   H14839710   2.851   6.628   1.448  0.5085 -0.1358  0.6224
  132MOL   H14939711   2.934   6.424   1.056  0.4527  0.8270  0.1237
  132MOL   H15039712   3.015   6.356   1.194 -0.0795 -0.1286 -0.4062
  132MOL   H15139713   3.048   6.527   1.138  0.4429  1.2638  2.6506
  132MOL   C15239714   2.591   6.663   1.310  0.1168 -0.2724  0.0947
  132MOL   C15339715   2.669   6.794   1.268 -0.0219 -0.1860 -0.2233
  132MOL   C15439716   2.742   6.858   1.389  0.2466  0.3832 -0.5378
  132MOL   C15539717   2.773   6.775   1.150 -0.3070 -0.2579  0.0254
  132MOL   O15639718   2.749   6.696   1.053 -0.0324 -0.2929 -0.4926
  132MOL   O15739719   2.873   6.860   1.154 -0.3045  0.1893  0.1661
  132MOL   C15839720   2.970   6.863   1.053 -0.6226 -0.1542 -0.0802
  132MOL   H15939721   2.511   6.689   1.379 -1.1797 -2.6518 -0.4497
  132MOL   H16039722   2.549   6.626   1.216 -1.1520  1.9646 -0.2468
  132MOL   H16139723   2.693   6.826   1.481  0.9077  1.8235  0.3301
  132MOL   H16239724   2.848   6.834   1.394  0.2670  0.2839 -1.2803
  132MOL   H16339725   2.725   6.965   1.381 -0.4252  0.3396  0.2348
  132MOL   H16439726   3.022   6.768   1.044  1.8311  0.9695  1.9126
  132MOL   H16539727   3.036   6.950   1.059 -0.0690 -0.5806  0.0519
  132MOL   H16639728   2.905   6.874   0.966  0.6128  0.0768 -0.9917
  132MOL   C16739729   2.561   6.899   1.220 -0.3943  0.0543  0.3953
  132MOL   C16839730   2.433   6.888   1.126 -0.4140  0.7412 -0.2182
  132MOL   C16939731   2.470   6.842   0.980  0.1990 -0.0059 -0.8237
  132MOL   C17039732   2.339   6.775   1.186  0.2160  0.2598 -0.4199
  132MOL   O17139733   2.310   6.672   1.116 -0.1479  0.1962 -0.0380
  132MOL   O17239734   2.297   6.804   1.310  0.3702 -0.2277 -0.5475
  132MOL   C17339735   2.190   6.731   1.362 -0.7365 -0.2748 -0.1059
  132MOL   H17439736   2.626   6.968   1.165  0.9868 -0.1714  1.7043
  132MOL   H17539737   2.521   6.959   1.301 -1.6755  0.4935 -0.5504
  132MOL   H17639738   2.486   6.736   0.960 -1.9765 -0.0407 -2.5614
  132MOL   H17739739   2.382   6.852   0.917 -0.0697 -2.8602 -0.9361
  132MOL   H17839740   2.553   6.889   0.927  1.7756  0.1608  1.6601
  132MOL   H17939741   2.174   6.748   1.469  1.4200 -1.0220  0.3645
  132MOL   H18039742   2.209   6.623   1.367  1.8513  0.1162 -0.7738
  132MOL   H18139743   2.097   6.754   1.310 -1.4189 -1.7321  0.4193
  132MOL   C18239744   2.361   7.031   1.139  0.0050 -0.3428 -0.0647
  132MOL   C18339745   2.263   7.099   1.034  0.1477  0.4767  0.4941
  132MOL   C18439746   2.349   7.144   0.903 -0.4672 -0.1059 -0.0776
  132MOL   C18539747   2.142   7.002   1.007 -0.2342 -0.7933 -0.7028
  132MOL   O18639748   2.116   6.952   0.898 -0.3920 -0.0693  0.2897
  132MOL   O18739749   2.079   6.974   1.126  0.6836 -0.0848  0.7625
  132MOL   C18839750   1.959   6.898   1.129 -0.2902 -0.0105  0.4778
  132MOL   H18939751   2.449   7.095   1.143 -0.9641  0.9112  2.8181
  132MOL   H19039752   2.318   7.031   1.240 -1.7502  1.9761 -0.7656
  132MOL   H19139753   2.420   7.068   0.871  1.4895  1.4819  0.3708
  132MOL   H19239754   2.287   7.165   0.815 -0.7070  1.2564  0.3981
  132MOL   H19339755   2.396   7.240   0.924 -1.5317 -0.0307  2.0496
  132MOL   H19439756   1.897   6.936   1.048  0.3620  0.8825  0.3838
  132MOL   H19539757   1.911   6.896   1.227 -2.5943  0.4050 -0.6026
  132MOL   H19639758   1.987   6.797   1.099 -0.4012  0.5064 -1.4724
  132MOL   C19739759   2.214   7.230   1.106  0.6768 -0.2728 -0.2786
  132MOL   C19839760   2.088   7.315   1.068  0.7377 -0.1245 -0.3968
  132MOL   C19939761   2.095   7.340   0.912  0.2439 -0.7795 -0.0266
  132MOL   C20039762   1.959   7.252   1.128  0.2338  0.4673 -0.0272
  132MOL   O20139763   1.952   7.207   1.239  0.0920 -0.7370  0.2778
  132MOL   O20239764   1.861   7.247   1.037  0.1366 -0.0932 -0.3967
  132MOL   C20339765   1.729   7.234   1.087  0.4876  0.3925 -0.1162
  132MOL   H20439766   2.298   7.299   1.103 -1.0050  1.8146  0.0057
  132MOL   H20539767   2.199   7.213   1.213  1.1407 -0.5378 -0.2526
  132MOL   H20639768   2.015   7.395   0.863 -0.0921  0.9798  2.3685
  132MOL   H20739769   2.190   7.388   0.887  1.6925 -4.2257 -1.4041
  132MOL   H20839770   2.077   7.244   0.864  1.1920 -1.3980  0.8260
  132MOL   H20939771   1.653   7.250   1.011 -3.1586  2.0147  3.7163
  132MOL   H21039772   1.694   7.300   1.166 -1.4984 -0.4918 -0.2148
  132MOL   H21139773   1.724   7.131   1.122  1.2899 -0.5041 -2.5059
  132MOL   C21239774   2.102   7.456   1.131 -0.0728 -0.0238  0.1618
  132MOL   C21339775   1.996   7.574   1.142 -0.7128  0.2686 -0.5463
  132MOL   C21439776   1.925   7.599   1.010 -0.8410 -0.2418  0.3854
  132MOL   C21539777   1.888   7.546   1.252  1.0310  0.2417  0.5809
  132MOL   O21639778   1.769   7.573   1.239  0.1849 -0.5923 -0.5323
  132MOL   O21739779   1.936   7.481   1.363 -0.1934  0.1676 -0.8917
  132MOL   C21839780   1.840   7.439   1.461  0.4986 -0.1807 -0.0958
  132MOL   H21939781   2.192   7.496   1.085  0.5318 -1.1942  0.3132
  132MOL   H22039782   2.143   7.430   1.228  1.0207 -1.4494 -0.6585
  132MOL   H22139783   1.846   7.674   1.018 -1.0406 -0.6297  2.4012
  132MOL   H22239784   1.995   7.641   0.938 -0.6232 -0.8365  0.2484
  132MOL   H22339785   1.875   7.514   0.965  1.1535 -1.2361 -0.0146
  132MOL   H22439786   1.779   7.522   1.497  2.9927  1.7291 -0.1697
  132MOL   H22539787   1.898   7.405   1.547 -0.1275  0.8474  0.7460
  132MOL   H22639788   1.777   7.356   1.427  1.4864 -1.1937  0.4972
  132MOL   C22739789   2.069   7.707   1.197  0.8135 -0.1968 -0.2001
  132MOL   C22839790   2.134   7.829   1.114 -0.2235 -0.0428  0.2590
  132MOL   C22939791   2.242   7.771   1.018  0.2072  0.0753 -0.1579
  132MOL   C23039792   2.027   0.026   1.027 -0.2152  0.1561 -0.1734
  132MOL   O23139793   2.053   0.064   0.912 -0.0223 -0.4044 -0.4147
  132MOL   O23239794   1.915   0.053   1.090  0.3365 -0.4326 -0.0589
  132MOL   C23339795   1.812   0.135   1.029 -0.7336  0.2368  0.1259
  132MOL   H23439796   2.138   7.678   1.277  1.6472  2.6702  0.1812
  132MOL   H23539797   1.995   7.762   1.254 -0.9032 -1.2777 -1.3499
  132MOL   H23639798   2.207   7.698   0.945 -1.2967  1.0678 -0.4593
  132MOL   H23739799   2.271   7.843   0.942 -1.1974 -0.6385 -1.4015
  132MOL   H23839800   2.329   7.740   1.076 -0.4567  0.0221  0.8144
  132MOL   H23939801   1.755   0.069   0.965 -0.3026 -1.3458  1.3181
  132MOL   H24039802   1.854   0.223   0.981  1.1445 -0.2650  0.7825
  132MOL   H24139803   1.741   0.179   1.099 -0.4908  0.1621  0.4223
  132MOL   C24239804   2.207   0.040   1.221  0.2102  0.5284 -0.2743
  132MOL   C24339805   2.251   0.193   1.201  0.3324 -0.2923 -0.2041
  132MOL   C24439806   2.308   0.218   1.056  0.6229  1.1648  0.4438
  132MOL   C24539807   2.132   0.286   1.224  0.2854 -0.3738 -0.6205
  132MOL   O24639808   2.025   0.250   1.274  0.3269  0.1484 -0.5798
  132MOL   O24739809   2.157   0.407   1.196 -0.2856  0.2275 -0.0462
  132MOL   C24839810   2.072   0.517   1.228 -0.7388  0.5015  0.7713
  132MOL   H24939811   2.287   7.856   1.264 -0.8767 -0.8787 -0.2502
  132MOL   H25039812   2.142   0.042   1.308  1.0558 -0.0749  0.3839
  132MOL   H25139813   2.232   0.213   0.978 -0.4753 -2.8558  1.6544
  132MOL   H25239814   2.369   0.308   1.057  0.5003  1.2349  2.5761
  132MOL   H25339815   2.381   0.138   1.043  0.0329  1.0205 -2.4109
  132MOL   H25439816   2.008   0.522   1.140 -2.8980  0.7243  2.3153
  132MOL   H25539817   2.130   0.609   1.235 -3.4512  2.1672  1.9587
  132MOL   H25639818   2.019   0.506   1.322 -0.9930 -0.0955  0.5639
  132MOL   C25739819   2.374   0.227   1.296 -0.8465 -0.3057 -0.0127
  132MOL   C25839820   2.377   0.249   1.454 -0.0665 -0.1533 -0.2110
  132MOL   C25939821   2.296   0.377   1.501 -0.0493  0.3141  0.0437
  132MOL   C26039822   2.312   0.119   1.514 -0.0793  0.9315  0.2584
  132MOL   O26139823   2.374   0.012   1.500  0.3658 -0.2970 -0.9812
  132MOL   O26239824   2.193   0.139   1.575  0.1728  0.3011 -0.9584
  132MOL   C26339825   2.103   0.036   1.596 -0.0985  0.3784  0.0593
  132MOL   H26439826   2.414   0.321   1.257 -1.0178  0.1587  0.9036
  132MOL   H26539827   2.456   0.157   1.281  1.8314  2.6849  0.0638
  132MOL   H26639828   2.308   0.390   1.609  0.4507  1.7123 -0.1718
  132MOL   H26739829   2.332   0.462   1.443 -2.5816  1.7177  0.4658
  132MOL   H26839830   2.194   0.385   1.466  0.0105 -2.5061 -0.9117
  132MOL   H26939831   2.020   0.074   1.655  0.2290  0.7734  0.2629
  132MOL   H27039832   2.140   7.836   1.663  0.0775  1.1000  0.7950
  132MOL   H27139833   2.068   7.867   1.504 -0.8225  2.3934 -0.6959
  132MOL   C27239834   2.528   0.268   1.489  0.1646  0.7734 -0.5105
  132MOL   C27339835   2.594   0.307   1.630  0.4228  0.1651 -0.0851
  132MOL   C27439836   2.577   0.458   1.652  0.1671 -0.9663  0.4622
  132MOL   C27539837   2.538   0.223   1.749 -0.6240 -0.2117  0.2371
  132MOL   O27639838   2.604   0.126   1.791 -0.7521  0.0604  0.4027
  132MOL   O27739839   2.419   0.251   1.799  0.3309  0.1358  0.7986
  132MOL   C27839840   2.364   0.194   1.914 -0.4086  0.2061  0.3343
  132MOL   H27939841   2.567   0.332   1.410 -0.6732  3.1075  0.8995
  132MOL   H28039842   2.585   0.177   1.468 -0.7138  0.2476 -0.6162
  132MOL   H28139843   2.597   0.515   1.561 -0.8450 -2.3456 -0.6487
  132MOL   H28239844   2.476   0.486   1.681  0.7406 -0.5527  2.0850
  132MOL   H28339845   2.646   0.501   1.724  1.7585 -1.2414 -0.8572
  132MOL   H28439846   2.338   0.089   1.899 -1.1577  0.6661 -1.6719
  132MOL   H28539847   2.278   0.251   1.949 -0.6180  0.2008 -0.1651
  132MOL   H28639848   2.439   0.201   1.993  1.5971  3.1275 -1.7273
  132MOL   C28739849   2.748   0.286   1.621 -0.2445 -0.0080  0.4462
  132MOL   C28839850   2.836   0.364   1.522  0.1852  0.0301  0.5792
  132MOL   C28939851   2.986   0.360   1.572  0.9976 -0.0752  0.1854
  132MOL   C29039852   2.832   0.322   1.372 -1.2156  0.9430  0.1305
  132MOL   O29139853   2.786   0.393   1.282 -0.5411 -0.4424 -0.2696
  132MOL   O29239854   2.884   0.191   1.354  0.2804  0.3866 -0.5108
  132MOL   C29339855   2.908   0.149   1.220  0.2219 -0.1980 -0.5255
  132MOL   H29439856   2.765   0.179   1.610 -0.9567 -0.0647 -0.1580
  132MOL   H29539857   2.786   0.304   1.721  0.5576 -0.2483  0.1938
  132MOL   H29639858   3.007   0.413   1.664  0.0628 -1.2222  1.0818
  132MOL   H29739859   3.015   0.257   1.591 -2.1325 -0.9472  0.6159
  132MOL   H29839860   3.048   0.405   1.494  0.8513  0.2734  0.2709
  132MOL   H29939861   2.817   0.163   1.161  1.7467 -0.9048 -3.1764
  132MOL   H30039862   2.953   0.050   1.210 -0.8874 -0.9089  1.3578
  132MOL   H30139863   2.970   0.212   1.155 -0.7927  0.1828 -1.1395
  132MOL   H30239864   2.801   0.467   1.532 -1.4152 -0.5228  0.9409
  133MOL     C139865   1.728   7.747   0.656  0.1933  0.2044  0.5948
  133MOL     C239866   1.693   7.662   0.536 -0.0791  0.5321  0.9606
  133MOL     C339867   1.673   7.762   0.417 -0.1584  0.3612 -0.1785
  133MOL     C439868   1.814   7.570   0.508  0.8243 -0.6465 -0.4465
  133MOL     O539869   1.905   7.571   0.590  0.6613  0.3249 -0.5154
  133MOL     O639870   1.803   7.511   0.388  0.5418  0.9276 -0.0071
  133MOL     C739871   1.906   7.424   0.339 -0.9174 -0.1958 -0.6416
  133MOL     H839872   1.818   7.809   0.651  0.4508 -0.1117  1.3572
  133MOL     H939873   1.644   7.813   0.678  0.9332  2.2365 -2.2234
  133MOL    H1039874   1.634   7.708   0.330 -0.0443 -0.8016  0.4836
  133MOL    H1139875   1.609   7.850   0.424  0.4348  0.7286  0.7120
  133MOL    H1239876   1.768   7.795   0.376  0.1267 -0.3318 -0.0787
  133MOL    H1339877   1.894   7.379   0.241  0.0298 -1.3209 -0.2467
  133MOL    H1439878   1.945   7.356   0.414 -0.3198  2.8777  1.9727
  133MOL    H1539879   1.991   7.490   0.322 -0.9270  1.2055  3.9165
  133MOL    H1639880   1.737   7.677   0.739  0.9309  0.6806  0.9198
  133MOL    C1739881   1.558   7.584   0.549 -0.3991  0.2490  0.0649
  133MOL    C1839882   1.522   7.483   0.668 -0.2087 -0.6316 -0.0216
  133MOL    C1939883   1.641   7.384   0.697  0.2831 -0.7044  0.1291
  133MOL    C2039884   1.487   7.555   0.806  0.3950  0.5908 -0.1339
  133MOL    O2139885   1.481   7.674   0.815 -0.2050  0.6729  0.7155
  133MOL    O2239886   1.449   7.473   0.902 -0.0316 -0.3141  0.1816
  133MOL    C2339887   1.406   7.527   1.024 -0.3764 -0.3111  0.2959
  133MOL    H2439888   1.552   7.528   0.456 -1.3301 -1.4142  1.1024
  133MOL    H2539889   1.480   7.660   0.543 -1.6448 -1.1128 -1.2058
  133MOL    H2639890   1.732   7.440   0.721  0.2936 -0.4884 -0.4024
  133MOL    H2739891   1.606   7.330   0.785 -2.6702 -1.7720 -1.6322
  133MOL    H2839892   1.655   7.301   0.627 -0.2033  0.0351 -0.8478
  133MOL    H2939893   1.310   7.579   1.018  0.2596  0.6828 -1.4378
  133MOL    H3039894   1.473   7.599   1.071  2.0013 -1.7063 -0.8456
  133MOL    H3139895   1.400   7.446   1.097  3.1498 -0.8020  0.1151
  133MOL    C3239896   1.401   7.399   0.612 -0.5779 -0.1499  0.1184
  133MOL    C3339897   1.252   7.455   0.571  0.1305 -0.3229 -0.1297
  133MOL    C3439898   1.197   7.553   0.674 -0.1885  0.3870 -0.2490
  133MOL    C3539899   1.264   7.530   0.442  1.4431 -0.5624 -0.0958
  133MOL    O3639900   1.231   7.651   0.424  0.2327  0.2329 -0.3043
  133MOL    O3739901   1.297   7.451   0.338 -0.0215 -0.1328  0.2433
  133MOL    C3839902   1.299   7.511   0.206 -0.0440 -0.3789  0.2573
  133MOL    H3939903   1.384   7.314   0.678 -0.1928  0.9920  1.7099
  133MOL    H4039904   1.446   7.351   0.525  0.4554  0.0171  0.5525
  133MOL    H4139905   1.250   7.647   0.684  1.0956 -0.2079 -1.3288
  133MOL    H4239906   1.100   7.591   0.640 -0.5381 -0.4183 -0.1641
  133MOL    H4339907   1.186   7.510   0.773 -0.4328  0.0567 -0.4181
  133MOL    H4439908   1.368   7.593   0.187  0.3998 -1.2782 -2.1082
  133MOL    H4539909   1.201   7.554   0.185  0.8016  2.1547  1.2035
  133MOL    H4639910   1.322   7.443   0.124  0.3312 -1.9106  1.6012
  133MOL    C4739911   1.167   7.317   0.559 -0.4628  0.0772 -0.7984
  133MOL    C4839912   1.027   7.297   0.501 -0.1772  0.4991 -0.0847
  133MOL    C4939913   0.934   7.406   0.553  0.7559 -1.1893 -0.2617
  133MOL    C5039914   1.038   7.287   0.351  0.5122 -0.1065  0.2316
  133MOL    O5139915   1.115   7.210   0.297 -0.3729 -0.0582 -0.1072
  133MOL    O5239916   0.940   7.356   0.287  0.3892 -0.0765 -0.0103
  133MOL    C5339917   0.917   7.353   0.150 -0.2208  0.1622 -0.1330
  133MOL    H5439918   1.162   7.289   0.665 -2.1451 -1.1762 -1.1767
  133MOL    H5539919   1.229   7.234   0.525 -1.5516 -1.0409 -0.1053
  133MOL    H5639920   0.960   7.504   0.512 -2.5759 -0.3961 -0.6341
  133MOL    H5739921   0.830   7.388   0.527  0.9827 -2.5422 -0.2497
  133MOL    H5839922   0.940   7.406   0.662 -0.4335 -1.6682 -0.1795
  133MOL    H5939923   0.834   7.422   0.132 -0.4937 -0.1500 -0.0888
  133MOL    H6039924   0.871   7.255   0.135 -0.3371  0.3345 -0.9651
  133MOL    H6139925   1.004   7.376   0.089 -2.6064  0.0261 -3.7826
  133MOL    C6239926   0.979   7.156   0.557 -0.0030 -0.2105 -0.0862
  133MOL    C6339927   0.859   7.061   0.500 -0.3091 -0.1719 -0.3815
  133MOL    C6439928   0.837   6.968   0.622 -0.2857 -0.3043  0.1085
  133MOL    C6539929   0.731   7.141   0.479  0.3119  0.2348  0.3467
  133MOL    O6639930   0.645   7.158   0.565  0.4315 -0.6810 -0.1537
  133MOL    O6739931   0.728   7.192   0.354 -0.5315  0.1593 -0.1996
  133MOL    C6839932   0.620   7.272   0.320  0.0741  0.0060 -0.3398
  133MOL    H6939933   0.975   7.165   0.666  1.8657 -0.3566  0.0209
  133MOL    H7039934   1.064   7.088   0.546 -0.7267 -0.7973 -2.1017
  133MOL    H7139935   0.809   7.021   0.713  1.7690  2.2514 -0.6707
  133MOL    H7239936   0.752   6.900   0.623 -2.0087  1.7562 -0.7501
  133MOL    H7339937   0.930   6.914   0.640 -0.4500 -0.2047  1.3056
  133MOL    H7439938   0.643   7.308   0.220 -1.0562  0.9943 -0.2470
  133MOL    H7539939   0.621   7.362   0.382 -1.3117 -0.1514 -0.0842
  133MOL    H7639940   0.518   7.235   0.328  0.7848 -2.0428 -0.3011
  133MOL    C7739941   0.915   6.982   0.375  0.5921 -0.7956  0.0480
  133MOL    C7839942   0.852   6.851   0.318  0.6635  0.0320 -0.2788
  133MOL    C7939943   0.917   6.726   0.392  0.2487 -0.2648 -0.1041
  133MOL    C8039944   0.698   6.846   0.342  0.1958 -0.7858 -0.2336
  133MOL    O8139945   0.641   6.767   0.424 -0.4992 -0.2223 -0.1843
  133MOL    O8239946   0.630   6.933   0.272  0.0415 -0.0791  0.6450
  133MOL    C8339947   0.490   6.950   0.280  0.0708 -0.7372 -0.2297
  133MOL    H8439948   1.019   6.950   0.376  0.9628  0.1519 -3.5081
  133MOL    H8539949   0.910   7.054   0.293 -0.3278 -0.6246  0.2468
  133MOL    H8639950   0.854   6.640   0.417  1.3118 -0.4668  2.0714
  133MOL    H8739951   1.003   6.691   0.335 -1.3488 -0.6658 -2.2979
  133MOL    H8839952   0.962   6.763   0.485 -1.1730  1.4059 -0.0624
  133MOL    H8939953   0.465   7.040   0.336 -1.2341  0.8554 -3.2636
  133MOL    H9039954   0.444   6.859   0.318 -0.6164 -0.0008  0.7672
  133MOL    H9139955   0.448   6.968   0.182 -0.2224 -0.3675 -0.0408
  133MOL    C9239956   0.882   6.844   0.164 -0.2391 -0.0695 -0.5569
  133MOL    C9339957   0.813   6.738   0.067  0.0228  0.2074  0.7415
  133MOL    C9439958   0.780   6.601   0.145  0.0426 -0.5371 -0.2326
  133MOL    C9539959   0.681   6.802   0.003 -0.0330 -0.2264  0.7661
  133MOL    O9639960   0.570   6.748   0.017  0.3583 -0.4561 -0.1147
  133MOL    O9739961   0.712   6.900   7.802 -0.3140  0.2931  0.3220
  133MOL    C9839962   0.628   6.953   7.697  0.1564  0.3048 -0.5336
  133MOL    H9939963   0.990   6.841   0.153 -0.0574 -0.9477  1.1834
  133MOL   H10039964   0.849   6.940   0.125 -0.7888  0.2541  0.6716
  133MOL   H10139965   0.866   6.547   0.185  0.4222  0.1923 -0.0582
  133MOL   H10239966   0.700   6.613   0.218  1.1667  1.3935  0.7057
  133MOL   H10339967   0.732   6.528   0.080 -0.0307 -1.2991  0.6661
  133MOL   H10439968   0.564   6.869   7.670 -0.7129  0.6307  0.4659
  133MOL   H10539969   0.684   6.991   7.612 -0.7600 -1.4336 -1.9391
  133MOL   H10639970   0.564   7.031   7.738 -0.4098 -0.1963 -0.4453
  133MOL   C10739971   0.926   6.703   7.841  0.7103 -0.6258  0.3209
  133MOL   C10839972   0.921   6.600   7.714  0.1913 -0.7238 -0.1422
  133MOL   C10939973   0.989   6.470   7.758 -0.0462  0.2390  0.4130
  133MOL   C11039974   0.779   6.576   7.653  0.4922  0.4000 -0.5019
  133MOL   O11139975   0.717   6.667   7.601  0.8957 -0.0660 -0.0626
  133MOL   O11239976   0.753   6.448   7.631  0.4551  1.1089  0.0758
  133MOL   C11339977   0.635   6.406   7.565  0.2281 -0.2994 -0.1448
  133MOL   H11439978   1.014   6.673   0.020  2.4214  3.0699 -0.2269
  133MOL   H11539979   0.954   6.797   7.793 -2.6238 -0.7910 -2.0853
  133MOL   H11639980   0.987   6.387   7.687 -0.1772 -0.0935  0.8062
  133MOL   H11739981   1.091   6.487   7.793  0.7164 -0.7583 -1.2159
  133MOL   H11839982   0.940   6.444   7.852  0.2620 -1.1456  0.2040
  133MOL   H11939983   0.616   6.472   7.480  2.3649  1.5530  0.7580
  133MOL   H12039984   0.551   6.417   7.633 -0.3795  1.1732 -1.1216
  133MOL   H12139985   0.650   6.308   7.520  1.2060  0.1668 -0.8510
  133MOL   C12239986   1.013   6.670   7.605 -0.8611  0.6248 -0.3834
  133MOL   C12339987   1.045   6.621   7.462  0.3541  0.1334 -0.1203
  133MOL   C12439988   1.082   6.475   7.453 -0.3400  0.5765 -0.8439
  133MOL   C12539989   0.924   6.649   7.378  1.1787 -0.5511  0.1726
  133MOL   O12639990   0.852   6.562   7.330 -0.5588 -0.4297 -0.4546
  133MOL   O12739991   0.906   6.773   7.368  0.0669  0.7289  0.3162
  133MOL   C12839992   0.782   6.837   7.331 -0.0174  0.6042  0.1771
  133MOL   H12939993   1.107   6.678   7.658 -0.6353 -2.7955 -0.1891
  133MOL   H13039994   0.986   6.776   7.600  0.5927  1.0062 -0.3931
  133MOL   H13139995   1.092   6.447   7.348 -1.1123  0.7863 -0.9719
  133MOL   H13239996   1.169   6.457   7.516  0.8605  0.0094 -2.6095
  133MOL   H13339997   1.006   6.407   7.492  1.0359 -0.5509 -0.0788
  133MOL   H13439998   0.803   6.941   7.353 -0.0096  0.7891 -0.6812
  133MOL   H13539999   0.696   6.806   7.391  0.7484  0.1281  1.0245
  133MOL   H13640000   0.768   6.824   7.223 -0.3309 -1.2908  0.4194
  133MOL   C13740001   1.168   6.724   7.418  0.3046  0.2782 -0.8683
  133MOL   C13840002   1.267   6.708   7.297  0.5420 -0.3841 -0.2768
  133MOL   C13940003   1.356   6.588   7.316  0.1305  0.0698  0.4041
  133MOL   C14040004   1.177   6.701   7.168  0.1882  0.3159 -0.2157
  133MOL   O14140005   1.149   6.595   7.120 -0.1327  0.3407 -0.1801
  133MOL   O14240006   1.117   6.817   7.131  0.0829 -0.7741 -0.2280
  133MOL   C14340007   1.025   6.814   7.033 -0.4164  0.4679 -0.1790
  133MOL   H14440008   1.233   6.739   7.504 -0.6220 -0.5523 -0.0033
  133MOL   H14540009   1.117   6.817   7.396 -1.4475 -0.8665 -1.7461
  133MOL   H14640010   1.297   6.497   7.330  0.6177 -0.4276 -0.6655
  133MOL   H14740011   1.424   6.568   7.232  0.9236  2.5648  0.4207
  133MOL   H14840012   1.399   6.587   7.416  1.0129 -0.3021  0.0293
  133MOL   H14940013   0.978   6.911   7.047  2.9651  2.3489 -1.3029
  133MOL   H15040014   0.953   6.732   7.046 -1.2504  1.4873  1.7453
  133MOL   H15140015   1.065   6.812   6.931 -0.3037 -0.1213 -0.1272
  133MOL   C15240016   1.357   6.837   7.291  0.4330 -1.0198  0.9695
  133MOL   C15340017   1.475   6.855   7.194  0.4676 -0.3509  0.3844
  133MOL   C15440018   1.443   6.819   7.049 -0.3930  0.6893  0.3524
  133MOL   C15540019   1.505   7.002   7.186  0.4707 -0.0592 -0.4315
  133MOL   O15640020   1.522   7.063   7.081  0.2502  0.1392 -0.0638
  133MOL   O15740021   1.513   7.065   7.302  0.1210  0.2322  0.5268
  133MOL   C15840022   1.541   7.205   7.312 -0.3957 -0.1267  0.2418
  133MOL   H15940023   1.403   6.870   7.384  0.8037  1.4954 -0.0722
  133MOL   H16040024   1.288   6.919   7.271  0.1219 -1.4025  0.4634
  133MOL   H16140025   1.524   6.844   6.980  2.6028 -3.2776  2.1928
  133MOL   H16240026   1.454   6.711   7.040  0.8631  0.4635  3.7762
  133MOL   H16340027   1.346   6.857   7.018  0.6408  1.3316 -2.1611
  133MOL   H16440028   1.502   7.234   7.410 -2.2169 -1.2359 -0.1211
  133MOL   H16540029   1.483   7.260   7.238  1.8575  2.4148  0.2920
  133MOL   H16640030   1.646   7.227   7.294 -0.4535 -1.8457 -2.4291
  133MOL   C16740031   1.595   6.768   7.250  0.0804 -0.0555  0.3975
  133MOL   C16840032   1.746   6.791   7.250  0.5899  0.0985  0.5071
  133MOL   C16940033   1.780   6.913   7.338 -0.3878 -0.4576  0.2670
  133MOL   C17040034   1.806   6.659   7.306  0.2030 -0.0953  0.5160
  133MOL   O17140035   1.848   6.645   7.421 -0.0788  0.0637 -0.4174
  133MOL   O17240036   1.806   6.554   7.220  0.0676 -0.4805  0.7601
  133MOL   C17340037   1.862   6.425   7.251 -0.1283  0.3590 -0.4327
  133MOL   H17440038   1.590   6.675   7.193  0.6768 -0.1905  0.5609
  133MOL   H17540039   1.578   6.725   7.349  0.7672 -0.9055  0.1500
  133MOL   H17640040   1.766   7.009   7.289  0.1859  0.8074  2.5094
  133MOL   H17740041   1.709   6.916   7.420 -2.6840 -0.0898 -1.6716
  133MOL   H17840042   1.878   6.897   7.384 -0.3985  2.5460  1.4608
  133MOL   H17940043   1.788   6.369   7.307 -0.6853  0.2783 -1.2508
  133MOL   H18040044   1.944   6.438   7.322  0.8640  0.8295 -1.6557
  133MOL   H18140045   1.886   6.365   7.164 -0.0670 -1.3040  0.7019
  133MOL   C18240046   1.805   6.813   7.105 -0.6891 -0.5089  0.3083
  133MOL   C18340047   1.950   6.871   7.073  0.0399 -0.0359 -0.2536
  133MOL   C18440048   1.953   7.026   7.108 -0.1205 -0.0606 -0.1275
  133MOL   C18540049   2.059   6.793   7.150 -0.1099  0.2776  0.7008
  133MOL   O18640050   2.086   6.677   7.120 -0.0610  0.2638 -0.6504
  133MOL   O18740051   2.109   6.851   7.257 -0.9779  0.2663 -0.5179
  133MOL   C18840052   2.180   6.772   7.355  0.6405  0.8059 -1.0699
  133MOL   H18940053   1.734   6.885   7.065 -0.0730 -1.8803 -3.4160
  133MOL   H19040054   1.774   6.729   7.043  1.7302 -1.6511  0.6038
  133MOL   H19140055   1.873   7.077   7.054 -1.7918 -3.2633 -0.8047
  133MOL   H19240056   1.946   7.050   7.214  2.4816  2.3442 -0.4213
  133MOL   H19340057   2.051   7.073   7.100  0.6572 -1.5000  0.7654
  133MOL   H19440058   2.112   6.711   7.414  2.6768  0.5284  1.1092
  133MOL   H19540059   2.225   6.846   7.422  0.7684  0.8831 -1.2402
  133MOL   H19640060   2.265   6.711   7.323  0.0713 -1.3105  1.2501
  133MOL   C19740061   1.992   6.852   6.923  0.3379 -0.2183  0.2665
  133MOL   C19840062   1.938   6.932   6.800  0.8999  0.4507  0.4898
  133MOL   C19940063   1.782   6.930   6.806  0.2911  0.5120 -0.0775
  133MOL   C20040064   1.992   7.073   6.816 -0.8287 -0.2958 -1.3771
  133MOL   O20140065   1.911   7.167   6.819 -0.2414  0.3199 -0.1254
  133MOL   O20240066   2.122   7.072   6.830 -0.4262 -0.2601 -0.1109
  133MOL   C20340067   2.176   7.194   6.872 -0.4442 -0.2544  0.0469
  133MOL   H20440068   1.961   6.750   6.904 -2.1552  0.8847 -1.7495
  133MOL   H20540069   2.101   6.853   6.924  0.3342  0.2430  0.3146
  133MOL   H20640070   1.732   6.978   6.890  1.4878 -2.4708  2.4479
  133MOL   H20740071   1.736   6.980   6.721  0.4559 -2.4231 -1.9813
  133MOL   H20840072   1.754   6.824   6.801 -1.0726  0.8214  0.8161
  133MOL   H20940073   2.122   7.223   6.962  0.4567 -0.0197  0.5145
  133MOL   H21040074   2.165   7.272   6.797  0.6114 -0.7262 -0.6127
  133MOL   H21140075   2.279   7.165   6.894 -0.6499 -1.3967 -0.4584
  133MOL   C21240076   1.990   6.860   6.663 -0.1373 -0.1318 -0.0902
  133MOL   C21340077   1.999   6.927   6.522  1.2258 -0.8223 -0.2328
  133MOL   C21440078   1.873   7.007   6.493  0.4473 -0.4291 -0.5782
  133MOL   C21540079   2.120   7.024   6.515  0.4001 -0.0512 -0.4311
  133MOL   O21640080   2.105   7.145   6.487  0.0321 -0.0651 -0.0062
  133MOL   O21740081   2.242   6.960   6.534  0.2439  0.4943  0.2692
  133MOL   C21840082   2.360   7.029   6.531  0.1635  0.1252 -0.4528
  133MOL   H21940083   1.941   6.763   6.653 -2.2170  0.9062 -0.3237
  133MOL   H22040084   2.093   6.834   6.683  0.0866 -1.5925 -2.9405
  133MOL   H22140085   1.877   7.052   6.394  1.4975 -2.4002 -1.4489
  133MOL   H22240086   1.780   6.951   6.502 -0.9831  1.8151 -0.9611
  133MOL   H22340087   1.868   7.098   6.554  0.8892 -0.3059 -0.7216
  133MOL   H22440088   2.349   7.110   6.458 -0.4846  1.0818  0.6824
  133MOL   H22540089   2.448   6.968   6.512  1.2729  0.8132  2.1476
  133MOL   H22640090   2.375   7.077   6.628  1.4206 -1.3779  0.1032
  133MOL   C22740091   2.024   6.816   6.409 -0.0254 -0.1811 -0.2656
  133MOL   C22840092   1.922   6.715   6.348 -0.2814  0.4801  0.3385
  133MOL   C22940093   1.872   6.630   6.461 -0.4615  0.3919  0.0593
  133MOL   C23040094   1.805   6.786   6.277 -0.3564  0.1095  0.2599
  133MOL   O23140095   1.831   6.876   6.198  0.4797 -0.4406  0.2512
  133MOL   O23240096   1.683   6.730   6.297  0.2117 -0.6894 -0.1801
  133MOL   C23340097   1.586   6.775   6.208  0.2315 -0.6653 -0.2546
  133MOL   H23440098   2.101   6.749   6.447  0.7842  0.4084 -0.8545
  133MOL   H23540099   2.064   6.869   6.323  1.5876  2.2372  1.9112
  133MOL   H23640100   1.819   6.542   6.423 -2.5713  2.1769 -1.2137
  133MOL   H23740101   1.940   6.590   6.536  0.6486  0.8053 -0.7211
  133MOL   H23840102   1.794   6.683   6.515  0.0584 -1.0877  2.3395
  133MOL   H23940103   1.632   6.787   6.110  0.1682  1.9091 -0.0061
  133MOL   H24040104   1.547   6.868   6.250  1.0956 -0.5853  0.3681
  133MOL   H24140105   1.506   6.702   6.196  0.7016 -0.9885 -1.4868
  133MOL   C24240106   2.009   6.630   6.252 -0.5068 -0.3358  0.5928
  133MOL   C24340107   1.950   6.522   6.142 -0.1221  0.0742  0.7033
  133MOL   C24440108   1.873   6.413   6.226 -0.2259 -0.3178 -0.1820
  133MOL   C24540109   1.864   6.604   6.039 -0.3785 -0.4123  0.0061
  133MOL   O24640110   1.746   6.577   6.017 -0.2943 -0.3342 -0.1204
  133MOL   O24740111   1.934   6.693   5.978  0.1135 -0.3704 -0.1988
  133MOL   C24840112   1.860   6.793   5.908  0.8326  1.5775 -0.2642
  133MOL   H24940113   2.080   6.576   6.314 -0.5675 -0.8791  0.1958
  133MOL   H25040114   2.076   6.702   6.204 -1.6385 -1.7989 -3.4289
  133MOL   H25140115   1.923   6.374   6.314  1.0032  1.3355 -0.1101
  133MOL   H25240116   1.771   6.443   6.246  0.2992  0.0457  2.0438
  133MOL   H25340117   1.866   6.323   6.165  1.0179  0.3591 -1.3733
  133MOL   H25440118   1.817   6.764   5.812 -0.0570 -0.2281  0.6475
  133MOL   H25540119   1.921   6.878   5.877  4.0093 -0.7775 -0.8150
  133MOL   H25640120   1.785   6.831   5.977 -0.5645 -1.1321 -0.2332
  133MOL   C25740121   2.081   6.464   6.073 -0.3185  0.0643  0.1911
  133MOL   C25840122   2.088   6.317   6.006  0.1485  0.6159  0.4140
  133MOL   C25940123   1.964   6.300   5.906  0.0203 -0.0511 -0.6490
  133MOL   C26040124   2.214   6.323   5.912  0.7255  0.1238 -0.1977
  133MOL   O26140125   2.319   6.380   5.924  0.1951  0.4291  0.1697
  133MOL   O26240126   2.207   6.238   5.812 -0.2703  0.2665  0.1062
  133MOL   C26340127   2.301   6.259   5.705 -0.4214 -0.0505  0.4778
  133MOL   H26440128   2.173   6.473   6.131 -1.7781  0.8515  2.4501
  133MOL   H26540129   2.109   6.532   5.992 -0.9973 -0.5883 -0.6109
  133MOL   H26640130   1.968   6.208   5.848 -1.0551  0.0424 -0.8919
  133MOL   H26740131   1.864   6.317   5.948  0.2706  3.1042 -1.1875
  133MOL   H26840132   1.965   6.371   5.823  0.2134  0.4360 -0.2310
  133MOL   H26940133   2.250   6.241   5.610 -0.6772 -1.8189  0.9461
  133MOL   H27040134   2.384   6.189   5.710  0.2448  0.7229  0.3743
  133MOL   H27140135   2.353   6.355   5.693  2.2186 -1.3937  0.8817
  133MOL   C27240136   2.116   6.212   6.119  0.1802  0.9337 -0.9686
  133MOL   C27340137   2.087   6.056   6.110 -0.3117  0.2506  0.3113
  133MOL   C27440138   2.148   6.001   5.979 -0.5139 -0.0330 -0.3627
  133MOL   C27540139   2.164   5.986   6.225  0.0444 -0.4797  0.3939
  133MOL   O27640140   2.265   5.917   6.204  0.1666  0.6516  0.9374
  133MOL   O27740141   2.112   5.997   6.348  0.0595  0.2863  0.8688
  133MOL   C27840142   2.161   5.917   6.459 -0.2308  0.0018  0.1714
  133MOL   H27940143   2.067   6.245   6.210  3.4504  1.0151  0.8244
  133MOL   H28040144   2.221   6.226   6.143 -0.2529  0.1005  1.6180
  133MOL   H28140145   2.255   6.022   5.981 -0.4125 -0.5281 -0.6023
  133MOL   H28240146   2.134   5.893   5.975 -2.1199  0.0213  2.4091
  133MOL   H28340147   2.105   6.045   5.889  0.2852  1.1093 -0.1905
  133MOL   H28440148   2.141   5.810   6.451 -0.0385 -0.0088 -0.1827
  133MOL   H28540149   2.105   5.950   6.546  1.6639  1.1250  1.0054
  133MOL   H28640150   2.263   5.949   6.483 -0.4051  1.5054 -0.9980
  133MOL   C28740151   1.936   6.035   6.131  0.0558 -0.2726  0.4181
  133MOL   C28840152   1.874   5.892   6.113  0.4500  0.2066 -0.1292
  133MOL   C28940153   1.837   5.830   6.254 -0.1746  0.6285 -0.5686
  133MOL   C29040154   1.740   5.888   6.038 -0.3873  0.5901 -0.1514
  133MOL   O29140155   1.658   5.976   6.049  0.1598 -0.1522 -0.0259
  133MOL   O29240156   1.727   5.777   5.969 -0.1353 -0.1349 -0.2302
  133MOL   C29340157   1.600   5.738   5.921  0.3454 -0.1039 -0.4013
  133MOL   H29440158   1.883   6.110   6.073  1.1654  2.2521  2.5194
  133MOL   H29540159   1.914   6.062   6.235 -0.9954  0.9809 -0.1277
  133MOL   H29640160   1.824   5.905   6.331  2.2036 -1.3048  1.8455
  133MOL   H29740161   1.753   5.761   6.248  0.1681 -0.0742  2.1241
  133MOL   H29840162   1.928   5.778   6.285 -0.5269  0.2473 -0.1635
  133MOL   H29940163   1.531   5.822   5.921  0.7430  0.2247 -0.2578
  133MOL   H30040164   1.556   5.664   5.988  0.3647  2.4953  2.5988
  133MOL   H30140165   1.609   5.710   5.816  2.2845 -0.9112 -0.0452
  133MOL   H30240166   1.945   5.825   6.065  0.6326 -0.9426  1.7165
  134MOL     C140167   1.186   5.376   0.107  0.2758 -0.1032  0.0580
  134MOL     C240168   1.196   5.434   7.838 -0.0845 -0.4561  0.4929
  134MOL     C340169   1.265   5.579   7.858  0.1981 -0.9046 -0.2059
  134MOL     C440170   1.292   5.351   7.747  0.0398 -0.1949 -0.7306
  134MOL     O540171   1.381   5.278   7.792  0.0893  0.4729  0.5673
  134MOL     O640172   1.280   5.389   7.617 -0.1624 -0.4942  0.4050
  134MOL     C740173   1.368   5.338   7.520 -0.3465  0.1097  0.0784
  134MOL     H840174   1.109   5.422   0.169  0.5190 -0.5775  0.7134
  134MOL     H940175   1.156   5.272   0.114 -0.8416  0.1791 -0.4105
  134MOL    H1040176   1.356   5.584   0.041 -0.6943 -0.9309  1.1499
  134MOL    H1140177   1.302   5.622   7.766 -1.2736 -0.1216 -0.4411
  134MOL    H1240178   1.189   5.646   0.020 -0.1080 -0.9680 -0.6863
  134MOL    H1340179   1.416   5.245   7.553 -1.4072 -1.2137 -2.0247
  134MOL    H1440180   1.454   5.406   7.513 -1.5231  1.4929 -1.2884
  134MOL    H1540181   1.316   5.314   7.427 -2.8179  0.1515  1.4175
  134MOL    H1640182   1.285   5.373   0.153  1.3095  2.3321 -1.8623
  134MOL    C1740183   1.052   5.451   7.777 -0.3394  0.2005  0.5881
  134MOL    C1840184   0.951   5.329   7.747 -0.1823  0.1026  0.3293
  134MOL    C1940185   1.017   5.199   7.690 -0.4892  0.4906 -0.5211
  134MOL    C2040186   0.870   5.299   0.001  0.0791 -0.1838  0.5591
  134MOL    O2140187   0.847   5.382   0.090  0.2077  0.3310 -0.1403
  134MOL    O2240188   0.852   5.167   0.018 -0.9366  0.6556 -0.0126
  134MOL    C2340189   0.793   5.125   0.140 -0.2774  0.5701  0.3322
  134MOL    H2440190   1.068   5.500   7.681  2.7581  0.2642  1.0756
  134MOL    H2540191   1.007   5.528   7.839  0.7285  0.4486  1.0662
  134MOL    H2640192   1.069   5.138   7.764 -1.0003  0.5390 -0.1138
  134MOL    H2740193   0.950   5.137   7.630  0.8871 -0.5042 -1.0325
  134MOL    H2840194   1.098   5.221   7.621 -0.7047 -1.2200 -1.3439
  134MOL    H2940195   0.745   5.028   0.151 -1.0066  0.8555 -0.2741
  134MOL    H3040196   0.718   5.200   0.164 -0.8506  0.5279 -1.2546
  134MOL    H3140197   0.868   5.136   0.218  1.1165 -1.4490 -0.6874
  134MOL    C3240198   0.825   5.380   7.655  0.0931 -0.4325  0.2458
  134MOL    C3340199   0.810   5.365   7.496 -0.7439 -0.1435 -0.0348
  134MOL    C3440200   0.946   5.390   7.424  0.6542 -0.0145 -0.2062
  134MOL    C3540201   0.761   5.222   7.447  0.3654  0.1274 -0.4199
  134MOL    O3640202   0.764   5.180   7.331  0.1713 -0.5703 -0.5463
  134MOL    O3740203   0.690   5.162   7.547  0.0512  0.2298  0.4219
  134MOL    C3840204   0.641   5.025   7.523 -0.0892  0.2806  0.4977
  134MOL    H3940205   0.827   5.489   7.667 -1.3277 -0.4203  0.3979
  134MOL    H4040206   0.727   5.360   7.697 -0.2954  0.5730 -0.1481
  134MOL    H4140207   0.959   5.366   7.319  1.5993  0.7251 -0.2713
  134MOL    H4240208   0.984   5.490   7.446  1.4412 -0.8837  2.6606
  134MOL    H4340209   1.025   5.332   7.471  0.3815  0.5858  1.0257
  134MOL    H4440210   0.540   5.044   7.488  0.0201  0.0251  0.0368
  134MOL    H4540211   0.627   4.968   7.615  3.1787 -1.0465  0.2416
  134MOL    H4640212   0.696   4.968   7.447 -1.1498  0.9342 -0.7702
  134MOL    C4740213   0.713   5.472   7.440 -0.3467 -0.1931  0.4352
  134MOL    C4840214   0.567   5.509   7.479  0.1921  0.6914 -0.6713
  134MOL    C4940215   0.472   5.392   7.459 -0.4790  0.1555 -0.4289
  134MOL    C5040216   0.570   5.555   7.629 -0.6932 -0.4421  0.2482
  134MOL    O5140217   0.488   5.513   7.710  0.3411  0.7431  0.3481
  134MOL    O5240218   0.655   5.652   7.657  0.4969  0.1216 -0.4515
  134MOL    C5340219   0.666   5.686   7.790  0.5760 -0.5250 -0.9673
  134MOL    H5440220   0.711   5.454   7.332 -0.9290  1.6218  0.1238
  134MOL    H5540221   0.772   5.563   7.445 -1.9222  0.7939  1.3381
  134MOL    H5640222   0.476   5.364   7.354  1.4968 -0.0621 -0.3224
  134MOL    H5740223   0.493   5.298   7.510  0.3244  0.2846 -0.5224
  134MOL    H5840224   0.373   5.417   7.496 -1.3905 -0.8516 -2.1119
  134MOL    H5940225   0.642   5.606   7.860 -0.7326  0.6314 -0.0659
  134MOL    H6040226   0.593   5.765   7.809  0.9500 -0.2807 -0.5532
  134MOL    H6140227   0.762   5.732   7.811 -0.3655  0.0354  2.4594
  134MOL    C6240228   0.533   5.626   7.385  0.1286 -0.0447 -0.2036
  134MOL    C6340229   0.390   5.702   7.377  1.6137 -0.0682 -0.3501
  134MOL    C6440230   0.344   5.730   7.528  0.1846 -0.4852 -0.3042
  134MOL    C6540231   0.421   5.836   7.309  0.1938 -0.9790  0.6330
  134MOL    O6640232   0.375   5.945   7.349  0.3596 -0.0819  0.4561
  134MOL    O6740233   0.501   5.826   7.210 -0.1488  0.2732  0.0806
  134MOL    C6840234   0.537   5.949   7.146 -0.7666 -0.0284 -0.0889
  134MOL    H6940235   0.556   5.597   7.282  0.5744 -2.3303  0.5299
  134MOL    H7040236   0.606   5.703   7.411  0.1892  0.1439 -0.9193
  134MOL    H7140237   0.261   5.799   7.531  0.7217  0.1359  1.3167
  134MOL    H7240238   0.298   5.649   7.586 -0.7785  0.6689  0.5566
  134MOL    H7340239   0.424   5.774   7.588  0.8631  0.2741 -1.7417
  134MOL    H7440240   0.591   6.001   7.226 -0.1956 -1.1401  0.2657
  134MOL    H7540241   0.455   6.011   7.112  0.0262  1.0000 -0.1626
  134MOL    H7640242   0.612   5.937   7.068  0.6938 -1.0907  1.4383
  134MOL    C7740243   0.280   5.620   7.302  0.8575  0.7520  0.5520
  134MOL    C7840244   0.157   5.686   7.218 -0.8004  0.1270 -0.2719
  134MOL    C7940245   0.089   5.798   7.303  0.2020  0.0033  0.0422
  134MOL    C8040246   0.213   5.733   7.079 -0.4590  0.6021  0.3962
  134MOL    O8140247   0.161   5.829   7.019  0.2469 -0.4645 -0.1257
  134MOL    O8240248   0.315   5.663   7.041 -0.3659  0.0545 -0.3432
  134MOL    C8340249   0.377   5.696   6.914 -0.2625 -0.3309 -0.3390
  134MOL    H8440250   0.226   5.574   7.385 -0.4025 -2.5873 -2.0003
  134MOL    H8540251   0.332   5.540   7.248 -2.2450  0.8274 -2.6798
  134MOL    H8640252   0.071   5.770   7.407 -0.0745 -1.0447 -0.2814
  134MOL    H8740253   0.145   5.892   7.302  2.2485 -1.1714  0.6900
  134MOL    H8840254   7.870   5.819   7.258  2.0930  1.4725 -3.5710
  134MOL    H8940255   0.425   5.606   6.874 -0.0868 -0.2612 -0.2846
  134MOL    H9040256   0.443   5.778   6.939  1.2115 -1.3356 -0.8493
  134MOL    H9140257   0.305   5.733   6.841  0.6449  0.7569 -0.6963
  134MOL    C9240258   0.035   5.581   7.193  0.0839 -0.0272 -0.0539
  134MOL    C9340259   0.045   5.438   7.126 -0.3595 -0.4118 -0.2812
  134MOL    C9440260   0.113   5.451   6.990  0.0549  0.1045  0.7034
  134MOL    C9540261   0.120   5.338   7.221 -0.1032 -0.5522 -0.5007
  134MOL    O9640262   0.116   5.347   7.346  0.0742 -0.5434 -0.0833
  134MOL    O9740263   0.173   5.230   7.157 -0.3096  0.1904 -0.1561
  134MOL    C9840264   0.223   5.120   7.235 -0.2469 -0.2383 -0.1106
  134MOL    H9940265   7.827   5.633   7.150 -0.7248 -0.5245  0.9385
  134MOL   H10040266   0.001   5.553   7.292 -0.3769 -1.6159 -0.6448
  134MOL   H10140267   0.221   5.459   6.997  0.1416  0.4947 -0.9206
  134MOL   H10240268   0.104   5.364   6.925  0.4857 -0.7567  1.7812
  134MOL   H10340269   0.084   5.545   6.943  0.6452 -0.0606  0.0158
  134MOL   H10440270   0.311   5.077   7.187 -0.8158 -1.6717  0.0892
  134MOL   H10540271   0.172   5.024   7.246 -0.8225 -0.0895 -1.3957
  134MOL   H10640272   0.247   5.157   7.335 -0.6438  2.4459 -0.9824
  134MOL   C10740273   7.780   5.388   7.093 -0.2461 -0.1045  0.5646
  134MOL   C10840274   7.670   5.317   7.186  0.0359 -0.3475 -0.6200
  134MOL   C10940275   7.633   5.420   7.301 -0.0708  0.3847 -0.0691
  134MOL   C11040276   7.542   5.304   7.100 -0.6694 -0.4022 -0.3059
  134MOL   O11140277   7.434   5.341   7.138  0.0152 -0.2064 -0.0983
  134MOL   O11240278   7.567   5.250   6.979 -0.2748 -0.6321  0.2044
  134MOL   C11340279   7.455   5.241   6.896 -0.8459  0.2787 -0.2004
  134MOL   H11440280   7.795   5.304   7.025  1.4445  0.7374 -0.1188
  134MOL   H11540281   7.733   5.451   7.018 -1.9101  0.7201  2.2751
  134MOL   H11640282   7.610   5.521   7.266  0.0666  1.1508  1.9719
  134MOL   H11740283   7.546   5.380   7.352  0.4889  0.1825  0.7327
  134MOL   H11840284   7.707   5.420   7.381  0.1269  0.8989 -0.2495
  134MOL   H11940285   7.487   5.191   6.805 -0.6575  0.9092 -0.4872
  134MOL   H12040286   7.419   5.343   6.878 -2.2437  0.2488  2.2062
  134MOL   H12140287   7.371   5.194   6.947 -2.4636  1.6679 -1.5266
  134MOL   C12240288   7.720   5.185   7.244  0.6483 -0.4961 -0.5830
  134MOL   C12340289   7.634   5.078   7.293  0.4426  0.1476 -0.4849
  134MOL   C12440290   7.516   5.121   7.391  0.0842 -0.0304 -0.1506
  134MOL   C12540291   7.569   5.003   7.179 -0.5191 -0.3683 -0.2880
  134MOL   O12640292   7.446   4.975   7.178  0.6661  0.4472 -0.8034
  134MOL   O12740293   7.657   4.978   7.082 -0.0637  0.6102 -0.6259
  134MOL   C12840294   7.616   4.910   6.967  0.4830  0.1211  1.0283
  134MOL   H12940295   7.786   5.223   7.322 -1.1897  2.7097 -0.4908
  134MOL   H13040296   7.799   5.146   7.179 -0.1989 -2.2341 -0.5920
  134MOL   H13140297   7.440   5.185   7.346  0.0296 -1.0632 -1.5655
  134MOL   H13240298   7.456   5.036   7.425 -1.2384  1.5255  1.4632
  134MOL   H13340299   7.558   5.167   7.481  0.6057  1.9163 -1.3623
  134MOL   H13440300   7.581   4.813   7.003 -0.6803  0.6422  1.3164
  134MOL   H13540301   7.694   4.883   6.895  0.0192 -1.8175  1.2287
  134MOL   H13640302   7.537   4.966   6.917  0.5048 -0.7787 -0.0455
  134MOL   C13740303   7.733   4.992   7.378 -0.2415  0.0402  0.5994
  134MOL   C13840304   7.729   4.831   7.401  0.5282 -1.0312  0.3529
  134MOL   C13940305   7.589   4.788   7.450  0.7014  0.1796 -0.2852
  134MOL   C14040306   7.774   4.755   7.274 -0.0333  0.0619 -0.2497
  134MOL   O14140307   7.712   4.660   7.230  0.4438  0.2590 -0.1277
  134MOL   O14240308   0.016   4.802   7.218 -0.4435  0.4411 -0.1410
  134MOL   C14340309   0.063   4.761   7.093 -0.2601  0.1255 -0.8274
  134MOL   H14440310   7.718   5.023   7.482 -3.5290  2.5810 -0.5621
  134MOL   H14540311   7.836   5.009   7.348 -0.2724 -2.0103 -0.7351
  134MOL   H14640312   7.560   4.851   7.534  2.4516 -1.0535  1.2709
  134MOL   H14740313   7.507   4.801   7.379  0.1232  1.2228  0.5540
  134MOL   H14840314   7.590   4.682   7.473 -1.2064  0.0815 -0.6275
  134MOL   H14940315   7.875   4.799   7.015 -2.0959  0.0011  0.6113
  134MOL   H15040316   0.050   4.653   7.090 -2.6164  0.3113  1.3861
  134MOL   H15140317   0.164   4.797   7.071 -0.5858  0.0438 -2.5310
  134MOL   C15240318   7.837   4.807   7.519 -0.0705  0.2102  0.0034
  134MOL   C15340319   0.018   4.672   7.574  0.1690  0.8523 -0.0935
  134MOL   C15440320   7.787   4.565   7.593  0.3595  0.9319  0.2872
  134MOL   C15540321   0.136   4.619   7.484 -0.2901  0.7264 -0.2038
  134MOL   O15640322   0.200   4.691   7.410  0.4390  0.1105  0.5694
  134MOL   O15740323   0.177   4.496   7.518 -0.2754 -0.1560 -0.3245
  134MOL   C15840324   0.293   4.442   7.461 -1.0645 -0.6146  0.2845
  134MOL   H15940325   7.796   4.860   7.605 -0.3267  0.8942 -0.5385
  134MOL   H16040326   0.045   4.864   7.486  0.6332  0.1960  1.7406
  134MOL   H16140327   7.847   4.485   7.638 -0.7667 -0.0018  0.1547
  134MOL   H16240328   7.707   4.595   7.661 -0.3609 -1.3283  0.4721
  134MOL   H16340329   7.739   4.538   7.500  2.3361 -1.1697 -0.1908
  134MOL   H16440330   0.325   4.357   7.520 -2.1079 -0.4065  1.1577
  134MOL   H16540331   0.378   4.508   7.445 -0.8932 -0.5281  1.4930
  134MOL   H16640332   0.270   4.393   7.367 -0.6467  0.0325 -0.1654
  134MOL   C16740333   0.078   4.702   7.721 -0.1117 -0.1060  0.3717
  134MOL   C16840334   0.195   4.792   7.764  0.8059  0.4734 -0.3368
  134MOL   C16940335   0.324   4.709   7.763  0.6185  0.0109  0.6910
  134MOL   C17040336   0.222   4.917   7.671 -0.7235 -0.7361 -0.2372
  134MOL   O17140337   0.307   4.918   7.585 -0.1977  0.4534 -0.4837
  134MOL   O17240338   0.134   5.015   7.691 -0.3483 -0.4647  0.0497
  134MOL   C17340339   0.143   5.134   7.613 -0.5463  0.4684 -0.4139
  134MOL   H17440340   0.095   4.606   7.769  1.7535 -0.9027 -1.8177
  134MOL   H17540341   7.865   4.741   7.769 -1.1838 -1.1832 -0.7406
  134MOL   H17640342   0.371   4.679   7.669 -0.8955 -2.6024  0.7307
  134MOL   H17740343   0.410   4.770   7.791  1.8798 -0.8798 -1.1270
  134MOL   H17840344   0.316   4.615   7.817  0.0040 -1.8439 -2.4854
  134MOL   H17940345   0.065   5.135   7.537  0.1441  2.2227 -1.1471
  134MOL   H18040346   0.240   5.156   7.568 -0.1683  1.2231  0.7274
  134MOL   H18140347   0.118   5.222   7.673 -1.2061  0.3782 -0.5517
  134MOL   C18240348   0.163   4.837   0.034  0.0853  0.0068  0.5097
  134MOL   C18340349   0.280   4.881   0.144  0.0374  0.3696  0.3396
  134MOL   C18440350   0.357   4.762   0.197  0.1657 -0.5027  0.0177
  134MOL   C18540351   0.386   4.984   0.087 -0.5702  0.8008  0.2474
  134MOL   O18640352   0.505   4.977   0.116 -0.6555  1.2480  0.3389
  134MOL   O18740353   0.332   5.081   0.011 -0.7869  0.4671 -0.0858
  134MOL   C18840354   0.418   5.175   7.821  0.0046  0.1809  0.5478
  134MOL   H18940355   0.114   4.754   0.085  0.3325 -0.0483  0.6568
  134MOL   H19040356   0.086   4.914   0.021  0.8746  0.5596 -1.0533
  134MOL   H19140357   0.295   4.677   0.225 -0.0538 -0.5166 -0.5077
  134MOL   H19240358   0.425   4.729   0.117  0.4227 -0.8941  0.3931
  134MOL   H19340359   0.416   4.785   0.285  0.4794 -0.1566 -0.2786
  134MOL   H19440360   0.383   5.276   7.842  3.5268  1.7055 -0.4757
  134MOL   H19540361   0.401   5.152   7.716 -1.4233 -1.0440  1.0289
  134MOL   H19640362   0.525   5.167   7.840  0.6498 -2.4742 -3.6503
  134MOL   C19740363   0.216   4.943   0.274 -0.0117 -0.5063 -0.0854
  134MOL   C19840364   0.091   5.034   0.278 -0.4949 -0.3882 -0.2480
  134MOL   C19940365   0.108   5.159   0.191 -0.5935 -0.7003 -0.6260
  134MOL   C20040366   7.834   4.959   0.246  0.2602 -0.5402  0.2795
  134MOL   O20140367   7.828   4.833   0.237 -0.0803 -0.1360 -0.5932
  134MOL   O20240368   7.736   5.040   0.219  0.0440 -0.0689  0.0603
  134MOL   C20340369   7.604   4.996   0.219  0.3936 -0.3533 -0.0619
  134MOL   H20440370   0.296   4.980   0.338 -0.7441 -1.5608  1.4661
  134MOL   H20540371   0.174   4.855   0.324  1.7266 -0.3981  1.6224
  134MOL   H20640372   0.023   5.225   0.205 -3.0497 -3.8107 -0.4760
  134MOL   H20740373   0.205   5.205   0.212 -1.3463  0.3508  0.5739
  134MOL   H20840374   0.104   5.136   0.084 -1.4015  0.6033 -0.8916
  134MOL   H20940375   7.584   4.898   0.176  0.7577 -1.2440  1.7697
  134MOL   H21040376   7.559   5.072   0.155  1.8454  1.7700  1.3651
  134MOL   H21140377   7.564   5.003   0.320  1.2199  2.1711  0.1304
  134MOL   C21240378   0.078   5.089   0.423 -0.2694  0.9752 -0.2808
  134MOL   C21340379   0.039   5.012   0.557  0.2498  0.9998 -0.3339
  134MOL   C21440380   7.768   4.966   0.553  0.4730 -0.0610  0.8541
  134MOL   C21540381   0.135   4.890   0.581 -0.7000  0.4947  1.1360
  134MOL   O21640382   0.100   4.772   0.582  0.2571  0.3995  0.6296
  134MOL   O21740383   0.267   4.922   0.591 -0.0591 -0.7382  0.0813
  134MOL   C21840384   0.368   4.826   0.632 -0.0072  0.2777 -0.3562
  134MOL   H21940385   0.015   5.177   0.414 -0.4718  0.7110 -1.5551
  134MOL   H22040386   0.175   5.136   0.443 -0.3607  1.3243 -0.6652
  134MOL   H22140387   7.715   5.056   0.520 -0.5567 -0.9263  0.0877
  134MOL   H22240388   7.743   4.883   0.487 -0.6655  1.0871 -0.2005
  134MOL   H22340389   7.731   4.944   0.653 -0.3945 -0.4282  0.4553
  134MOL   H22440390   0.346   4.722   0.612  0.2763 -0.6452  3.5949
  134MOL   H22540391   0.406   4.852   0.732  0.8899  0.7346 -0.8053
  134MOL   H22640392   0.456   4.857   0.576  1.9285 -2.7263  0.8943
  134MOL   C22740393   0.059   5.116   0.681  0.0754 -0.2833  0.7384
  134MOL   C22840394   0.006   5.105   0.836 -0.6034  0.4074 -0.2596
  134MOL   C22940395   7.744   5.171   0.846  0.1213  0.5348  0.0584
  134MOL   C23040396   0.005   4.960   0.889 -0.1904 -0.2624  0.1926
  134MOL   O23140397   7.779   4.904   0.940 -0.0171  0.6077  0.6316
  134MOL   O23240398   0.126   4.900   0.874  0.0913  1.2958  0.0813
  134MOL   C23340399   0.132   4.767   0.918 -0.3663  0.1926  0.4423
  134MOL   H23440400   0.015   5.210   0.645 -0.7416 -0.4117  1.3811
  134MOL   H23540401   0.165   5.139   0.679 -0.3033  1.6091  0.8124
  134MOL   H23640402   7.733   5.246   0.924 -0.2376  0.6300 -0.0833
  134MOL   H23740403   7.715   5.221   0.754 -2.3594 -2.6848 -1.0268
  134MOL   H23840404   7.671   5.091   0.862 -0.1348  1.2243  2.6351
  134MOL   H23940405   0.230   4.719   0.920 -1.1663 -1.6484 -1.8861
  134MOL   H24040406   0.070   4.698   0.859 -0.8263 -0.4074  1.6118
  134MOL   H24140407   0.088   4.757   1.017 -0.6989  2.4618  0.5434
  134MOL   C24240408   0.101   5.190   0.922 -0.2364 -0.1300  0.5362
  134MOL   C24340409   0.110   5.198   1.082  0.4403  0.6801 -0.1528
  134MOL   C24440410   0.173   5.061   1.125 -0.5087  0.4270  0.2985
  134MOL   C24540411   0.229   5.306   1.107 -0.5142 -0.0723  0.4360
  134MOL   O24640412   0.341   5.277   1.150 -0.1719  0.3370 -0.1973
  134MOL   O24740413   0.187   5.435   1.093  0.9497 -0.2126 -0.0727
  134MOL   C24840414   0.264   5.549   1.088  0.9203  0.3117 -0.2086
  134MOL   H24940415   0.095   5.293   0.888 -0.2726 -0.3826 -0.2339
  134MOL   H25040416   0.205   5.172   0.894  0.5508  2.1882  1.8364
  134MOL   H25140417   0.249   5.026   1.055 -1.0324 -1.1503  0.5108
  134MOL   H25240418   0.217   5.063   1.225 -1.1503  1.1466  0.5760
  134MOL   H25340419   0.097   4.984   1.113  0.2092 -0.3098  0.4508
  134MOL   H25440420   0.214   5.618   1.157  1.8991  0.7452  0.0683
  134MOL   H25540421   0.268   5.601   0.992  2.1627 -1.9646 -1.4069
  134MOL   H25640422   0.363   5.545   1.132  1.3182  1.9067 -0.9295
  134MOL   C25740423   7.851   5.227   1.157  0.4826  0.2690 -0.1016
  134MOL   C25840424   7.835   5.229   1.316  0.2095  0.0081 -0.4883
  134MOL   C25940425   0.077   5.294   1.382  0.7760  0.1306 -0.0033
  134MOL   C26040426   7.709   5.308   1.341  0.6916 -0.0020 -0.4155
  134MOL   O26140427   7.714   5.423   1.385 -0.4717  0.1650  0.6912
  134MOL   O26240428   7.594   5.246   1.305 -0.3969 -0.0147  0.5129
  134MOL   C26340429   7.466   5.306   1.320 -0.5224  0.2890 -0.1742
  134MOL   H26440430   7.776   5.162   1.112 -0.0775 -0.4867  1.8673
  134MOL   H26540431   7.824   5.326   1.119  2.7232  0.5463 -1.0454
  134MOL   H26640432   0.174   5.246   1.374  0.3661 -0.6902 -0.1035
  134MOL   H26740433   0.091   5.390   1.333 -0.3885  0.2330 -0.1695
  134MOL   H26840434   0.057   5.321   1.486 -0.4171 -0.1795 -0.1426
  134MOL   H26940435   7.468   5.392   1.387  0.7890  0.4913 -0.4637
  134MOL   H27040436   7.396   5.231   1.358  2.1476 -1.5363  1.2683
  134MOL   H27140437   7.425   5.335   1.223 -0.4346 -0.3199 -0.3986
  134MOL   C27240438   7.820   5.076   1.366 -0.0979  0.2006 -0.6481
  134MOL   C27340439   7.848   5.036   1.514 -0.1884 -0.5744 -0.5250
  134MOL   C27440440   0.126   5.030   1.548  0.0448 -0.3466 -0.3586
  134MOL   C27540441   7.792   5.135   1.622  0.4654 -0.8403  0.4908
  134MOL   O27640442   7.852   5.184   1.719 -0.1845  0.4253  0.2104
  134MOL   O27740443   7.665   5.144   1.602 -0.5051  0.1284 -0.0780
  134MOL   C27840444   7.586   5.230   1.680  0.5504 -0.5350 -0.0309
  134MOL   H27940445   0.012   5.019   1.305 -1.6296 -2.1006 -0.2746
  134MOL   H28040446   7.721   5.036   1.343 -0.4792 -0.0109  1.3256
  134MOL   H28140447   0.146   4.989   1.647 -1.3060 -1.2055 -0.4386
  134MOL   H28240448   0.182   4.959   1.487  1.2171 -0.0577  0.3700
  134MOL   H28340449   0.180   5.125   1.543  2.2055 -1.5083 -0.0252
  134MOL   H28440450   7.483   5.205   1.653  0.8713 -0.6106 -1.2332
  134MOL   H28540451   7.603   5.336   1.659  2.4784 -0.6123  1.1014
  134MOL   H28640452   7.601   5.210   1.786 -0.0544  0.7349  0.3075
  134MOL   C28740453   7.780   4.899   1.548  0.1079 -0.4677 -0.6057
  134MOL   C28840454   7.846   4.769   1.496  0.2672  0.3305  0.2744
  134MOL   C28940455   7.791   4.647   1.581  0.3068 -0.2826  0.1867
  134MOL   C29040456   7.827   4.755   1.346  0.4808 -0.2412  0.4681
  134MOL   O29140457   0.044   4.769   1.271  0.0451 -0.1820  0.1916
  134MOL   O29240458   7.705   4.734   1.308 -0.3133  0.5548  0.2847
  134MOL   C29340459   7.679   4.711   1.175  0.2537 -0.0194  0.8799
  134MOL   H29440460   7.679   4.903   1.508 -0.4661 -2.2422  0.6210
  134MOL   H29540461   7.760   4.880   1.653  3.2854 -2.1675 -0.2469
  134MOL   H29640462   7.827   4.558   1.529  1.1872 -0.5318  1.2056
  134MOL   H29740463   7.830   4.652   1.682 -0.8238  0.6830  0.5931
  134MOL   H29840464   7.682   4.651   1.583  0.2299 -1.4972 -0.8945
  134MOL   H29940465   7.708   4.611   1.144 -0.3807  0.1592 -0.3326
  134MOL   H30040466   7.720   4.791   1.113  0.9290 -2.4015 -1.8415
  134MOL   H30140467   7.571   4.715   1.168  0.2587 -1.3284  0.0140
  134MOL   H30240468   0.076   4.761   1.514  0.1749 -1.1597  0.2029
  135MOL     C140469   6.079   5.202   3.758  0.2089 -0.0886  0.0544
  135MOL     C240470   6.014   5.180   3.617 -0.6186 -0.9005 -0.4695
  135MOL     C340471   6.124   5.211   3.520  0.2533  0.5030 -0.4500
  135MOL     C440472   5.979   5.029   3.591 -0.1341 -0.0325  0.2577
  135MOL     O540473   6.028   4.943   3.662  0.2200 -0.3220 -0.0302
  135MOL     O640474   5.909   5.004   3.478 -0.3553  1.2199 -0.1309
  135MOL     C740475   5.854   4.879   3.447 -0.1741  0.7649  0.1607
  135MOL     H840476   6.111   5.305   3.775 -1.0023 -0.2414  3.5389
  135MOL     H940477   6.015   5.184   3.844  2.2332  0.1422  1.6627
  135MOL    H1040478   6.182   5.302   3.535  2.1682 -1.0732  2.0130
  135MOL    H1140479   6.195   5.128   3.522 -1.1022 -0.7047 -1.5454
  135MOL    H1240480   6.079   5.226   3.422 -0.8497  1.8589  0.2439
  135MOL    H1340481   5.917   4.809   3.393 -0.4073 -0.3324  1.3109
  135MOL    H1440482   5.760   4.898   3.394 -0.3560  0.7126  0.4663
  135MOL    H1540483   5.826   4.829   3.539 -0.3628 -3.2003 -1.9238
  135MOL    H1640484   6.166   5.142   3.784 -0.7749 -0.4856  2.5534
  135MOL    C1740485   5.896   5.276   3.585  0.7453 -0.2797 -0.0957
  135MOL    C1840486   5.779   5.295   3.681 -0.5384  0.7452  0.4759
  135MOL    C1940487   5.727   5.146   3.714  0.4423 -0.1780  0.8065
  135MOL    C2040488   5.805   5.374   3.810 -0.0478  0.4522 -0.6116
  135MOL    O2140489   5.903   5.448   3.824 -0.1460  0.1594  0.0093
  135MOL    O2240490   5.720   5.354   3.911  0.2602  0.6690  0.5128
  135MOL    C2340491   5.719   5.437   4.026  0.2751  0.1276 -0.3958
  135MOL    H2440492   5.854   5.245   3.489  2.8592 -0.1709 -1.0882
  135MOL    H2540493   5.934   5.375   3.560 -2.6360  0.9380 -0.6621
  135MOL    H2640494   5.675   5.094   3.633  0.0088 -0.8938  1.5331
  135MOL    H2740495   5.806   5.084   3.757 -0.7160 -1.1583  1.5930
  135MOL    H2840496   5.651   5.147   3.793  0.1527 -1.4681  0.5606
  135MOL    H2940497   5.695   5.538   3.991 -0.3064  0.7341  1.6708
  135MOL    H3040498   5.817   5.434   4.073 -0.8388  1.1126  2.1343
  135MOL    H3140499   5.651   5.407   4.107  0.1896 -0.8603 -0.8336
  135MOL    C3240500   5.653   5.355   3.611  0.4378  0.7742  0.5142
  135MOL    C3340501   5.635   5.492   3.545  0.0298  0.5730  0.6632
  135MOL    C3440502   5.670   5.614   3.623 -0.7363  0.5843 -0.0394
  135MOL    C3540503   5.731   5.497   3.423  0.3017  0.1806  0.0083
  135MOL    O3640504   5.819   5.578   3.412 -0.4066 -0.0401 -0.0246
  135MOL    O3740505   5.691   5.408   3.334 -0.1558  0.6989  0.4455
  135MOL    C3840506   5.741   5.409   3.201 -0.7142 -0.8914 -0.2000
  135MOL    H3940507   5.568   5.346   3.679  0.2921  1.3689  0.4089
  135MOL    H4040508   5.615   5.279   3.542 -0.1257  2.4030 -0.9963
  135MOL    H4140509   5.655   5.709   3.572  0.2323  1.7838  1.8031
  135MOL    H4240510   5.611   5.618   3.715 -1.8884  0.7355 -0.7759
  135MOL    H4340511   5.777   5.607   3.644 -0.6055  1.8288 -0.2379
  135MOL    H4440512   5.718   5.499   3.145  2.2215 -1.4439 -2.4485
  135MOL    H4540513   5.703   5.322   3.147 -0.6287 -2.1333  1.6495
  135MOL    H4640514   5.850   5.418   3.202 -0.7375 -0.5563 -0.6159
  135MOL    C4740515   5.482   5.502   3.494 -0.3466  0.0614  0.2485
  135MOL    C4840516   5.357   5.550   3.577 -0.9896 -0.4541  0.8311
  135MOL    C4940517   5.346   5.479   3.719 -0.4233 -0.5784  0.1574
  135MOL    C5040518   5.382   5.709   3.587  0.1926  0.3895 -0.1048
  135MOL    O5140519   5.409   5.763   3.695  0.0573 -0.0936  0.6052
  135MOL    O5240520   5.374   5.771   3.471 -0.1491  0.0977 -0.8139
  135MOL    C5340521   5.398   5.912   3.466 -0.1424 -0.8230 -0.8545
  135MOL    H5440522   5.452   5.410   3.444  1.3488  1.1904 -3.0261
  135MOL    H5540523   5.485   5.555   3.398 -0.1255 -2.0469 -0.9420
  135MOL    H5640524   5.439   5.496   3.773 -0.9667  0.4683  0.7886
  135MOL    H5740525   5.268   5.529   3.777 -0.6514 -0.6560 -0.0851
  135MOL    H5840526   5.326   5.372   3.727 -0.0591 -0.7061 -0.6028
  135MOL    H5940527   5.377   5.969   3.557 -1.0998  0.5340 -1.8985
  135MOL    H6040528   5.341   5.960   3.387 -1.2030 -1.5283 -0.5229
  135MOL    H6140529   5.501   5.935   3.438  0.1450 -0.0805  0.7339
  135MOL    C6240530   5.225   5.528   3.502  0.0779  0.3234  0.7322
  135MOL    C6340531   5.129   5.405   3.496 -0.0544 -0.3664  0.6793
  135MOL    C6440532   5.032   5.444   3.381 -0.1729 -0.0102 -0.3024
  135MOL    C6540533   5.208   5.283   3.442  0.2204  0.3795  0.2207
  135MOL    O6640534   5.213   5.242   3.326  0.2423 -0.2626  0.3838
  135MOL    O6740535   5.284   5.235   3.544  0.1008  0.2266  0.2111
  135MOL    C6840536   5.357   5.114   3.520 -0.4531  0.1354  0.0280
  135MOL    H6940537   5.247   5.554   3.398  2.5999 -1.5203  0.7550
  135MOL    H7040538   5.155   5.603   3.539 -0.4074 -0.7610  2.0634
  135MOL    H7140539   4.966   5.359   3.362  0.9260 -1.0622  0.5256
  135MOL    H7240540   4.969   5.532   3.401  0.7287  1.0359 -2.0024
  135MOL    H7340541   5.089   5.464   3.291 -1.2625  0.9582 -0.7989
  135MOL    H7440542   5.361   5.060   3.615  0.6090 -1.0725 -0.6891
  135MOL    H7540543   5.459   5.131   3.488 -0.8585  0.7056 -1.0023
  135MOL    H7640544   5.309   5.044   3.451 -1.6453  0.5374  0.4225
  135MOL    C7740545   5.058   5.387   3.641  0.6509  0.1509  0.0467
  135MOL    C7840546   4.910   5.352   3.669 -0.1320 -0.2066  0.0786
  135MOL    C7940547   4.810   5.458   3.599  0.1183 -0.5737  0.3365
  135MOL    C8040548   4.878   5.210   3.616  0.3295 -0.4135  0.5204
  135MOL    O8140549   4.960   5.136   3.560  0.6267  0.5131  0.3570
  135MOL    O8240550   4.744   5.178   3.630  0.0472 -0.3962 -0.4208
  135MOL    C8340551   4.708   5.045   3.580  0.1218 -0.1514  0.8526
  135MOL    H8440552   5.066   5.481   3.696 -2.3821  0.3543  0.2680
  135MOL    H8540553   5.117   5.314   3.696  2.0937  1.3282  0.0919
  135MOL    H8640554   4.782   5.426   3.499 -2.6445 -1.3007  1.3109
  135MOL    H8740555   4.718   5.481   3.653  0.6773 -1.5989  1.7591
  135MOL    H8840556   4.856   5.555   3.581 -2.3114  0.0527 -2.8374
  135MOL    H8940557   4.775   4.967   3.616  2.3723  2.5390  2.6337
  135MOL    H9040558   4.707   5.048   3.471 -1.3479 -0.9306  0.8244
  135MOL    H9140559   4.606   5.027   3.613 -0.7276 -0.9606 -2.0214
  135MOL    C9240560   4.864   5.374   3.816 -0.3549 -0.2136 -0.2354
  135MOL    C9340561   4.943   5.317   3.945 -0.2249  0.4117 -0.2304
  135MOL    C9440562   4.974   5.167   3.934 -0.1419  0.4500  0.0023
  135MOL    C9540563   5.075   5.393   3.959  0.0901 -0.0550  0.7009
  135MOL    O9640564   5.187   5.346   3.954 -0.3268  0.0196  0.7875
  135MOL    O9740565   5.048   5.530   3.988 -0.1592 -0.0700 -0.1515
  135MOL    C9840566   5.150   5.605   4.048 -0.2625  0.5344 -0.4991
  135MOL    H9940567   4.768   5.324   3.828  0.8078 -2.1980  1.0583
  135MOL   H10040568   4.851   5.480   3.836  3.5777  0.4287 -0.5366
  135MOL   H10140569   5.063   5.136   3.989 -0.2719 -0.8599 -0.5124
  135MOL   H10240570   4.892   5.107   3.972  0.7699 -0.0028  1.2902
  135MOL   H10340571   4.996   5.123   3.836  2.8949  0.1762  0.7569
  135MOL   H10440572   5.105   5.701   4.074  2.3761  1.8319 -0.5204
  135MOL   H10540573   5.230   5.625   3.977 -0.9586  2.5643 -0.7416
  135MOL   H10640574   5.195   5.563   4.138 -1.7249 -1.6442 -0.7404
  135MOL   C10740575   4.850   5.339   4.069 -0.5320  0.0707 -0.1066
  135MOL   C10840576   4.882   5.281   4.218 -0.1937  0.1584  1.0977
  135MOL   C10940577   4.839   5.139   4.231 -0.1113 -0.1357 -0.5141
  135MOL   C11040578   5.028   5.296   4.256 -0.0005 -0.3579 -0.0250
  135MOL   O11140579   5.077   5.401   4.298 -0.2605  0.2002 -0.3077
  135MOL   O11240580   5.095   5.183   4.226  0.3433  0.4015 -0.7300
  135MOL   C11340581   5.225   5.163   4.272 -0.1791 -0.2176 -0.5194
  135MOL   H11440582   4.749   5.311   4.038 -0.2065 -0.6127 -0.5472
  135MOL   H11540583   4.837   5.448   4.074 -1.4226 -0.1273  2.7492
  135MOL   H11640584   4.745   5.117   4.180  0.6601 -2.0957 -1.1553
  135MOL   H11740585   4.903   5.062   4.186  1.4225  0.6610  0.2723
  135MOL   H11840586   4.820   5.104   4.332 -1.0123 -0.3113 -0.7432
  135MOL   H11940587   5.287   5.245   4.235 -0.4204 -0.1021 -0.6735
  135MOL   H12040588   5.257   5.074   4.216 -0.7038 -0.1278 -0.9768
  135MOL   H12140589   5.232   5.148   4.380  1.2835 -0.1106 -0.5839
  135MOL   C12240590   4.809   5.368   4.326  0.3200 -0.4367  0.4067
  135MOL   C12340591   4.657   5.381   4.350  0.2541 -0.5672 -0.1215
  135MOL   C12440592   4.618   5.263   4.439 -0.0112  0.8147 -0.1796
  135MOL   C12540593   4.637   5.514   4.425 -0.6906 -0.0323 -0.0901
  135MOL   O12640594   4.586   5.521   4.539  0.0983  0.3133  0.0273
  135MOL   O12740595   4.684   5.621   4.357  0.2224  0.4631  0.2445
  135MOL   C12840596   4.672   5.750   4.423 -0.2820  0.4757  0.2443
  135MOL   H12940597   4.841   5.466   4.290  0.0282 -0.4716  0.0529
  135MOL   H13040598   4.854   5.361   4.425  0.4459 -1.3535  0.2866
  135MOL   H13140599   4.526   5.292   4.489 -1.2069 -1.2616 -1.0837
  135MOL   H13240600   4.604   5.169   4.385  0.8634 -0.3290  1.5463
  135MOL   H13340601   4.689   5.242   4.520 -0.7406 -2.0401 -0.2152
  135MOL   H13440602   4.678   5.834   4.353 -0.8769 -0.2811 -0.7307
  135MOL   H13540603   4.747   5.774   4.498 -1.6071  0.7704  1.4813
  135MOL   H13640604   4.577   5.749   4.475 -0.8705 -1.3256 -0.8308
  135MOL   C13740605   4.562   5.383   4.220 -0.4324 -0.3812 -0.0029
  135MOL   C13840606   4.406   5.417   4.212 -0.1911 -0.0158  0.0370
  135MOL   C13940607   4.334   5.365   4.339  0.1749 -0.7192  0.8047
  135MOL   C14040608   4.374   5.569   4.187 -0.1897 -0.3134  0.1452
  135MOL   O14140609   4.454   5.653   4.147 -0.2730 -0.1079  0.1813
  135MOL   O14240610   4.244   5.597   4.191  0.1911 -0.1507 -0.4160
  135MOL   C14340611   4.193   5.729   4.156  0.1624 -0.2491 -0.5701
  135MOL   H14440612   4.571   5.290   4.164 -0.2881  1.2690 -2.8412
  135MOL   H14540613   4.614   5.450   4.151  2.7243 -1.1392  1.5648
  135MOL   H14640614   4.354   5.263   4.370  3.5730 -0.4599 -0.3141
  135MOL   H14740615   4.352   5.439   4.417  0.6733  1.4840 -1.3133
  135MOL   H14840616   4.225   5.360   4.332  0.2842 -2.1840 -0.0593
  135MOL   H14940617   4.095   5.732   4.202  1.3044 -1.0208  1.9814
  135MOL   H15040618   4.194   5.750   4.049  0.2345  0.8916 -0.3530
  135MOL   H15140619   4.243   5.810   4.210  1.8040 -1.5426 -0.0940
  135MOL   C15240620   4.340   5.333   4.094 -0.2545  1.2896 -0.5870
  135MOL   C15340621   4.357   5.345   3.936  0.6904 -0.0014 -0.0320
  135MOL   C15440622   4.503   5.321   3.900 -0.4613 -0.7821  0.4814
  135MOL   C15540623   4.288   5.209   3.890  0.7137 -0.5674  0.0715
  135MOL   O15640624   4.351   5.118   3.839  0.0523  0.5210 -0.7590
  135MOL   O15740625   4.156   5.205   3.910 -0.4699  0.3869 -0.1522
  135MOL   C15840626   4.096   5.082   3.883  0.3256  0.0151  0.0288
  135MOL   H15940627   4.234   5.325   4.115 -0.1511  3.3025  0.7636
  135MOL   H16040628   4.363   5.230   4.122 -2.1356  1.4131  1.5479
  135MOL   H16140629   4.552   5.239   3.952 -2.5947 -1.7329  1.0580
  135MOL   H16240630   4.532   5.310   3.796  1.0624  1.4273  0.6319
  135MOL   H16340631   4.563   5.411   3.920 -0.7096  0.1608 -2.8354
  135MOL   H16440632   4.133   5.006   3.951  1.6248  0.4385 -0.1955
  135MOL   H16540633   4.134   5.055   3.784  2.6990 -1.2249  1.2246
  135MOL   H16640634   3.988   5.085   3.870  0.2825 -2.2429 -0.3241
  135MOL   C16740635   4.289   5.478   3.887 -0.1321 -0.0136  0.4115
  135MOL   C16840636   4.285   5.519   3.736 -0.2244  0.0687  0.2592
  135MOL   C16940637   4.428   5.565   3.688 -0.0873  0.5964  0.1184
  135MOL   C17040638   4.224   5.408   3.638 -0.5326 -0.4227  0.6370
  135MOL   O17140639   4.296   5.365   3.550 -0.0379  0.3990 -0.2846
  135MOL   O17240640   4.099   5.365   3.670 -0.1110 -0.2294  0.6616
  135MOL   C17340641   4.024   5.287   3.575  0.8911 -0.2234 -0.1349
  135MOL   H17440642   4.322   5.568   3.939 -1.0616  0.2878  0.4947
  135MOL   H17540643   4.186   5.465   3.921 -0.1473  0.3548  0.5095
  135MOL   H17640644   4.479   5.474   3.654  0.9314  1.9557 -2.1302
  135MOL   H17740645   4.438   5.639   3.609 -0.3751  0.2323 -0.2615
  135MOL   H17840646   4.486   5.596   3.775  0.0791  3.2828 -0.9087
  135MOL   H17940647   4.016   5.341   3.481 -3.0299  1.1511  0.8915
  135MOL   H18040648   3.923   5.269   3.611  0.2036  0.5224 -1.6563
  135MOL   H18140649   4.068   5.188   3.562  2.6710  0.3263  1.3146
  135MOL   C18240650   4.188   5.651   3.728  0.0879 -0.3191 -0.1303
  135MOL   C18340651   4.112   5.708   3.597 -0.2326 -0.2818  0.3525
  135MOL   C18440652   4.186   5.662   3.470 -0.1573 -0.1564  0.3846
  135MOL   C18540653   3.966   5.664   3.598 -0.6700  0.3105  0.0452
  135MOL   O18640654   3.911   5.619   3.693 -0.1548 -0.0788  0.2182
  135MOL   O18740655   3.906   5.679   3.479 -0.8307 -0.0817 -0.8436
  135MOL   C18840656   3.762   5.685   3.462  0.0292  0.3487 -0.1743
  135MOL   H18940657   4.262   5.721   3.766  0.2863  0.5176 -2.0174
  135MOL   H19040658   4.110   5.646   3.805 -0.5709  0.7189 -0.7045
  135MOL   H19140659   4.150   5.724   3.388 -0.7460 -0.6808  0.2422
  135MOL   H19240660   4.294   5.672   3.459 -0.2752 -0.3157 -0.9856
  135MOL   H19340661   4.163   5.558   3.448  0.0698 -0.3065  0.8510
  135MOL   H19440662   3.721   5.783   3.485 -0.9010  0.1579 -1.0020
  135MOL   H19540663   3.701   5.621   3.527 -1.7197  1.4320 -0.7314
  135MOL   H19640664   3.733   5.666   3.359  0.8612 -0.6711 -0.2299
  135MOL   C19740665   4.124   5.869   3.590  0.3913  0.1461  0.4296
  135MOL   C19840666   4.092   5.969   3.711 -0.3709 -0.4919  0.2535
  135MOL   C19940667   3.953   5.941   3.766  0.0474 -0.0302 -0.2996
  135MOL   C20040668   4.188   5.966   3.830  0.0795  0.3989  0.3391
  135MOL   O20140669   4.149   5.943   3.941  0.1732 -0.7338 -0.2055
  135MOL   O20240670   4.320   5.980   3.791 -0.0548 -0.1638 -0.0841
  135MOL   C20340671   4.431   5.980   3.877  0.2006 -0.2573  0.5564
  135MOL   H20440672   4.066   5.897   3.503 -0.5873 -1.8626  0.4121
  135MOL   H20540673   4.225   5.908   3.581  0.4134 -0.1965 -0.9442
  135MOL   H20640674   3.942   5.854   3.831 -2.6405 -0.0812 -0.7526
  135MOL   H20740675   3.913   6.028   3.818 -0.3068 -0.4035  0.0573
  135MOL   H20840676   3.894   5.924   3.675  0.4120 -0.4222 -0.4615
  135MOL   H20940677   4.526   6.007   3.831  0.5948 -1.9220  0.3492
  135MOL   H21040678   4.446   5.881   3.919  1.3105  0.8258  2.7650
  135MOL   H21140679   4.412   6.051   3.957 -0.2769 -0.5760  0.7276
  135MOL   C21240680   4.084   6.113   3.641 -0.0154 -1.0680  0.0101
  135MOL   C21340681   4.109   6.251   3.718 -0.3333 -0.5632 -0.3545
  135MOL   C21440682   4.033   6.267   3.851  0.8828  0.0045  0.7850
  135MOL   C21540683   4.259   6.275   3.740 -0.8573  0.4416  0.8623
  135MOL   O21640684   4.304   6.290   3.851  0.5683  0.1633 -0.6618
  135MOL   O21740685   4.332   6.273   3.632 -0.2384 -0.0268  0.0780
  135MOL   C21840686   4.476   6.265   3.630 -0.2898 -0.0079  0.0672
  135MOL   H21940687   3.980   6.111   3.606 -0.4960  2.3974  1.0713
  135MOL   H22040688   4.152   6.108   3.556  0.8589 -0.8318  0.6930
  135MOL   H22140689   4.070   6.186   3.914 -0.6521  0.6515  2.5796
  135MOL   H22240690   4.044   6.357   3.911 -1.4170  1.1487 -0.4258
  135MOL   H22340691   3.928   6.248   3.828  0.6875  0.9463  0.8556
  135MOL   H22440692   4.508   6.180   3.569 -0.0700  0.6049 -0.6725
  135MOL   H22540693   4.518   6.243   3.728  3.3266 -1.0066 -1.6046
  135MOL   H22640694   4.512   6.362   3.595 -0.8212 -0.5858 -2.2218
  135MOL   C22740695   4.064   6.360   3.608  0.7486  0.1718  0.3334
  135MOL   C22840696   4.010   6.505   3.648  0.0575 -0.4903 -0.5513
  135MOL   C22940697   3.858   6.493   3.677 -0.2611 -0.4951 -0.6165
  135MOL   C23040698   4.086   6.575   3.761 -0.2147  0.2864  0.0354
  135MOL   O23140699   4.034   6.608   3.870 -0.5443 -0.3497  0.2991
  135MOL   O23240700   4.219   6.585   3.735  0.6484 -0.1253  0.0140
  135MOL   C23340701   4.291   6.662   3.824 -0.1547  0.5314 -0.1632
  135MOL   H23440702   4.010   6.312   3.527  0.8774 -0.2675  0.5071
  135MOL   H23540703   4.152   6.378   3.546  0.5687  0.7753  0.2516
  135MOL   H23640704   3.810   6.573   3.733  1.4194  1.3214 -1.7041
  135MOL   H23740705   3.812   6.493   3.579 -0.2146 -1.4182 -0.6482
  135MOL   H23840706   3.834   6.392   3.712  1.9951 -1.3608 -1.4361
  135MOL   H23940707   4.238   6.756   3.840 -2.6472 -1.0293  1.1827
  135MOL   H24040708   4.392   6.692   3.794 -0.7471  0.9724 -1.7542
  135MOL   H24140709   4.290   6.610   3.920  0.8387 -0.3401 -0.6083
  135MOL   C24240710   4.034   6.585   3.513  0.2820 -0.6108  0.8000
  135MOL   C24340711   4.004   6.738   3.490 -0.1186 -0.4960 -0.2576
  135MOL   C24440712   3.991   6.745   3.338  0.0522 -0.5558  0.3549
  135MOL   C24540713   3.861   6.769   3.547 -0.2781  0.5480  0.1126
  135MOL   O24640714   3.759   6.736   3.479  0.8158 -0.3391 -0.6134
  135MOL   O24740715   3.865   6.822   3.664  0.0101  0.0024 -0.3442
  135MOL   C24840716   3.744   6.863   3.726 -0.1358  0.3180  0.3163
  135MOL   H24940717   3.991   6.526   3.433 -1.2296  1.2455  0.1872
  135MOL   H25040718   4.142   6.588   3.501  0.0799  0.9383 -0.8957
  135MOL   H25140719   3.968   6.845   3.302 -0.6256  0.0422  2.3582
  135MOL   H25240720   4.087   6.733   3.287  0.1913 -1.2022  0.7527
  135MOL   H25340721   3.918   6.674   3.298 -0.4713 -0.3307  0.8945
  135MOL   H25440722   3.753   6.926   3.814  1.8838  0.9276 -0.3180
  135MOL   H25540723   3.678   6.780   3.753 -1.4820  0.8404 -1.2604
  135MOL   H25640724   3.697   6.941   3.666 -3.1128 -0.5738  1.3974
  135MOL   C25740725   4.118   6.832   3.551  0.1852 -0.7491  0.1544
  135MOL   C25840726   4.134   6.985   3.502  0.7463 -0.5904  0.0350
  135MOL   C25940727   3.998   7.056   3.517 -0.2024 -0.5160 -0.3379
  135MOL   C26040728   4.230   7.036   3.617  0.4420  0.2478  1.3196
  135MOL   O26140729   4.192   7.132   3.685  0.0725 -0.2489  0.0665
  135MOL   O26240730   4.345   6.970   3.636 -0.5531  0.1892 -0.2142
  135MOL   C26340731   4.438   7.018   3.725  0.0621 -1.5809 -0.2301
  135MOL   H26440732   4.221   6.797   3.542 -0.1932 -1.8555  0.0984
  135MOL   H26540733   4.098   6.839   3.658  0.5579  0.4909  0.1564
  135MOL   H26640734   3.956   7.046   3.617  0.7063  2.3459  0.3795
  135MOL   H26740735   4.000   7.164   3.504  1.9289 -0.6329 -1.2063
  135MOL   H26840736   3.915   7.029   3.452 -1.1711  0.3905  0.5101
  135MOL   H26940737   4.459   7.125   3.717  1.0912 -1.5377  2.3541
  135MOL   H27040738   4.528   6.957   3.730  1.0340 -0.3037 -1.4624
  135MOL   H27140739   4.384   7.005   3.819 -0.9277 -0.1461 -0.5786
  135MOL   C27240740   4.205   7.006   3.366  0.1926 -0.1594  0.8745
  135MOL   C27340741   4.219   7.145   3.294  0.0751 -0.1425 -0.1225
  135MOL   C27440742   4.253   7.257   3.395  0.0567  0.2123 -0.2062
  135MOL   C27540743   4.333   7.141   3.193 -0.5918  0.0129 -0.1555
  135MOL   O27640744   4.384   7.032   3.166 -0.9162 -0.1772 -0.0343
  135MOL   O27740745   4.364   7.266   3.140 -0.1948 -0.1638 -0.8144
  135MOL   C27840746   4.476   7.268   3.055  0.2407  0.1100 -0.5078
  135MOL   H27940747   4.162   6.940   3.291  2.1017 -1.8517  1.2190
  135MOL   H28040748   4.304   6.961   3.376 -0.7822 -2.6416 -0.2790
  135MOL   H28140749   4.167   7.281   3.458 -1.0656 -1.3868 -1.0696
  135MOL   H28240750   4.342   7.229   3.451 -1.1991 -0.3632  1.5724
  135MOL   H28340751   4.285   7.354   3.357  0.1280 -0.1109 -0.9845
  135MOL   H28440752   4.551   7.347   3.058 -1.9677  2.2736 -1.0913
  135MOL   H28540753   4.438   7.283   2.954 -1.2227  1.1134  0.1718
  135MOL   H28640754   4.539   7.179   3.057  0.6642  0.3571 -2.3209
  135MOL   C28740755   4.078   7.194   3.224  0.0009 -0.2952 -0.5111
  135MOL   C28840756   4.002   7.107   3.120 -0.0255  0.1491 -0.1170
  135MOL   C28940757   3.855   7.124   3.136 -0.4309 -0.7882  0.5570
  135MOL   C29040758   4.050   7.115   2.974 -0.3612  0.2871  0.4063
  135MOL   O29140759   4.121   7.038   2.923 -0.1116 -0.2746 -0.2455
  135MOL   O29240760   4.030   7.231   2.916  0.1658  0.0416 -0.5536
  135MOL   C29340761   4.058   7.249   2.783 -0.1988  1.0843  0.4158
  135MOL   H29440762   4.106   7.290   3.180 -1.0673  0.0407 -0.4608
  135MOL   H29540763   4.011   7.222   3.305 -1.2018 -1.3629 -1.1282
  135MOL   H29640764   3.828   7.121   3.242  1.3334 -0.2315  1.0410
  135MOL   H29740765   3.819   7.224   3.111 -0.6248 -1.0858 -0.3575
  135MOL   H29840766   3.818   7.046   3.069  1.6066  0.0003 -1.5564
  135MOL   H29940767   4.026   7.168   2.717  2.0313 -0.1329  0.7792
  135MOL   H30040768   4.165   7.245   2.763 -0.3533 -0.8567 -0.1639
  135MOL   H30140769   4.027   7.347   2.748 -0.2042  0.9887  0.1499
  135MOL   H30240770   4.031   7.004   3.138 -0.6634 -0.1295 -0.7075
  136MOL     C140771   2.581   3.794   5.483  0.6351  0.1667 -0.4390
  136MOL     C240772   2.620   3.697   5.373  0.3521  0.1570  1.0362
  136MOL     C340773   2.546   3.566   5.404  0.1877  0.7320  0.5650
  136MOL     C440774   2.570   3.752   5.235  0.1354  0.1565  0.2393
  136MOL     O540775   2.486   3.841   5.238 -0.6225  0.0098 -0.0209
  136MOL     O640776   2.608   3.683   5.130 -0.2173 -0.2471  0.3527
  136MOL     C740777   2.603   3.745   5.004  0.3596  0.3224 -0.1009
  136MOL     H840778   2.587   3.755   5.585 -0.4702  1.0224 -0.0385
  136MOL     H940779   2.636   3.888   5.479 -0.2749  0.6709 -1.4268
  136MOL    H1040780   2.438   3.586   5.409  0.1661  0.5871  0.7050
  136MOL    H1140781   2.564   3.484   5.334 -0.3371  1.0277  0.0766
  136MOL    H1240782   2.574   3.537   5.506  1.3704  1.1905  0.3744
  136MOL    H1340783   2.590   3.853   5.006 -1.3809  0.2027 -2.2677
  136MOL    H1440784   2.516   3.705   4.951  1.5958 -2.5709 -0.0830
  136MOL    H1540785   2.696   3.724   4.951  0.8525  0.1820  0.8249
  136MOL    H1640786   2.476   3.819   5.476  1.1925  3.4569  1.7424
  136MOL    C1740787   2.768   3.665   5.356  0.5078  0.5161  0.5873
  136MOL    C1840788   2.887   3.765   5.363 -0.5607  0.9098 -0.5951
  136MOL    C1940789   2.858   3.884   5.265 -0.2328  0.0131 -0.2797
  136MOL    C2040790   2.913   3.813   5.514  1.1375 -0.5804  0.3392
  136MOL    O2140791   2.918   3.939   5.546  0.3774 -0.2129  0.2460
  136MOL    O2240792   2.938   3.718   5.605  0.1117 -0.6328 -0.4951
  136MOL    C2340793   2.999   3.755   5.735  0.4301 -0.2259 -0.0838
  136MOL    H2440794   2.766   3.598   5.270  0.7663  1.8127 -0.4408
  136MOL    H2540795   2.797   3.595   5.435  0.3397 -0.4442 -0.1872
  136MOL    H2640796   2.844   3.852   5.162 -1.9243  0.4531 -0.2162
  136MOL    H2740797   2.768   3.935   5.301  0.0115 -0.9303  1.6914
  136MOL    H2840798   2.930   3.964   5.277 -0.6187  0.2617  0.4084
  136MOL    H2940799   3.065   3.841   5.726  0.4938 -0.5021 -2.5137
  136MOL    H3040800   3.061   3.671   5.767  3.7956  1.5974 -1.6022
  136MOL    H3140801   2.927   3.784   5.812  0.4338 -1.0572  0.2443
  136MOL    C3240802   3.015   3.688   5.313  0.5193  0.1882 -0.2937
  136MOL    C3340803   3.163   3.747   5.308 -0.1542  0.4859  0.3384
  136MOL    C3440804   3.231   3.666   5.193  0.2441  0.1275 -0.0587
  136MOL    C3540805   3.171   3.897   5.264 -0.2076  0.4126  0.2881
  136MOL    O3640806   3.173   3.930   5.144  0.0173  0.6252  0.9350
  136MOL    O3740807   3.177   3.984   5.364 -0.0631 -0.1959 -0.0746
  136MOL    C3840808   3.177   4.120   5.335  0.3232 -0.4066  0.4340
  136MOL    H3940809   2.984   3.664   5.211 -2.1409 -3.5765  1.2596
  136MOL    H4040810   3.022   3.592   5.365 -2.8700 -0.8370 -1.6010
  136MOL    H4140811   3.322   3.715   5.160 -0.0046  0.3499 -0.4132
  136MOL    H4240812   3.249   3.566   5.233  0.9092 -0.0294 -0.7358
  136MOL    H4340813   3.178   3.669   5.098  0.4033 -3.2735 -0.3260
  136MOL    H4440814   3.117   4.159   5.417 -1.7105 -2.7509  0.1498
  136MOL    H4540815   3.111   4.153   5.255 -0.1270  0.5422  1.1890
  136MOL    H4640816   3.276   4.164   5.337  0.8883 -1.7173  1.6052
  136MOL    C4740817   3.240   3.721   5.442 -0.2385 -0.2022  0.1235
  136MOL    C4840818   3.396   3.739   5.473  0.2855  0.2239  0.0834
  136MOL    C4940819   3.407   3.752   5.630  0.3112 -0.2457  0.8485
  136MOL    C5040820   3.469   3.607   5.441 -0.6092 -0.4543  0.2804
  136MOL    O5140821   3.505   3.538   5.528 -0.1134  0.1993 -0.4332
  136MOL    O5240822   3.489   3.583   5.306 -0.2913 -0.0946 -0.4785
  136MOL    C5340823   3.567   3.469   5.265  0.1207  0.3547  0.2985
  136MOL    H5440824   3.216   3.619   5.473  0.1973 -0.9335 -1.8874
  136MOL    H5540825   3.182   3.774   5.518  1.0229 -0.7851  1.5254
  136MOL    H5640826   3.512   3.745   5.656  0.5196  0.2563  0.1671
  136MOL    H5740827   3.358   3.844   5.665 -0.7950 -1.4586  2.5551
  136MOL    H5840828   3.357   3.675   5.688 -1.3934  0.6506  0.6261
  136MOL    H5940829   3.528   3.459   5.163 -0.6502  3.4030  0.2503
  136MOL    H6040830   3.564   3.385   5.334  1.4074  0.6019  0.6597
  136MOL    H6140831   3.672   3.496   5.266  0.8175 -2.1187 -1.3812
  136MOL    C6240832   3.463   3.871   5.408  0.2667 -0.0481 -0.0742
  136MOL    C6340833   3.611   3.917   5.431  0.5569 -0.1517 -0.4786
  136MOL    C6440834   3.702   3.790   5.413  0.1363 -0.8759 -0.0044
  136MOL    C6540835   3.625   4.009   5.302  0.7356  0.2941 -0.6149
  136MOL    O6640836   3.701   3.980   5.213  0.3668 -0.2386  0.1981
  136MOL    O6740837   3.543   4.111   5.304  0.7934 -0.0534  0.5597
  136MOL    C6840838   3.536   4.194   5.189  0.0234  0.0137  0.4267
  136MOL    H6940839   3.399   3.956   5.430 -0.8896 -0.3075 -2.2592
  136MOL    H7040840   3.449   3.848   5.302  1.0210  1.1780 -0.4488
  136MOL    H7140841   3.684   3.717   5.334 -0.1134 -1.4718  0.5942
  136MOL    H7240842   3.807   3.814   5.397  0.0101 -0.6813 -0.5509
  136MOL    H7340843   3.711   3.732   5.505 -0.3008 -2.1278 -0.7274
  136MOL    H7440844   3.632   4.240   5.165 -0.1836  0.1805 -0.0899
  136MOL    H7540845   3.465   4.274   5.208 -0.0288 -0.2649  1.4195
  136MOL    H7640846   3.501   4.146   5.097  0.5213  0.9230 -0.2433
  136MOL    C7740847   3.640   4.000   5.560 -0.2088 -0.6471 -0.5575
  136MOL    C7840848   3.789   4.039   5.609 -0.7686 -0.0170  0.1230
  136MOL    C7940849   3.850   3.910   5.682  0.0748 -0.4657  0.3937
  136MOL    C8040850   3.877   4.070   5.494  0.2705 -0.5245 -0.3384
  136MOL    O8140851   3.970   3.999   5.455  0.0245  0.6836  0.4752
  136MOL    O8240852   3.833   4.184   5.428 -0.4566 -0.1913  0.5376
  136MOL    C8340853   3.902   4.229   5.314  0.3578  0.3280 -0.3002
  136MOL    H8440854   3.591   3.958   5.648  1.3255 -1.6616 -0.1508
  136MOL    H8540855   3.584   4.093   5.559 -0.4150 -0.7689 -0.1500
  136MOL    H8640856   3.912   3.914   5.771 -0.9375 -1.9257  1.1922
  136MOL    H8740857   3.763   3.855   5.717 -0.1147  0.7053  1.7884
  136MOL    H8840858   3.891   3.837   5.611 -2.2577 -2.6806  1.2148
  136MOL    H8940859   3.932   4.148   5.247  1.4251  0.0889  0.4506
  136MOL    H9040860   3.988   4.279   5.357  0.4414  1.3972 -1.6496
  136MOL    H9140861   3.852   4.311   5.262 -2.2595  0.0572  1.6757
  136MOL    C9240862   3.776   4.164   5.702 -0.2295 -0.2096  0.5105
  136MOL    C9340863   3.902   4.240   5.764  0.3903  0.5823  0.2562
  136MOL    C9440864   4.019   4.142   5.802  0.2433 -0.1928  0.1385
  136MOL    C9540865   3.961   4.341   5.662  0.8508 -0.4345 -0.0660
  136MOL    O9640866   4.072   4.338   5.618 -0.3150  1.0615 -0.5711
  136MOL    O9740867   3.867   4.435   5.624  0.2019  0.3880 -0.0713
  136MOL    C9840868   3.899   4.547   5.540 -0.1507  0.6370 -0.0638
  136MOL    H9940869   3.722   4.120   5.785  1.2451 -2.3564  0.3800
  136MOL   H10040870   3.702   4.236   5.666 -0.4546 -1.5262 -1.7571
  136MOL   H10140871   3.984   4.089   5.890 -1.6636  1.9407  0.6994
  136MOL   H10240872   4.042   4.067   5.726 -0.8681  2.3919 -2.8606
  136MOL   H10340873   4.116   4.189   5.818  0.1066  0.2776 -0.3700
  136MOL   H10440874   3.808   4.593   5.501 -0.2459  1.4317  1.0830
  136MOL   H10540875   3.958   4.513   5.454 -0.3704  0.2759 -0.0757
  136MOL   H10640876   3.962   4.616   5.596  0.6720 -0.5043  0.4327
  136MOL   C10740877   3.853   4.313   5.893 -0.4363 -0.5875  0.1478
  136MOL   C10840878   3.936   4.429   5.974 -0.4864  0.6369  0.3163
  136MOL   C10940879   4.090   4.389   5.984  0.1171  0.0545 -0.2014
  136MOL   C11040880   3.919   4.558   5.897 -0.2900 -0.1960 -0.2852
  136MOL   O11140881   4.013   4.614   5.843 -0.3644  0.5538 -0.1352
  136MOL   O11240882   3.792   4.602   5.896  0.1544 -0.2775 -0.0445
  136MOL   C11340883   3.763   4.718   5.815 -0.1778  0.2009 -0.2639
  136MOL   H11440884   3.840   4.230   5.962 -1.0177  0.6024  1.5077
  136MOL   H11540885   3.755   4.355   5.870  0.7670  0.2873 -3.7613
  136MOL   H11640886   4.147   4.382   5.892 -0.5524  2.5912 -0.8382
  136MOL   H11740887   4.141   4.472   6.033  0.8607 -0.8949  0.6676
  136MOL   H11840888   4.107   4.300   6.044 -1.9683 -1.2611 -1.5104
  136MOL   H11940889   3.671   4.771   5.839  0.4179  1.5925 -0.9913
  136MOL   H12040890   3.761   4.677   5.714 -1.4631 -1.6351  0.4670
  136MOL   H12140891   3.855   4.775   5.805 -1.7349  2.6637 -1.1607
  136MOL   C12240892   3.878   4.429   6.120 -0.2029  0.1716 -1.1887
  136MOL   C12340893   3.877   4.548   6.232 -0.8500 -0.4944 -0.5471
  136MOL   C12440894   4.023   4.584   6.259  0.3278 -0.5774  0.4643
  136MOL   C12540895   3.796   4.668   6.186 -0.7607 -0.1300 -0.1179
  136MOL   O12640896   3.848   4.782   6.173  0.6031 -0.1205  0.4646
  136MOL   O12740897   3.667   4.639   6.151 -0.0615  0.2190  0.2888
  136MOL   C12840898   3.580   4.751   6.113 -0.5825 -0.1936  0.3320
  136MOL   H12940899   3.931   4.345   6.164  2.4256  1.5749 -1.5611
  136MOL   H13040900   3.773   4.404   6.108 -0.9940  3.5084 -1.8532
  136MOL   H13140901   4.070   4.646   6.183 -1.9840 -0.0332 -0.5571
  136MOL   H13240902   4.039   4.641   6.351  1.1597  1.5228 -0.9538
  136MOL   H13340903   4.088   4.497   6.266  1.2261  0.2049  2.2419
  136MOL   H13440904   3.584   4.767   6.006 -1.6962  0.4419  0.3789
  136MOL   H13540905   3.596   4.851   6.153 -0.6534 -1.0574  2.6166
  136MOL   H13640906   3.476   4.728   6.137 -0.0983 -0.5244  2.2674
  136MOL   C13740907   3.818   4.487   6.360 -0.2158 -0.7709 -0.1495
  136MOL   C13840908   3.754   4.563   6.484  0.1697 -0.5871  0.1490
  136MOL   C13940909   3.837   4.698   6.524 -0.3055  0.2131  0.5431
  136MOL   C14040910   3.606   4.608   6.451  0.0036 -0.9006  0.6941
  136MOL   O14140911   3.571   4.724   6.478 -0.2293  0.3303  0.3019
  136MOL   O14240912   3.521   4.502   6.418 -0.3476 -0.1257  0.3442
  136MOL   C14340913   3.382   4.509   6.436  0.2059 -0.2249 -0.2838
  136MOL   H14440914   3.892   4.415   6.395  1.6898 -0.1597 -2.7881
  136MOL   H14540915   3.741   4.417   6.330 -0.3506 -0.9072  0.5056
  136MOL   H14640916   3.836   4.769   6.442  3.2879  0.3426  0.5684
  136MOL   H14740917   3.787   4.747   6.608  1.3494  0.8861  1.1551
  136MOL   H14840918   3.941   4.690   6.555  0.0747  0.2703 -0.7209
  136MOL   H14940919   3.333   4.418   6.400  1.3459 -0.1602 -2.0587
  136MOL   H15040920   3.357   4.601   6.384 -0.0028 -1.6661 -2.8258
  136MOL   H15140921   3.355   4.530   6.539 -1.6124 -1.3250 -0.5103
  136MOL   C15240922   3.741   4.450   6.597 -0.4783  0.3596 -0.6836
  136MOL   C15340923   3.693   4.467   6.744 -0.2975 -0.8571 -0.7977
  136MOL   C15440924   3.577   4.561   6.766  0.3409  0.2681 -0.7389
  136MOL   C15540925   3.642   4.325   6.789  0.0843 -0.6675 -0.1887
  136MOL   O15640926   3.544   4.308   6.862  0.8468 -0.0340  0.6475
  136MOL   O15740927   3.714   4.223   6.740  0.0869 -0.0735  0.2242
  136MOL   C15840928   3.684   4.095   6.785  0.0617 -0.2614  0.2478
  136MOL   H15940929   3.837   4.397   6.595  0.8564  2.6602  0.5256
  136MOL   H16040930   3.663   4.385   6.558  0.2577 -1.9346  1.4757
  136MOL   H16140931   3.550   4.572   6.872  2.1719 -0.0388 -0.2339
  136MOL   H16240932   3.600   4.665   6.745  2.8638  0.0762  0.8922
  136MOL   H16340933   3.480   4.533   6.724 -0.2458 -0.8136  1.2146
  136MOL   H16440934   3.704   4.032   6.698  0.9770 -0.4495  0.5916
  136MOL   H16540935   3.583   4.065   6.813 -0.2213  1.1491  0.7681
  136MOL   H16640936   3.752   4.069   6.866 -0.2789  1.5010  1.1184
  136MOL   C16740937   3.821   4.494   6.832  0.0121 -0.0583  0.6061
  136MOL   C16840938   3.828   4.566   6.973  0.7242 -0.1718 -0.0223
  136MOL   C16940939   3.977   4.586   7.000 -0.5434  0.7554  0.3499
  136MOL   C17040940   3.763   4.709   6.970 -0.0565 -1.0363  0.6408
  136MOL   O17140941   3.656   4.742   7.022 -0.6831  0.2836  0.5187
  136MOL   O17240942   3.842   4.791   6.893 -0.2111 -0.5725 -0.2840
  136MOL   C17340943   3.783   4.916   6.854  0.0023  0.2416  0.0460
  136MOL   H17440944   3.880   4.564   6.773  0.1369 -0.5629  0.1265
  136MOL   H17540945   3.886   4.406   6.836  1.1151  0.7720  0.9562
  136MOL   H17640946   4.029   4.630   6.916 -0.6526  0.8543  0.3347
  136MOL   H17740947   3.991   4.631   7.099  2.1516 -0.6042  0.6633
  136MOL   H17840948   4.033   4.493   7.012  1.5730  1.5526 -2.7451
  136MOL   H17940949   3.687   4.890   6.810  1.0029 -3.0604 -0.2656
  136MOL   H18040950   3.841   4.958   6.772  1.8243 -0.9109  0.7330
  136MOL   H18140951   3.763   4.994   6.928  2.2354  0.7566  0.1576
  136MOL   C18240952   3.751   4.487   7.086 -0.3303 -0.1769  0.1217
  136MOL   C18340953   3.808   4.364   7.168 -0.8950  0.3337  0.9263
  136MOL   C18440954   3.856   4.260   7.071  0.1292  1.0920 -0.0968
  136MOL   C18540955   3.926   4.402   7.257 -0.1356 -0.3720  0.1291
  136MOL   O18640956   4.023   4.328   7.288  0.2152 -0.2076 -0.1307
  136MOL   O18740957   3.913   4.528   7.311  0.1334 -0.4678  0.1035
  136MOL   C18840958   4.007   4.567   7.406  0.3118 -0.1696  0.3209
  136MOL   H18940959   3.649   4.473   7.051 -0.0722  0.4104 -0.9153
  136MOL   H19040960   3.740   4.553   7.171  0.8542  0.2295 -0.0364
  136MOL   H19140961   3.769   4.226   7.014  0.2804 -1.9663  1.3980
  136MOL   H19240962   3.936   4.299   7.009  0.0822  0.3749 -0.6205
  136MOL   H19340963   3.905   4.169   7.107 -1.0224  0.6491  0.3923
  136MOL   H19440964   3.957   4.640   7.469  0.5703 -0.5510  0.9784
  136MOL   H19540965   4.089   4.611   7.349  0.0582 -1.6037 -1.1768
  136MOL   H19640966   4.037   4.490   7.477  1.4870 -0.8747 -0.9179
  136MOL   C19740967   3.688   4.322   7.270 -0.7062 -0.8096  0.2918
  136MOL   C19840968   3.673   4.178   7.336 -0.7193 -0.9299 -0.0198
  136MOL   C19940969   3.638   4.078   7.220 -0.1192  0.4898 -0.4691
  136MOL   C20040970   3.811   4.125   7.387 -0.6247  0.5190  0.3077
  136MOL   O20140971   3.847   4.012   7.352 -0.1735 -0.4401 -0.0457
  136MOL   O20240972   3.864   4.193   7.482  0.1983  0.2827  0.2610
  136MOL   C20340973   3.984   4.143   7.537  0.4404 -0.3862 -0.2275
  136MOL   H20440974   3.603   4.331   7.202  0.6008 -1.7683 -1.4928
  136MOL   H20540975   3.675   4.404   7.342 -2.6388  1.4691 -2.5434
  136MOL   H20640976   3.620   3.976   7.252  0.3864  0.9361  1.3341
  136MOL   H20740977   3.544   4.107   7.174 -0.8918  0.4526  1.0508
  136MOL   H20840978   3.709   4.073   7.137 -0.5058  2.6464 -0.9613
  136MOL   H20940979   4.048   4.088   7.468  0.3449 -0.2511 -0.4204
  136MOL   H21040980   3.952   4.068   7.610 -0.0775 -0.0216 -0.0773
  136MOL   H21140981   4.034   4.223   7.590 -0.9520  0.3791 -0.0382
  136MOL   C21240982   3.554   4.191   7.446 -0.1867 -0.4066 -0.6896
  136MOL   C21340983   3.510   4.097   7.555 -0.5217  0.3021 -0.2806
  136MOL   C21440984   3.497   3.953   7.496 -0.1615 -0.7920  0.5987
  136MOL   C21540985   3.620   4.111   7.666  0.6222 -0.0511  0.6640
  136MOL   O21640986   3.699   4.020   7.691  0.0699  0.0219 -0.8793
  136MOL   O21740987   3.605   4.217   7.737 -0.2712 -0.6968 -0.1851
  136MOL   C21840988   3.705   4.240   7.846  0.2504  0.1337 -0.2430
  136MOL   H21940989   3.468   4.208   7.381  1.2441  0.2087 -2.4723
  136MOL   H22040990   3.575   4.287   7.494  1.8132  1.2073 -4.4840
  136MOL   H22140991   3.405   3.945   7.438 -0.7312  0.4007  1.3299
  136MOL   H22240992   3.581   3.907   7.443  1.7851  1.8118  1.3630
  136MOL   H22340993   3.485   3.876   7.573 -0.3862  0.7351  2.1026
  136MOL   H22440994   3.802   4.203   7.813 -0.2264 -1.2227 -0.1772
  136MOL   H22540995   3.674   4.179   0.053 -0.6334  3.3808  1.8369
  136MOL   H22640996   3.708   4.346   7.872  0.2995  0.4706 -1.5512
  136MOL   C22740997   3.368   4.147   7.606 -0.4903 -0.0534  0.1555
  136MOL   C22840998   3.273   4.064   7.706 -0.4455  0.4250  0.0959
  136MOL   C22940999   3.174   4.167   7.775  0.0638  0.3528 -0.6039
  136MOL   C23041000   3.190   3.971   7.615 -0.2672 -0.1398 -0.1548
  136MOL   O23141001   3.229   3.858   7.581  0.1593 -0.1365 -0.4447
  136MOL   O23241002   3.073   4.025   7.579 -0.1843  0.0895  0.1928
  136MOL   C23341003   2.986   3.948   7.497  0.0424  0.1594 -0.3242
  136MOL   H23441004   3.308   4.176   7.519  0.4058  0.1717 -0.3987
  136MOL   H23541005   3.377   4.245   7.653 -0.7147  0.7580 -1.4355
  136MOL   H23641006   3.218   4.213   7.864  0.7408  0.2243 -0.8676
  136MOL   H23741007   3.148   4.245   7.704  0.7765  0.1684 -1.0805
  136MOL   H23841008   3.073   4.132   7.796 -0.8580  2.0155 -2.0885
  136MOL   H23941009   2.933   3.871   7.553 -0.4009  1.0783  0.5374
  136MOL   H24041010   3.039   3.899   7.415  2.0581  2.6294 -0.5406
  136MOL   H24141011   2.907   4.011   7.457 -0.5766 -0.7204 -0.4968
  136MOL   C24241012   3.367   3.994   7.818  0.1952  0.1597 -0.5525
  136MOL   C24341013   3.309   3.898   0.060  0.4829 -0.3887 -0.0096
  136MOL   C24441014   3.196   3.970   0.142  0.1473 -0.5789  0.6084
  136MOL   C24541015   3.256   3.766   0.011 -0.1849 -0.7497 -0.6214
  136MOL   O24641016   3.142   3.724   0.032 -0.0692 -0.0043 -0.3265
  136MOL   O24741017   3.349   3.706   7.809 -0.5154 -0.0349 -0.1169
  136MOL   C24841018   3.310   3.580   7.750  0.4352 -0.5527 -0.1636
  136MOL   H24941019   3.417   4.072   7.876  2.2812 -1.5745  0.0442
  136MOL   H25041020   3.447   3.947   7.761  0.6284 -1.3454  1.2582
  136MOL   H25141021   3.102   3.968   0.088  0.0082 -1.2636  0.8718
  136MOL   H25241022   3.165   3.924   0.236  0.7517 -1.3557  0.4335
  136MOL   H25341023   3.224   4.070   0.175 -0.2012 -0.5075  0.6832
  136MOL   H25441024   3.223   3.597   7.686  0.8814  1.0651 -0.3882
  136MOL   H25541025   3.276   3.505   7.820  0.3865 -0.5946 -0.2319
  136MOL   H25641026   3.394   3.539   7.694 -0.1841  1.4535 -2.6529
  136MOL   C25741027   3.434   3.876   0.155 -0.1513 -0.2671 -0.4643
  136MOL   C25841028   3.434   3.828   0.304  1.0759 -0.0122 -0.4969
  136MOL   C25941029   3.416   3.950   0.397 -0.0150  0.4532  0.0549
  136MOL   C26041030   3.320   3.715   0.323 -0.0764 -0.6911 -0.0406
  136MOL   O26141031   3.217   3.734   0.388 -0.0867  0.3096  0.1476
  136MOL   O26241032   3.347   3.597   0.263 -0.3462  0.2067 -0.1740
  136MOL   C26341033   3.275   3.485   0.291  0.3047 -0.8351  0.4004
  136MOL   H26441034   3.469   3.979   0.165 -1.6206  0.3673 -1.6553
  136MOL   H26541035   3.506   3.818   0.098 -0.3094 -1.2893  0.3691
  136MOL   H26641036   3.489   4.028   0.373 -1.1001  1.3710 -0.2776
  136MOL   H26741037   3.318   3.990   0.373 -0.4077 -0.9547 -0.7152
  136MOL   H26841038   3.424   3.927   0.503  1.9151  0.4447 -0.0658
  136MOL   H26941039   3.214   3.490   0.382 -2.4716 -1.1122 -1.3877
  136MOL   H27041040   3.344   3.400   0.294 -0.5365 -1.6226 -1.5847
  136MOL   H27141041   3.202   3.477   0.211 -0.6740  0.1367  1.1664
  136MOL   C27241042   3.569   3.749   0.347 -0.6031  0.5916  0.7710
  136MOL   C27341043   3.709   3.819   0.369  0.0174  0.3385 -0.1582
  136MOL   C27441044   3.734   3.910   0.244  0.8133 -0.1873 -1.1561
  136MOL   C27541045   3.711   3.902   0.499 -0.3233 -0.1651  0.1405
  136MOL   O27641046   3.737   4.022   0.490  0.1637  0.2409 -0.0687
  136MOL   O27741047   3.675   3.842   0.607 -0.2690  0.5696  0.0749
  136MOL   C27841048   3.698   3.911   0.727  0.3254  0.4838  0.1790
  136MOL   H27941049   3.581   3.676   0.267  0.4106  1.2853  0.2748
  136MOL   H28041050   3.550   3.693   0.438  0.2306  1.0333  1.2279
  136MOL   H28141051   3.736   3.866   0.144  2.7773 -1.4258 -0.6003
  136MOL   H28241052   3.654   3.983   0.232 -0.4293 -1.3383  0.0475
  136MOL   H28341053   3.826   3.968   0.251 -0.7478  2.0213  2.2053
  136MOL   H28441054   3.615   3.874   0.788  2.1434  0.9944  3.0596
  136MOL   H28541055   3.688   4.020   0.731  4.3263  0.8745  1.9893
  136MOL   H28641056   3.792   3.885   0.776  0.0475  2.3637  1.7901
  136MOL   C28741057   3.817   3.704   0.373 -1.1727  0.1240 -0.1291
  136MOL   C28841058   3.955   3.751   0.428 -0.3794  0.7387 -0.0804
  136MOL   C28941059   3.993   3.672   0.570 -0.4067 -0.5560  0.1870
  136MOL   C29041060   4.070   3.734   0.317 -0.2458  0.0324 -0.6433
  136MOL   O29141061   4.116   3.832   0.263  0.4835  0.0422 -0.2367
  136MOL   O29241062   4.103   3.607   0.290  0.0170 -0.2020  0.7146
  136MOL   C29341063   4.212   3.583   0.200  0.6196 -0.6780  0.3081
  136MOL   H29441064   3.828   3.668   0.270 -0.3159 -0.2466  0.0842
  136MOL   H29541065   3.783   3.615   0.426  0.0183  0.7902  1.7932
  136MOL   H29641066   3.959   3.568   0.576  0.9210 -1.1649 -2.1928
  136MOL   H29741067   4.097   3.686   0.597 -0.4168  0.5413 -0.3353
  136MOL   H29841068   3.925   3.706   0.648 -0.1552 -1.3175  0.7397
  136MOL   H29941069   4.188   3.623   0.102  0.0914  0.7268  0.9998
  136MOL   H30041070   4.229   3.476   0.189  3.4991 -0.0331 -2.0635
  136MOL   H30141071   4.301   3.631   0.241 -1.0882  0.1105  3.2832
  136MOL   H30241072   3.961   3.858   0.447  1.3143  0.7622 -0.6127
  137MOL     C141073   6.665   5.694   3.547  0.1168  0.0617  0.2592
  137MOL     C241074   6.529   5.716   3.623 -0.3915 -0.3127  0.2530
  137MOL     C341075   6.511   5.865   3.663  0.0478 -0.6968 -0.0639
  137MOL     C441076   6.407   5.673   3.541 -0.4624  0.1483 -0.0940
  137MOL     O541077   6.410   5.671   3.419 -0.5723 -0.1274  0.4885
  137MOL     O641078   6.291   5.653   3.613  0.1033  0.1042 -0.1804
  137MOL     C741079   6.180   5.608   3.541  0.1933 -0.4916  0.3806
  137MOL     H841080   6.676   5.589   3.522 -3.3676 -0.6197  1.2864
  137MOL     H941081   6.663   5.749   3.454 -2.6122 -1.0694 -0.4144
  137MOL    H1041082   6.479   5.923   3.576 -1.8587 -0.7643  0.5674
  137MOL    H1141083   6.440   5.880   3.744 -1.8784 -0.5538 -1.7282
  137MOL    H1241084   6.609   5.910   3.680  0.7506 -1.8046 -1.1086
  137MOL    H1341085   6.096   5.625   3.609  0.2300  1.8953 -0.1358
  137MOL    H1441086   6.185   5.502   3.515 -0.8559 -0.7033  1.0230
  137MOL    H1541087   6.151   5.675   3.460 -0.5451  0.3732  1.3433
  137MOL    H1641088   6.751   5.714   3.612 -1.0853  0.5089  1.7487
  137MOL    C1741089   6.527   5.635   3.764 -0.6494 -0.2293 -0.0674
  137MOL    C1841090   6.569   5.483   3.785 -0.2085  0.4813 -0.3866
  137MOL    C1941091   6.499   5.394   3.673  0.0757  0.4757 -0.0392
  137MOL    C2041092   6.722   5.468   3.789  0.2403  0.1767 -0.9102
  137MOL    O2141093   6.790   5.565   3.811 -0.5236  0.0010  0.0511
  137MOL    O2241094   6.772   5.346   3.750 -0.1509 -0.5720 -0.4051
  137MOL    C2341095   6.914   5.328   3.775  0.4138 -0.0568 -0.0283
  137MOL    H2441096   6.431   5.656   3.812  0.0162  1.0547  0.7366
  137MOL    H2541097   6.589   5.693   3.831 -1.0311 -0.9667  0.9298
  137MOL    H2641098   6.392   5.389   3.690 -0.0323  0.5878 -0.6751
  137MOL    H2741099   6.511   5.428   3.570  0.9703  0.2650 -0.0107
  137MOL    H2841100   6.525   5.290   3.693 -0.4066 -0.0224 -1.8644
  137MOL    H2941101   6.978   5.377   3.702  0.0421 -1.6002 -1.4312
  137MOL    H3041102   6.938   5.222   3.786  0.7691  0.1233  0.9771
  137MOL    H3141103   6.933   5.376   3.871 -2.3469  1.2327 -0.0852
  137MOL    C3241104   6.522   5.454   3.939 -0.1421  0.3545 -0.7821
  137MOL    C3341105   6.537   5.313   4.014 -0.7057 -0.6221 -0.1030
  137MOL    C3441106   6.689   5.269   4.024  0.7645  0.4429 -0.2883
  137MOL    C3541107   6.486   5.353   4.158 -0.5932  0.5403 -0.4761
  137MOL    O3641108   6.564   5.346   4.254 -0.4154 -0.3554  0.4703
  137MOL    O3741109   6.362   5.410   4.172  0.2498  0.3898 -0.0040
  137MOL    C3841110   6.327   5.454   4.304  0.2410 -0.3570 -0.8578
  137MOL    H3941111   6.415   5.474   3.943 -0.8369 -3.2809  0.8880
  137MOL    H4041112   6.566   5.534   3.998  0.7521 -1.7160  1.4059
  137MOL    H4141113   6.761   5.349   4.032  1.5454 -0.3473  0.7437
  137MOL    H4241114   6.705   5.202   4.109 -1.2872 -0.1374 -0.3290
  137MOL    H4341115   6.712   5.214   3.932 -0.0085  0.8181 -0.7127
  137MOL    H4441116   6.341   5.385   4.386 -0.4355 -0.7009 -1.0305
  137MOL    H4541117   6.228   5.498   4.292 -0.4586 -1.8035 -0.4022
  137MOL    H4641118   6.400   5.533   4.321 -0.0105  0.3320 -2.8043
  137MOL    C4741119   6.459   5.197   3.942  0.0303  0.6348 -1.0071
  137MOL    C4841120   6.409   5.071   4.020  0.0079  0.0711  0.0425
  137MOL    C4941121   6.520   5.010   4.112 -0.0202 -0.4845  0.3964
  137MOL    C5041122   6.293   5.113   4.109  0.4301 -0.3528  0.4440
  137MOL    O5141123   6.290   5.091   4.229  0.4039 -0.1958  0.0638
  137MOL    O5241124   6.201   5.178   4.037 -0.0458  0.0197 -0.5213
  137MOL    C5341125   6.076   5.205   4.092  0.1678  0.0624 -0.5363
  137MOL    H5441126   6.527   5.159   3.866 -0.1880 -0.1893 -0.7949
  137MOL    H5541127   6.374   5.242   3.891  0.6151  0.8686 -1.7836
  137MOL    H5641128   6.612   4.982   4.061 -0.4829  0.5643 -1.0380
  137MOL    H5741129   6.534   5.088   4.188  0.1685  1.6436 -1.7723
  137MOL    H5841130   6.492   4.924   4.173  2.2378 -1.1588  0.5094
  137MOL    H5941131   6.076   5.193   4.201  3.4437 -0.9958 -0.5877
  137MOL    H6041132   5.999   5.140   4.052  0.9244 -0.7455 -0.7044
  137MOL    H6141133   6.053   5.307   4.061  1.3815  0.5366  0.0854
  137MOL    C6241134   6.355   4.956   3.932 -0.3750 -0.3245  0.1980
  137MOL    C6341135   6.426   4.887   3.808 -0.6126  0.8855  0.2109
  137MOL    C6441136   6.441   4.985   3.692  0.2341 -0.3672 -0.8541
  137MOL    C6541137   6.562   4.830   3.845 -0.1169  0.7223 -0.1188
  137MOL    O6641138   6.660   4.847   3.770  0.8590 -0.3705  0.1965
  137MOL    O6741139   6.570   4.752   3.958  0.3110  0.0967 -0.0633
  137MOL    C6841140   6.682   4.678   3.978  0.0883 -0.2417  0.1396
  137MOL    H6941141   6.262   4.985   3.882 -0.2666  0.1212  0.2543
  137MOL    H7041142   6.332   4.876   4.003  0.9779  0.1090  1.1317
  137MOL    H7141143   6.352   5.048   3.683  0.1596 -0.2218  0.8834
  137MOL    H7241144   6.524   5.055   3.686 -0.1532  0.3908  2.0493
  137MOL    H7341145   6.459   4.932   3.598  0.9134  1.2368 -1.6487
  137MOL    H7441146   6.688   4.650   4.083 -0.6781 -0.3149  0.1656
  137MOL    H7541147   6.774   4.729   3.949 -0.1162  0.9299  1.4970
  137MOL    H7641148   6.675   4.591   3.911 -2.9795  0.6024 -0.7073
  137MOL    C7741149   6.328   4.770   3.749  0.0441 -0.3487 -0.0865
  137MOL    C7841150   6.290   4.624   3.804 -0.0702 -0.1835 -0.1090
  137MOL    C7941151   6.400   4.529   3.750  0.2352  0.7006  0.0658
  137MOL    C8041152   6.280   4.625   3.955  0.5115  0.3119  0.0800
  137MOL    O8141153   6.189   4.694   4.008  0.5131 -0.2486 -0.4497
  137MOL    O8241154   6.370   4.555   4.024  0.2146 -0.2365 -0.0847
  137MOL    C8341155   6.364   4.545   4.163 -0.1528 -0.2384  0.3562
  137MOL    H8441156   6.369   4.750   3.650  1.4932 -2.7977  0.9742
  137MOL    H8541157   6.236   4.820   3.717 -0.2811 -1.3558 -0.7672
  137MOL    H8641158   6.404   4.429   3.795  1.6153  1.3473  1.4107
  137MOL    H8741159   6.385   4.508   3.644  0.4396 -0.1007  0.1915
  137MOL    H8841160   6.501   4.569   3.758  0.6517 -0.3764  0.2699
  137MOL    H8941161   6.410   4.451   4.191 -2.4605 -1.7550 -0.7583
  137MOL    H9041162   6.263   4.521   4.195 -0.5323 -1.3565 -1.6217
  137MOL    H9141163   6.409   4.627   4.219 -0.7055  1.5139 -1.7044
  137MOL    C9241164   6.151   4.579   3.739 -0.5088  0.0245 -0.3405
  137MOL    C9341165   6.079   4.447   3.785 -0.4537  0.2527 -0.2921
  137MOL    C9441166   6.165   4.322   3.803  0.1618 -0.1226  0.5391
  137MOL    C9541167   6.006   4.470   3.923 -0.0596 -0.3143  0.0811
  137MOL    O9641168   5.918   4.552   3.927  0.5316  0.1936 -0.7303
  137MOL    O9741169   6.037   4.388   4.016  0.8232  0.1623  0.0839
  137MOL    C9841170   5.998   4.403   4.151 -0.0530  0.9612  0.0159
  137MOL    H9941171   6.162   4.591   3.631  0.1577  2.1447 -0.0655
  137MOL   H10041172   6.083   4.663   3.759 -0.5102  0.3016 -1.4913
  137MOL   H10141173   6.238   4.317   3.722  0.0077  1.2288  0.2930
  137MOL   H10241174   6.219   4.328   3.898  2.8670 -2.9024 -0.7255
  137MOL   H10341175   6.112   4.228   3.817 -1.0290  0.2362 -1.3680
  137MOL   H10441176   6.031   4.330   4.225 -1.8763 -0.5024 -0.5886
  137MOL   H10541177   5.890   4.399   4.162  0.1488  0.7282  2.1375
  137MOL   H10641178   6.037   4.500   4.182  1.0961 -0.3641  2.9109
  137MOL   C10741179   5.969   4.423   3.684 -0.0317 -0.1683  0.8701
  137MOL   C10841180   5.973   4.343   3.539  0.3239 -0.6918  0.2718
  137MOL   C10941181   5.992   4.187   3.561  0.4532 -0.9516 -0.2864
  137MOL   C11041182   5.827   4.362   3.486  0.2555  0.4681  0.3792
  137MOL   O11141183   5.735   4.284   3.517  0.1530  0.1475 -0.2463
  137MOL   O11241184   5.816   4.470   3.424 -0.3115 -0.2638  0.2309
  137MOL   C11341185   5.693   4.524   3.375  0.2959 -0.0616  0.7134
  137MOL   H11441186   5.916   4.517   3.671 -0.4200 -0.1924  2.3040
  137MOL   H11541187   5.889   4.370   3.734  0.6311 -0.1596  1.9471
  137MOL   H11641188   5.965   4.125   3.475 -2.7357  0.9022 -0.7025
  137MOL   H11741189   6.099   4.173   3.578  0.4630 -0.8357 -0.2620
  137MOL   H11841190   5.948   4.154   3.655  1.5085  0.8657  0.8731
  137MOL   H11941191   5.717   4.624   3.340 -0.9339 -0.6407 -1.9159
  137MOL   H12041192   5.616   4.537   3.451 -1.9793 -1.6485 -1.2386
  137MOL   H12141193   5.656   4.468   3.288 -0.7615  1.6859  0.0225
  137MOL   C12241194   6.081   4.410   3.443 -0.2320 -0.9696 -0.5543
  137MOL   C12341195   6.121   4.361   3.300  0.2467 -0.5145 -0.3397
  137MOL   C12441196   6.242   4.262   3.322  0.0394  0.5161  0.0838
  137MOL   C12541197   6.007   4.292   3.221 -0.1470  0.0894  0.0941
  137MOL   O12641198   5.998   4.169   3.212 -0.3622 -0.1277 -0.0337
  137MOL   O12741199   5.920   4.375   3.161  0.0423 -0.4512 -0.0133
  137MOL   C12841200   5.816   4.315   3.077  0.7061 -0.0183  0.0068
  137MOL   H12941201   6.171   4.408   3.505 -1.2560  1.1463  1.0566
  137MOL   H13041202   6.050   4.514   3.439 -0.6250 -1.0497  0.3008
  137MOL   H13141203   6.227   4.179   3.392  1.5499  0.6739  0.6142
  137MOL   H13241204   6.275   4.220   3.227 -3.1046 -0.8808 -0.4488
  137MOL   H13341205   6.325   4.316   3.369 -1.9672  2.3352  1.6623
  137MOL   H13441206   5.747   4.385   3.030  0.6494 -0.5340 -0.6861
  137MOL   H13541207   5.760   4.247   3.141  1.5529  0.9099  1.7670
  137MOL   H13641208   5.863   4.260   2.995  1.5075  0.1623  0.3385
  137MOL   C13741209   6.171   4.494   3.225 -0.7999 -0.2092 -0.1233
  137MOL   C13841210   6.257   4.501   3.092  0.1264  0.3254  0.4602
  137MOL   C13941211   6.198   4.396   2.987  0.0297  0.1845 -0.2127
  137MOL   C14041212   6.224   4.637   3.020  0.2672  0.1844 -0.7636
  137MOL   O14141213   6.182   4.734   3.080 -0.1967  0.3174 -1.0132
  137MOL   O14241214   6.257   4.630   2.893 -0.4447 -0.0065  0.5635
  137MOL   C14341215   6.239   4.745   2.811 -0.3718  0.2441 -0.1952
  137MOL   H14441216   6.235   4.554   3.290 -1.5087 -0.4049  0.7669
  137MOL   H14541217   6.083   4.553   3.199 -1.6382 -0.9081  1.1146
  137MOL   H14641218   6.189   4.297   3.033  2.1298 -0.1671 -0.5179
  137MOL   H14741219   6.103   4.421   2.940  0.3398  0.2512 -0.8107
  137MOL   H14841220   6.267   4.390   2.903  0.3646 -0.5931  0.1119
  137MOL   H14941221   6.139   4.788   2.821 -0.8763 -1.2610  1.4728
  137MOL   H15041222   6.245   4.714   2.707  1.1422 -1.3107  0.3384
  137MOL   H15141223   6.316   4.818   2.837 -1.1501  1.1440 -0.3861
  137MOL   C15241224   6.408   4.469   3.123 -0.1252  0.3551 -0.5268
  137MOL   C15341225   6.529   4.533   3.052 -0.1136  0.4300 -0.2073
  137MOL   C15441226   6.545   4.483   2.901  0.0537 -0.3329 -0.2040
  137MOL   C15541227   6.534   4.690   3.065  1.4886 -0.1861 -0.0196
  137MOL   O15641228   6.583   4.758   2.976 -0.1908  0.4608 -0.2162
  137MOL   O15741229   6.493   4.739   3.183  0.0793  0.3387 -0.0616
  137MOL   C15841230   6.462   4.879   3.183 -0.0061  0.0687  0.1501
  137MOL   H15941231   6.424   4.361   3.119 -1.7557  0.1504 -2.1258
  137MOL   H16041232   6.414   4.493   3.230  0.5041 -2.0355  0.0016
  137MOL   H16141233   6.557   4.375   2.888 -0.4687 -0.2286 -1.6405
  137MOL   H16241234   6.463   4.508   2.834 -1.0917 -2.4688  0.3549
  137MOL   H16341235   6.635   4.528   2.859 -0.2392 -1.1886 -1.8006
  137MOL   H16441236   6.393   4.912   3.105 -0.3107  0.3574  0.5415
  137MOL   H16541237   6.548   4.942   3.165 -0.4570  0.6299 -0.0556
  137MOL   H16641238   6.414   4.904   3.278  0.2431  1.4968 -0.1025
  137MOL   C16741239   6.666   4.484   3.118 -0.1498  0.6235 -0.3225
  137MOL   C16841240   6.690   4.432   3.269 -0.3855 -0.3548  0.1011
  137MOL   C16941241   6.849   4.432   3.282 -0.8390  0.0930 -0.4378
  137MOL   C17041242   6.641   4.535   3.373 -0.5749 -0.1123 -0.0587
  137MOL   O17141243   6.581   4.499   3.472 -0.6222 -0.5470  0.3824
  137MOL   O17241244   6.692   4.654   3.351  0.5641  0.0532 -0.6465
  137MOL   C17341245   6.689   4.753   3.462  0.0921 -0.4369  0.1320
  137MOL   H17441246   6.746   4.555   3.094 -0.1967  0.3978 -1.1662
  137MOL   H17541247   6.708   4.398   3.066 -1.2603  0.2433 -0.6036
  137MOL   H17641248   6.904   4.382   3.362 -0.4599  2.0776  0.5764
  137MOL   H17741249   6.890   4.389   3.190 -1.2614 -2.1774  0.4025
  137MOL   H17841250   6.887   4.534   3.285 -1.0799  0.1549  0.6192
  137MOL   H17941251   6.767   4.723   3.532  1.8803  3.3209 -0.1284
  137MOL   H18041252   6.599   4.750   3.523  0.4149  0.4330  0.6475
  137MOL   H18141253   6.717   4.852   3.425 -0.8642 -0.5801 -1.0369
  137MOL   C18241254   6.630   4.290   3.289  0.5251  0.0962  0.5672
  137MOL   C18341255   6.704   4.180   3.382 -0.1042 -0.1961  0.5023
  137MOL   C18441256   6.740   4.244   3.526  0.6989 -0.0918  0.1945
  137MOL   C18541257   6.592   4.073   3.408 -0.5698  0.5787  0.0531
  137MOL   O18641258   6.566   4.039   3.519  0.9784  0.1898  0.1729
  137MOL   O18741259   6.536   4.026   3.299  0.7737  0.3895  0.1874
  137MOL   C18841260   6.429   3.930   3.321 -0.3420 -0.1690 -0.0468
  137MOL   H18941261   6.615   4.235   3.197 -0.7281 -1.1606  1.5125
  137MOL   H19041262   6.525   4.304   3.313  0.4284  0.2879  0.0380
  137MOL   H19141263   6.822   4.316   3.520  0.7315 -0.1200  0.3092
  137MOL   H19241264   6.661   4.299   3.575  0.3598 -1.0584  0.7447
  137MOL   H19341265   6.773   4.166   3.595  2.1527  1.1150  0.8923
  137MOL   H19441266   6.362   3.994   3.378 -0.0541  0.7588 -0.7342
  137MOL   H19541267   6.462   3.848   3.384  0.0412  1.3190  1.7074
  137MOL   H19641268   6.380   3.918   3.224 -0.0057 -1.3718 -0.0738
  137MOL   C19741269   6.817   4.100   3.306 -0.1302 -0.1768  0.3083
  137MOL   C19841270   6.915   3.996   3.366 -0.2606 -0.3381 -0.2121
  137MOL   C19941271   7.012   4.072   3.467  0.1114  0.5584 -0.6589
  137MOL   C20041272   6.849   3.887   3.448 -0.9431  0.0814  0.0656
  137MOL   O20141273   6.853   3.878   3.570  0.2906  0.1999 -0.7093
  137MOL   O20241274   6.771   3.803   3.370  0.2026  0.2705 -0.1668
  137MOL   C20341275   6.709   3.700   3.448 -0.4065  0.1674 -0.7702
  137MOL   H20441276   6.885   4.174   3.263 -1.1707  0.4099 -0.3509
  137MOL   H20541277   6.765   4.047   3.225  1.2166 -1.2625  0.1369
  137MOL   H20641278   7.067   4.154   3.422 -0.8067  3.3009  2.9763
  137MOL   H20741279   6.966   4.121   3.553 -2.7041 -1.1560 -1.1197
  137MOL   H20841280   7.088   4.014   3.519  1.1090  1.8542 -0.6388
  137MOL   H20941281   6.626   3.654   3.395 -0.0102 -0.3964 -0.9069
  137MOL   H21041282   6.656   3.736   3.536 -1.7336  0.0067 -1.4942
  137MOL   H21141283   6.778   3.620   3.476  1.9936  2.3776 -0.1608
  137MOL   C21241284   6.992   3.915   3.261 -0.2861  0.2760 -0.3057
  137MOL   C21341285   7.131   3.954   3.190 -0.9646  0.4908  0.3952
  137MOL   C21441286   7.108   4.094   3.126  0.0975 -0.6499  0.3041
  137MOL   C21541287   7.254   3.971   3.282 -0.0458  0.5229  0.4148
  137MOL   O21641288   7.335   4.062   3.267  0.2988  0.3201 -0.0699
  137MOL   O21741289   7.259   3.868   3.371  0.0242  0.3165  0.3205
  137MOL   C21841290   7.378   3.866   3.453  0.0966  0.2364  0.4338
  137MOL   H21941291   6.923   3.913   3.177  0.1567  2.1550 -0.7448
  137MOL   H22041292   7.011   3.811   3.287 -0.2789  0.4817  0.5233
  137MOL   H22141293   7.016   4.094   3.068 -0.4631 -0.2993  1.1869
  137MOL   H22241294   7.108   4.180   3.193  0.2326  1.6092 -2.4875
  137MOL   H22341295   7.189   4.123   3.059  1.4216  3.2119  3.3651
  137MOL   H22441296   7.466   3.830   3.401  0.9387  2.4306  0.2900
  137MOL   H22541297   7.364   3.808   3.544  2.2748  0.5281  0.9807
  137MOL   H22641298   7.395   3.971   3.481  0.3460  0.1189  0.7286
  137MOL   C22741299   7.150   3.843   3.083 -0.2083 -0.3413  0.1082
  137MOL   C22841300   7.252   3.853   2.958  0.7098 -0.3780  0.9286
  137MOL   C22941301   7.177   3.916   2.842 -0.2998  0.4713 -0.1860
  137MOL   C23041302   7.386   3.923   2.982  0.1601 -0.5381 -0.2932
  137MOL   O23141303   7.425   4.017   2.913  0.6867 -0.2015  0.1656
  137MOL   O23241304   7.465   3.873   3.085 -0.0152  0.0554  0.0505
  137MOL   C23341305   7.594   3.936   3.107 -0.3156  0.5094  0.4804
  137MOL   H23441306   7.057   3.814   3.034  0.6169  1.8332 -2.9194
  137MOL   H23541307   7.181   3.749   3.129 -0.0808 -0.5042 -0.3103
  137MOL   H23641308   7.132   4.010   2.875  2.9376  0.5951  4.2483
  137MOL   H23741309   7.247   3.940   2.762  1.1182  1.0581  1.2205
  137MOL   H23841310   7.101   3.850   2.799 -0.2220  2.7863 -4.1456
  137MOL   H23941311   7.658   3.874   3.170  1.3065  1.0761 -0.5690
  137MOL   H24041312   7.581   4.035   3.150  1.0263  0.4540  1.0351
  137MOL   H24141313   7.648   3.947   3.013  0.7198 -1.3649  0.8183
  137MOL   C24241314   7.275   3.705   2.910  0.5361  0.4543 -0.9187
  137MOL   C24341315   7.347   3.662   2.771  0.7236  0.3835  0.7690
  137MOL   C24441316   7.372   3.509   2.786 -0.3002 -0.6761  0.2684
  137MOL   C24541317   7.248   3.686   2.655 -0.7917  0.1566  0.0995
  137MOL   O24641318   7.257   3.780   2.573 -0.1445  0.0445 -0.3963
  137MOL   O24741319   7.141   3.607   2.649  0.6155  0.3832  0.3633
  137MOL   C24841320   7.046   3.630   2.549  0.2390 -0.2086 -0.1885
  137MOL   H24941321   7.179   3.654   2.901 -0.2206  1.1472  2.5581
  137MOL   H25041322   7.323   3.654   2.993  1.5169  1.5148 -0.8222
  137MOL   H25141323   7.460   3.486   2.845  1.2301  0.5155 -1.4882
  137MOL   H25241324   7.285   3.460   2.828 -0.1741 -2.0867 -1.0738
  137MOL   H25341325   7.398   3.461   2.692 -0.5989 -1.1552  0.4311
  137MOL   H25441326   7.095   3.616   2.452  0.4180 -1.3017  0.0588
  137MOL   H25541327   7.005   3.731   2.550 -1.2260 -0.7970 -0.2284
  137MOL   H25641328   6.965   3.558   2.548  0.7312 -0.7686 -0.3166
  137MOL   C25741329   7.485   3.740   2.756  0.0068  0.0374 -1.2215
  137MOL   C25841330   7.605   3.701   2.654 -0.6072 -0.4061 -0.2681
  137MOL   C25941331   7.666   3.558   2.697  0.3022  0.5899 -0.5055
  137MOL   C26041332   7.565   3.702   2.505 -0.7269 -0.7634 -0.4118
  137MOL   O26141333   7.571   3.601   2.437  0.1101 -0.3947 -0.1297
  137MOL   O26241334   7.520   3.826   2.457 -0.2881  0.2923  0.3663
  137MOL   C26341335   7.466   3.837   2.328  0.2293  0.1949 -0.2520
  137MOL   H26441336   7.527   3.739   2.857 -0.4691 -0.4716 -1.0290
  137MOL   H26541337   7.453   3.840   2.726 -3.2784 -0.8649 -0.8556
  137MOL   H26641338   7.595   3.481   2.669 -1.0371  1.5942  0.0601
  137MOL   H26741339   7.754   3.528   2.640  0.2029 -0.6925 -0.0002
  137MOL   H26841340   7.698   3.564   2.801 -0.7785  1.1266 -0.1979
  137MOL   H26941341   7.527   3.790   2.250  0.7231 -0.3854  0.4814
  137MOL   H27041342   7.438   3.941   2.315  1.0429  0.5600  0.8729
  137MOL   H27141343   7.376   3.775   2.327  1.1885 -1.2989 -3.5527
  137MOL   C27241344   7.721   3.808   2.673  0.0297  0.0434 -0.0278
  137MOL   C27341345   7.855   3.825   2.577  0.4144  0.1580  0.2208
  137MOL   C27441346   0.039   3.695   2.519  0.0237  0.1305  0.5626
  137MOL   C27541347   7.828   3.927   2.451 -0.3295 -0.7392  0.0484
  137MOL   O27641348   7.859   3.904   2.339 -0.4404  0.1703 -0.3080
  137MOL   O27741349   7.760   4.036   2.496 -0.0192 -0.1761 -0.3541
  137MOL   C27841350   7.763   4.155   2.417 -0.6488 -0.8660  0.0856
  137MOL   H27941351   7.767   3.779   2.767 -1.8684 -0.9267  0.6155
  137MOL   H28041352   7.678   3.906   2.697  0.7643  0.8324 -1.8414
  137MOL   H28141353   0.087   3.628   2.589  2.2417  0.2636 -0.7973
  137MOL   H28241354   7.858   3.645   2.441  1.3462  0.4179 -0.6513
  137MOL   H28341355   0.131   3.718   2.465 -0.2478  0.2825  0.1591
  137MOL   H28441356   7.866   4.191   2.411 -0.3587 -1.3786  1.6930
  137MOL   H28541357   7.701   4.232   2.464 -1.4240 -1.9902  0.9366
  137MOL   H28641358   7.714   4.146   2.320  1.0943 -2.3099 -0.6871
  137MOL   C28741359   0.090   3.895   2.661 -0.5566  0.5055  0.1614
  137MOL   C28841360   0.227   3.949   2.595  0.1454  0.1440 -0.6841
  137MOL   C28941361   0.255   4.096   2.601 -0.9556  0.3245 -0.2994
  137MOL   C29041362   0.344   3.868   2.634 -0.0233 -0.5183  0.2166
  137MOL   O29141363   0.429   3.900   2.724  0.4851 -0.2135 -0.3956
  137MOL   O29241364   0.355   3.759   2.570  0.3317  0.3082  0.4437
  137MOL   C29341365   0.444   3.654   2.601 -0.7498  0.2501  0.2814
  137MOL   H29441366   0.112   3.830   2.745  0.8569 -0.1253 -0.6641
  137MOL   H29541367   0.042   3.980   2.709  0.3756  0.1665  1.7323
  137MOL   H29641368   0.313   4.122   2.689 -2.0153  0.7404  0.2885
  137MOL   H29741369   0.305   4.125   2.509  0.8966 -0.2333  0.5116
  137MOL   H29841370   0.163   4.153   2.614 -2.0312 -1.4699  0.1407
  137MOL   H29941371   0.461   3.594   2.511  3.2507  0.7655  0.5695
  137MOL   H30041372   0.423   3.576   2.675  1.3408 -0.6569 -0.0372
  137MOL   H30141373   0.538   3.696   2.637 -1.2646 -0.7709  2.9478
  137MOL   H30241374   0.211   3.916   2.492  1.1538 -2.1420 -0.1299
  138MOL     C141375   1.309   3.814   2.750 -0.2740  0.2158 -0.0682
  138MOL     C241376   1.455   3.757   2.742  0.3104  0.1271 -0.2749
  138MOL     C341377   1.530   3.856   2.644 -0.5844  0.2455  0.8596
  138MOL     C441378   1.524   3.759   2.887 -0.4251 -0.2392  0.2539
  138MOL     O541379   1.635   3.816   2.895 -0.4963 -0.0183 -0.0126
  138MOL     O641380   1.455   3.698   2.983  0.2052 -0.2428  0.4850
  138MOL     C741381   1.503   3.717   3.116  0.4749 -0.1502  0.1912
  138MOL     H841382   1.305   3.920   2.771  0.9568  0.0834  0.8668
  138MOL     H941383   1.259   3.802   2.653  0.8550  0.6758 -0.7204
  138MOL    H1041384   1.486   3.858   2.545  2.8474  1.5856 -0.7137
  138MOL    H1141385   1.506   3.959   2.671 -0.6109  0.4713 -0.0226
  138MOL    H1241386   1.639   3.852   2.631 -0.7012 -0.2831  0.0014
  138MOL    H1341387   1.455   3.649   3.187  2.0600 -2.5798 -0.9670
  138MOL    H1441388   1.488   3.821   3.145 -0.4402  0.5011 -2.5646
  138MOL    H1541389   1.609   3.691   3.117  0.1846 -1.4077 -0.6273
  138MOL    H1641390   1.247   3.766   2.826  0.2430 -0.6070 -0.1650
  138MOL    C1741391   1.443   3.615   2.687 -0.9721 -0.5523 -0.7402
  138MOL    C1841392   1.557   3.526   2.627 -0.2271  0.4768 -0.6721
  138MOL    C1941393   1.589   3.574   2.479  0.1144 -0.2063  0.4171
  138MOL    C2041394   1.689   3.524   2.704 -0.6846 -0.2391  0.8263
  138MOL    O2141395   1.797   3.541   2.647  0.0012  0.2260 -0.0695
  138MOL    O2241396   1.673   3.506   2.829  0.2592  0.5375 -0.2289
  138MOL    C2341397   1.776   3.502   2.925  0.2813  0.0598 -0.7184
  138MOL    H2441398   1.379   3.616   2.599  0.5565  0.5989 -1.8575
  138MOL    H2541399   1.381   3.560   2.759  1.2204  0.1725  1.7765
  138MOL    H2641400   1.499   3.568   2.417  0.6270 -2.4111 -0.1642
  138MOL    H2741401   1.624   3.676   2.467  1.0109 -0.6419 -0.7196
  138MOL    H2841402   1.656   3.518   2.415  0.0855  0.3804 -0.1333
  138MOL    H2941403   1.868   3.458   2.888  0.6239  1.5151 -1.6438
  138MOL    H3041404   1.744   3.455   3.018 -1.2177  2.3937  0.0114
  138MOL    H3141405   1.812   3.603   2.947 -3.5104  1.7928 -1.9671
  138MOL    C3241406   1.498   3.376   2.610 -0.4228  0.4390  0.1875
  138MOL    C3341407   1.504   3.250   2.712  0.0960 -0.1543 -0.3271
  138MOL    C3441408   1.649   3.191   2.720  0.1322  0.0740 -0.4204
  138MOL    C3541409   1.450   3.291   2.851  0.3439  0.1340 -0.0924
  138MOL    O3641410   1.516   3.264   2.950 -0.1367 -0.2135 -0.3521
  138MOL    O3741411   1.331   3.343   2.851  0.8854  0.0337  0.7559
  138MOL    C3841412   1.277   3.393   2.975 -0.4964 -0.5535  0.5234
  138MOL    H3941413   1.557   3.334   2.529 -1.1175 -2.6103  1.1487
  138MOL    H4041414   1.395   3.387   2.577 -0.2814 -2.0678 -1.2536
  138MOL    H4141415   1.670   3.151   2.819 -0.5838  0.4645 -0.1043
  138MOL    H4241416   1.682   3.123   2.641  2.4388 -0.8254  1.2578
  138MOL    H4341417   1.726   3.268   2.721 -0.4896  0.7078  1.7006
  138MOL    H4441418   1.341   3.478   2.998  1.0926 -1.9116  1.2100
  138MOL    H4541419   1.297   3.323   3.056 -1.9147  0.4517  1.7827
  138MOL    H4641420   1.170   3.413   2.975 -0.2955  0.5782  0.2510
  138MOL    C4741421   1.417   3.141   2.641 -0.3001 -0.3667 -0.1775
  138MOL    C4841422   1.384   2.987   2.690 -0.5510 -0.2305 -1.0709
  138MOL    C4941423   1.511   2.920   2.733 -0.0629  0.0033  0.1121
  138MOL    C5041424   1.284   2.995   2.811 -0.2995 -0.1710 -0.5726
  138MOL    O5141425   1.212   3.094   2.822  0.2442  0.6014  0.1815
  138MOL    O5241426   1.274   2.891   2.886 -0.3031 -0.0069  0.2146
  138MOL    C5341427   1.168   2.888   2.989  0.1245  0.8973 -0.2146
  138MOL    H5441428   1.468   3.141   2.545  1.0706 -2.3860  0.4910
  138MOL    H5541429   1.322   3.188   2.618 -0.0862  0.0668 -0.1708
  138MOL    H5641430   1.560   2.961   2.821  1.6182 -0.8159 -0.4078
  138MOL    H5741431   1.496   2.813   2.753  2.1435 -0.1792  0.9282
  138MOL    H5841432   1.595   2.917   2.663  1.4945  1.3291  1.8708
  138MOL    H5941433   1.154   2.791   3.037  1.4817  0.2572 -1.0921
  138MOL    H6041434   1.076   2.919   2.942 -0.1482  1.5938  0.7542
  138MOL    H6141435   1.186   2.962   3.068 -1.4199  1.4739 -0.3974
  138MOL    C6241436   1.328   2.908   2.565  0.1966 -0.3537  0.4594
  138MOL    C6341437   1.239   2.782   2.570 -0.6015  0.3022 -0.8262
  138MOL    C6441438   1.230   2.738   2.423  0.0910 -0.3499 -0.0487
  138MOL    C6541439   1.309   2.669   2.647 -0.5446  0.2364  0.1423
  138MOL    O6641440   1.273   2.634   2.760 -0.1368 -0.7349  0.7268
  138MOL    O6741441   1.410   2.612   2.580  0.8150  0.7099  0.1260
  138MOL    C6841442   1.474   2.492   2.629 -0.3858 -0.8431 -0.2297
  138MOL    H6941443   1.407   2.892   2.493  0.3911  0.4519  0.4857
  138MOL    H7041444   1.270   2.983   2.511  1.0572 -0.5927 -0.7899
  138MOL    H7141445   1.330   2.744   2.379 -0.1975  1.4986 -0.4958
  138MOL    H7241446   1.208   2.632   2.408 -2.6793  0.4431 -1.9525
  138MOL    H7341447   1.161   2.805   2.372  0.1958 -0.5017 -0.3941
  138MOL    H7441448   1.405   2.445   2.700 -0.0780 -0.9106  0.0270
  138MOL    H7541449   1.570   2.526   2.668 -0.1392 -2.6829  0.7875
  138MOL    H7641450   1.498   2.422   2.550  2.0436  2.1102 -2.2415
  138MOL    C7741451   1.090   2.810   2.620  0.6161 -0.5569 -0.2930
  138MOL    C7841452   0.959   2.724   2.579  0.1256  0.2376 -0.2443
  138MOL    C7941453   0.849   2.775   2.681 -0.0496 -0.7276  0.0263
  138MOL    C8041454   0.916   2.764   2.435 -0.1472  0.2830 -0.4486
  138MOL    O8141455   0.920   2.687   2.335  0.6927 -0.0030 -0.4285
  138MOL    O8241456   0.866   2.893   2.422  0.6160 -0.2565  0.1819
  138MOL    C8341457   0.823   2.926   2.295 -0.3623 -0.2991  0.1952
  138MOL    H8441458   1.068   2.915   2.600 -0.3668 -0.6483  0.2674
  138MOL    H8541459   1.094   2.812   2.729 -2.5534 -2.8706 -0.0644
  138MOL    H8641460   0.869   2.881   2.701  1.2661 -1.1998  1.2939
  138MOL    H8741461   0.753   2.767   2.632 -0.0008 -1.4339  0.0445
  138MOL    H8841462   0.841   2.735   2.782  1.4336  0.3983  0.6177
  138MOL    H8941463   0.887   2.889   2.214  0.0516 -0.4555  0.5909
  138MOL    H9041464   0.820   3.035   2.291 -0.0586 -0.3164 -0.5269
  138MOL    H9141465   0.724   2.884   2.278  1.0368 -3.8584  0.2933
  138MOL    C9241466   0.973   2.570   2.604  0.1476 -0.2749  0.6058
  138MOL    C9341467   0.861   2.456   2.578 -0.0515 -0.0034 -0.4629
  138MOL    C9441468   0.720   2.497   2.620  0.7962  0.0256  0.3098
  138MOL    C9541469   0.860   2.411   2.428  0.1348 -0.0453  0.0773
  138MOL    O9641470   0.756   2.410   2.359 -0.3059 -0.1892 -0.1616
  138MOL    O9741471   0.985   2.384   2.375  0.6589 -0.4794 -0.4897
  138MOL    C9841472   0.989   2.358   2.239 -0.5090 -0.1114  0.6016
  138MOL    H9941473   1.002   2.570   2.709  0.0332 -0.3136  0.6365
  138MOL   H10041474   1.066   2.530   2.563 -1.2735 -0.3716 -2.6757
  138MOL   H10141475   0.715   2.553   2.714  0.1970 -0.7512  0.7464
  138MOL   H10241476   0.678   2.558   2.540  1.7801  0.0779 -0.1717
  138MOL   H10341477   0.658   2.407   2.626  1.1384 -0.1298  2.0039
  138MOL   H10441478   0.930   2.271   2.211 -0.3288  0.2180 -0.8829
  138MOL   H10541479   1.091   2.342   2.202 -0.8817 -3.2567  0.7939
  138MOL   H10641480   0.955   2.450   2.189  1.3527 -0.4163 -1.3200
  138MOL   C10741481   0.911   2.329   2.650 -0.0621  0.7369  0.2662
  138MOL   C10841482   0.943   2.304   2.803  0.4078 -0.2647  0.2580
  138MOL   C10941483   0.840   2.386   2.888 -0.0465  0.1608  0.1590
  138MOL   C11041484   0.929   2.158   2.826  0.2688 -0.2724 -0.4229
  138MOL   O11141485   0.832   2.112   2.884  0.0678  0.1201 -0.3488
  138MOL   O11241486   1.017   2.079   2.755  0.0875  0.0666  0.4753
  138MOL   C11341487   0.999   1.939   2.740  0.3951  0.0446 -0.4898
  138MOL   H11441488   0.996   2.289   2.595  0.4269 -1.3082  2.4310
  138MOL   H11541489   0.838   2.251   2.628 -1.3665  2.2447 -0.9364
  138MOL   H11641490   0.857   2.363   2.993 -0.0938 -1.9518 -0.2695
  138MOL   H11741491   0.852   2.492   2.867 -4.7079  0.5660 -0.9487
  138MOL   H11841492   0.734   2.364   2.874 -0.6339  1.7876  1.8143
  138MOL   H11941493   0.995   1.912   2.845  0.7170  2.9518  0.3287
  138MOL   H12041494   1.084   1.896   2.687  0.1525 -1.8598  0.6275
  138MOL   H12141495   0.908   1.909   2.688 -0.9270  0.3446  1.6079
  138MOL   C12241496   1.085   2.357   2.838 -0.4176  0.0216  0.0697
  138MOL   C12341497   1.143   2.384   2.984  0.0140 -0.6735  0.2081
  138MOL   C12441498   1.098   2.524   3.040  0.0121 -0.0614  0.3805
  138MOL   C12541499   1.095   2.273   3.083 -0.0639 -0.5819  0.2435
  138MOL   O12641500   1.023   2.298   3.179  0.6821 -0.1393  0.1328
  138MOL   O12741501   1.130   2.148   3.058 -0.0378 -0.1107  0.2385
  138MOL   C12841502   1.072   2.036   3.122  0.0797 -0.4033 -0.1732
  138MOL   H12941503   1.121   2.433   2.769  2.3726 -2.3850 -1.2776
  138MOL   H13041504   1.150   2.275   2.806 -1.4536 -0.6143 -0.4248
  138MOL   H13141505   1.143   2.548   3.136  0.5857  1.4048 -0.2287
  138MOL   H13241506   1.111   2.602   2.965  1.0819  0.8574  1.4994
  138MOL   H13341507   0.993   2.543   3.063  0.7197  5.3066 -0.0767
  138MOL   H13441508   0.965   2.021   3.111  0.2111  0.0120 -2.2682
  138MOL   H13541509   1.105   2.026   3.225 -2.4969  0.2254  0.7387
  138MOL   H13641510   1.125   1.957   3.068  0.6215  0.2672 -0.6268
  138MOL   C13741511   1.300   2.374   2.963  0.3262 -0.4413 -0.6986
  138MOL   C13841512   1.425   2.375   3.070  0.0226 -0.2630  0.2576
  138MOL   C13941513   1.547   2.325   2.985 -0.1057  0.3505  0.2157
  138MOL   C14041514   1.443   2.527   3.106 -0.1180 -0.4625 -0.2174
  138MOL   O14141515   1.397   2.574   3.209 -0.6536  0.3012 -0.1506
  138MOL   O14241516   1.499   2.599   3.011 -0.5783  0.6278  0.3969
  138MOL   C14341517   1.523   2.739   3.029 -0.5794  0.2511  0.6961
  138MOL   H14441518   1.332   2.442   2.885  1.8196 -0.7725 -0.3940
  138MOL   H14541519   1.320   2.277   2.916  1.8113 -0.2262 -0.5350
  138MOL   H14641520   1.634   2.374   3.029 -0.9642  2.1755 -0.0784
  138MOL   H14741521   1.545   2.216   2.983 -1.2720  0.3486  1.1036
  138MOL   H14841522   1.542   2.359   2.882  0.1157  1.1621  0.4736
  138MOL   H14941523   1.435   2.798   3.056  0.4365  0.6434  3.3339
  138MOL   H15041524   1.567   2.784   2.941  4.2114 -0.3642  2.6542
  138MOL   H15141525   1.584   2.751   3.118  2.8718  1.5055 -1.7316
  138MOL   C15241526   1.400   2.295   3.202 -0.4352  0.5553  0.4871
  138MOL   C15341527   1.507   2.260   3.316 -0.6974 -0.3855 -0.3870
  138MOL   C15441528   1.640   2.213   3.260 -0.5730  0.0852 -0.5354
  138MOL   C15541529   1.535   2.386   3.393 -0.3709 -0.3839 -0.8426
  138MOL   O15641530   1.647   2.433   3.413  0.9385 -0.2592 -0.4441
  138MOL   O15741531   1.423   2.441   3.450 -0.5730 -0.2466 -0.0819
  138MOL   C15841532   1.433   2.550   3.539 -0.2908 -0.4388  0.2766
  138MOL   H15941533   1.356   2.202   3.167 -1.0287  1.7656 -2.0716
  138MOL   H16041534   1.316   2.342   3.253 -0.9533 -1.8115  1.8880
  138MOL   H16141535   1.622   2.134   3.186 -1.9139  0.9400 -1.1499
  138MOL   H16241536   1.695   2.276   3.191 -0.8764 -0.6577 -1.4783
  138MOL   H16341537   1.716   2.173   3.327 -0.5110  0.6785 -0.2546
  138MOL   H16441538   1.492   2.517   3.624 -2.0964 -0.9382  1.3756
  138MOL   H16541539   1.333   2.583   3.570 -0.0890  0.6704 -0.2268
  138MOL   H16641540   1.484   2.634   3.492 -0.9205  0.9742  2.0683
  138MOL   C16741541   1.439   2.155   3.415 -0.0343 -0.2702  0.1295
  138MOL   C16841542   1.503   2.048   3.504 -0.6660 -0.0298 -0.0840
  138MOL   C16941543   1.578   1.945   3.409 -0.2968 -0.1097 -0.2429
  138MOL   C17041544   1.606   2.116   3.601 -0.3098 -0.4693 -0.7750
  138MOL   O17141545   1.730   2.094   3.608 -0.1687 -0.1194 -0.4297
  138MOL   O17241546   1.549   2.224   3.662 -0.1632  0.2187 -0.1452
  138MOL   C17341547   1.622   2.292   3.760 -0.2303 -0.2555  0.6987
  138MOL   H17441548   1.373   2.103   3.345  1.1742 -0.0900 -1.1610
  138MOL   H17541549   1.377   2.213   3.483  0.4162 -1.2425  1.3772
  138MOL   H17641550   1.684   1.969   3.404 -0.4714  0.6864 -0.2071
  138MOL   H17741551   1.576   1.840   3.437  1.7698  0.5777  2.7828
  138MOL   H17841552   1.541   1.954   3.307 -0.6389  0.5436 -0.0635
  138MOL   H17941553   1.566   2.375   3.804 -0.8194 -0.0132 -0.4708
  138MOL   H18041554   1.711   2.337   3.715 -0.7838  0.9404  0.7663
  138MOL   H18141555   1.658   2.237   3.847  0.8897 -2.1359 -0.9341
  138MOL   C18241556   1.391   1.968   3.578 -0.0719 -0.7428  0.0048
  138MOL   C18341557   1.408   1.863   3.697  1.1851 -0.7105 -0.2322
  138MOL   C18441558   1.534   1.775   3.681 -1.0788 -0.8069  0.1481
  138MOL   C18541559   1.415   1.937   3.838 -0.0191 -1.1096 -0.4088
  138MOL   O18641560   1.384   2.051   3.864 -0.5461  0.3610  0.0550
  138MOL   O18741561   1.471   1.858   3.932  0.0219  0.1205 -0.0166
  138MOL   C18841562   1.492   1.907   4.067 -0.4233  0.2974  0.0036
  138MOL   H18941563   1.336   1.912   3.503 -0.2734 -2.0648  1.1186
  138MOL   H19041564   1.322   2.042   3.619 -1.2961 -1.0860 -1.4069
  138MOL   H19141565   1.540   1.711   3.592  2.5595  0.4202 -0.5960
  138MOL   H19241566   1.627   1.831   3.667 -0.2095 -2.3958 -0.5984
  138MOL   H19341567   1.555   1.711   3.766 -0.5076 -2.2366 -1.0571
  138MOL   H19441568   1.557   1.994   4.071  0.2805 -0.2657  1.0185
  138MOL   H19541569   1.535   1.830   4.131 -1.6848  0.8424  1.5471
  138MOL   H19641570   1.393   1.932   4.105 -1.0157 -3.5072  1.2235
  138MOL   C19741571   1.284   1.754   3.695  0.3956 -0.3687 -0.1320
  138MOL   C19841572   1.141   1.783   3.754  0.5424 -0.2677  0.1477
  138MOL   C19941573   1.141   1.805   3.903  0.0836 -0.2881 -0.4420
  138MOL   C20041574   1.063   1.900   3.673 -0.6543 -0.5520 -0.5037
  138MOL   O20141575   1.102   1.966   3.576  0.5563 -0.0803  0.0477
  138MOL   O20241576   0.937   1.916   3.724  0.2506  0.2810 -0.0326
  138MOL   C20341577   0.866   2.031   3.678  0.3094  0.1317  0.1335
  138MOL   H20441578   1.326   1.667   3.746  0.2543  0.0731  0.7320
  138MOL   H20541579   1.261   1.719   3.594 -2.1447 -0.3860  0.4318
  138MOL   H20641580   1.050   1.795   3.962 -1.2800  3.0170 -1.8475
  138MOL   H20741581   1.229   1.754   3.943  0.1944 -0.2806 -0.6784
  138MOL   H20841582   1.163   1.909   3.927  1.7501 -0.1208 -2.5145
  138MOL   H20941583   0.927   2.120   3.670 -0.1023  0.5220  1.3446
  138MOL   H21041584   0.783   2.061   3.742  1.1760  1.9684  0.4193
  138MOL   H21141585   0.810   2.014   3.586 -1.3990  1.3643  0.9287
  138MOL   C21241586   1.053   1.654   3.733  0.0309  0.2139 -0.1969
  138MOL   C21341587   1.026   1.575   3.599  0.6651  0.1950  0.7463
  138MOL   C21441588   0.997   1.663   3.475 -0.1986  0.3584 -0.3326
  138MOL   C21541589   1.144   1.479   3.573 -0.0906  0.9572  0.1901
  138MOL   O21641590   1.198   1.476   3.462  0.3023 -0.3874  0.0584
  138MOL   O21741591   1.195   1.413   3.679 -0.1484 -0.1008  0.4971
  138MOL   C21841592   1.310   1.338   3.669  0.1891  0.1903  0.7596
  138MOL   H21941593   0.955   1.674   3.779  1.5079  2.3827  2.1428
  138MOL   H22041594   1.091   1.579   3.802  0.6791 -0.5337 -1.3667
  138MOL   H22141595   0.899   1.710   3.480 -1.0952 -1.3063 -1.6422
  138MOL   H22241596   1.071   1.742   3.456 -0.6332  1.0115  0.6535
  138MOL   H22341597   1.002   1.602   3.385  1.6992 -2.6089  1.6770
  138MOL   H22441598   1.360   1.329   3.766  2.3385 -0.2241 -0.3698
  138MOL   H22541599   1.385   1.377   3.600 -1.0899  0.0282 -0.7512
  138MOL   H22641600   1.286   1.240   3.629  1.4678  0.0858  0.2272
  138MOL   C22741601   0.900   1.487   3.638 -0.5614 -0.8091  0.4140
  138MOL   C22841602   0.854   1.356   3.560 -0.2828  0.3251 -0.2725
  138MOL   C22941603   0.829   1.390   3.413  0.6346 -0.4698  1.0137
  138MOL   C23041604   0.946   1.233   3.572  0.5757 -0.3936  0.0083
  138MOL   O23141605   0.996   1.178   3.477 -0.9688  0.1831  0.0699
  138MOL   O23241606   0.961   1.187   3.695 -0.0123  0.0955 -0.1423
  138MOL   C23341607   1.046   1.071   3.706 -0.2061 -0.1626  0.1906
  138MOL   H23441608   0.820   1.561   3.641 -1.6547 -2.0195  1.4284
  138MOL   H23541609   0.905   1.453   3.741  1.1420 -3.7022 -0.5643
  138MOL   H23641610   0.776   1.485   3.406  1.4560  0.0464  1.7241
  138MOL   H23741611   0.927   1.395   3.367  0.8583 -1.9913  1.3068
  138MOL   H23841612   0.761   1.322   3.363 -0.3757 -1.5648  3.7873
  138MOL   H23941613   1.068   1.049   3.810  3.1809  0.4764 -0.3215
  138MOL   H24041614   1.140   1.091   3.654 -0.5291  1.1514  0.0946
  138MOL   H24141615   0.989   0.991   3.660  0.6680 -1.0963  0.7276
  138MOL   C24241616   0.710   1.329   3.635 -0.1054  0.4202 -0.3894
  138MOL   C24341617   0.591   1.251   3.573  0.4999  0.6612 -0.0093
  138MOL   C24441618   0.510   1.342   3.481  0.3201  0.8788 -0.5635
  138MOL   C24541619   0.637   1.128   3.487 -0.3241  0.2771  0.6602
  138MOL   O24641620   0.625   1.126   3.360  0.3691  0.2176 -0.8028
  138MOL   O24741621   0.702   1.045   3.550  0.4619 -0.0260  0.0161
  138MOL   C24841622   0.749   0.928   3.490 -0.3313 -0.7155 -0.0747
  138MOL   H24941623   0.671   1.425   3.670  0.9987  1.0166 -0.7598
  138MOL   H25041624   0.736   1.285   3.731 -1.4025  1.7079  0.5787
  138MOL   H25141625   0.458   1.416   3.542 -1.2788 -0.8277  0.1954
  138MOL   H25241626   0.578   1.382   3.406  1.1625  0.0166 -0.2622
  138MOL   H25341627   0.423   1.293   3.436  0.6230 -1.0656  0.8726
  138MOL   H25441628   0.800   0.960   3.399 -0.7203  0.1793  0.0254
  138MOL   H25541629   0.674   0.857   3.456  0.0698 -2.2438  2.1134
  138MOL   H25641630   0.828   0.883   3.549 -2.5666 -1.3695  2.5095
  138MOL   C25741631   0.491   1.212   3.694 -0.4193 -0.3143  0.1836
  138MOL   C25841632   0.380   1.098   3.696 -0.9988  0.1729  0.4344
  138MOL   C25941633   0.306   1.098   3.563 -0.1936 -0.2813 -0.3684
  138MOL   C26041634   0.442   0.955   3.722 -0.4895  0.7251  0.0021
  138MOL   O26141635   0.551   0.945   3.778  0.0897 -0.2049 -0.2616
  138MOL   O26241636   0.362   0.851   3.676 -0.4240 -0.5022 -0.9609
  138MOL   C26341637   0.406   0.720   3.659  0.3278  0.2743  0.3193
  138MOL   H26441638   0.444   1.307   3.723 -1.2606 -0.3089 -1.1849
  138MOL   H26541639   0.550   1.190   3.783 -0.7841  1.1294  0.7971
  138MOL   H26641640   0.223   1.027   3.561 -0.4279 -0.1298  2.1234
  138MOL   H26741641   0.245   1.185   3.539  0.8558  1.4416  2.9151
  138MOL   H26841642   0.377   1.070   3.485  1.3835  1.3761  0.4449
  138MOL   H26941643   0.329   0.664   3.605 -0.0830  1.8324 -0.7746
  138MOL   H27041644   0.429   0.667   3.751  0.0473 -1.0401 -0.3556
  138MOL   H27141645   0.502   0.724   3.608  0.2301 -0.4121  0.0722
  138MOL   C27241646   0.257   1.129   3.796 -0.1536 -0.0453 -0.2693
  138MOL   C27341647   0.279   1.147   3.956  0.0706  0.4901 -0.2196
  138MOL   C27441648   0.137   1.136   4.023  0.3614 -0.4609 -0.3098
  138MOL   C27541649   0.367   1.043   4.023 -0.1993 -0.1182 -0.5823
  138MOL   O27641650   0.479   1.066   4.069  0.5401  0.2394 -0.4468
  138MOL   O27741651   0.315   0.926   4.018 -0.2997 -0.0025 -0.4039
  138MOL   C27841652   0.387   0.825   4.085  0.4556 -0.4384 -1.1876
  138MOL   H27941653   0.191   1.044   3.780 -1.7664  1.0427  0.4961
  138MOL   H28041654   0.210   1.217   3.752  1.7564  1.3152  0.3022
  138MOL   H28141655   0.078   1.055   3.981  2.6977 -1.8902 -0.9282
  138MOL   H28241656   0.126   1.126   4.131 -1.0657 -0.1646 -0.4257
  138MOL   H28341657   0.080   1.223   3.992  0.6780 -1.3033 -3.4444
  138MOL   H28441658   0.390   0.836   4.193  1.4949 -1.0878 -1.1372
  138MOL   H28541659   0.491   0.809   4.055  2.4881  1.1618  4.4693
  138MOL   H28641660   0.354   0.723   4.065  0.3504 -0.6288 -0.0311
  138MOL   C28741661   0.344   1.289   3.985  0.4689 -0.1249  0.4879
  138MOL   C28841662   0.329   1.336   4.136 -0.3732  0.0889  0.5830
  138MOL   C28941663   0.466   1.406   4.180 -0.0589  0.4875 -0.6676
  138MOL   C29041664   0.215   1.427   4.171 -0.7713 -0.1403 -0.3042
  138MOL   O29141665   0.138   1.390   4.262 -0.7151 -1.0603 -0.0904
  138MOL   O29241666   0.212   1.533   4.096  0.2841 -0.1386  0.1263
  138MOL   C29341667   0.108   1.627   4.129 -0.0107  0.0514  1.3461
  138MOL   H29441668   0.293   1.366   3.928  0.4514  0.3493  1.1424
  138MOL   H29541669   0.451   1.287   3.962  0.9562 -0.0493  2.6807
  138MOL   H29641670   0.550   1.338   4.166  1.6297  2.1369  1.1319
  138MOL   H29741671   0.480   1.490   4.111  0.5036  0.1897 -0.9253
  138MOL   H29841672   0.460   1.440   4.284  0.6335 -0.5253 -0.2914
  138MOL   H29941673   0.120   1.664   4.231  0.1927 -1.1727  1.7718
  138MOL   H30041674   0.011   1.580   4.113 -1.1070  3.4596 -3.3638
  138MOL   H30141675   0.116   1.715   4.064 -5.2611  0.6189  1.2764
  138MOL   H30241676   0.330   1.256   4.210 -0.8788  0.4949  1.0311
  139MOL     C141677   7.263   5.541   7.359  0.3276  0.9997  0.2713
  139MOL     C241678   7.216   5.545   7.507 -0.1943 -0.2235 -0.6415
  139MOL     C341679   7.115   5.656   7.536 -0.6182 -0.3117  0.0564
  139MOL     C441680   7.136   5.411   7.530 -0.0494  0.7112 -0.9252
  139MOL     O541681   7.147   5.316   7.458 -0.3514 -0.1600  0.2790
  139MOL     O641682   7.085   5.405   7.650 -0.1523  0.0266  0.3591
  139MOL     C741683   7.026   5.287   7.696 -0.4956  0.6459  0.5819
  139MOL     H841684   7.301   5.638   7.328 -1.3798  0.9070 -2.2800
  139MOL     H941685   7.341   5.467   7.339  0.6667  1.1766  0.9239
  139MOL    H1041686   7.084   5.666   7.640  3.9897  0.0691  1.4929
  139MOL    H1141687   7.165   5.750   7.510 -0.8541 -0.0417  0.5620
  139MOL    H1241688   7.022   5.661   7.479  0.4628 -1.1773 -1.8049
  139MOL    H1341689   6.957   5.247   7.622  1.4069 -0.8550 -0.4093
  139MOL    H1441690   6.976   5.300   7.793  1.9284  0.7670  1.8472
  139MOL    H1541691   7.113   5.226   7.718 -0.7262 -0.3739 -1.2727
  139MOL    H1641692   7.186   5.509   7.289  0.7081 -0.1153  0.3496
  139MOL    C1741693   7.342   5.541   7.605  0.0196 -0.2747  0.7498
  139MOL    C1841694   7.431   5.667   7.638 -0.1871 -0.4559  0.5288
  139MOL    C1941695   7.479   5.758   7.513  0.2314  0.3629 -0.3729
  139MOL    C2041696   7.357   5.753   7.744 -0.5739 -0.9548 -0.2056
  139MOL    O2141697   7.255   5.717   7.798  0.4250  0.5347  0.5845
  139MOL    O2241698   7.416   5.875   7.767 -0.0189 -0.6739  0.0731
  139MOL    C2341699   7.332   5.973   7.828 -0.5032 -0.9023  1.0031
  139MOL    H2441700   7.401   5.461   7.560  2.1048  2.1163 -0.9252
  139MOL    H2541701   7.301   5.501   7.698  1.5725 -0.6991  1.2579
  139MOL    H2641702   7.533   5.845   7.550 -0.0729  1.3838 -2.2519
  139MOL    H2741703   7.551   5.712   7.447  0.6447 -1.5045  1.3147
  139MOL    H2841704   7.389   5.807   7.474 -0.1604  0.1558  0.2516
  139MOL    H2941705   7.299   5.927   0.043  0.5894  1.4498  2.6036
  139MOL    H3041706   7.246   6.000   7.767 -0.9311  1.1435  2.4649
  139MOL    H3141707   7.401   6.054   7.853 -0.9303 -0.2436  0.0642
  139MOL    C3241708   7.565   5.628   7.706  0.4957  0.3215 -0.3087
  139MOL    C3341709   7.596   5.521   7.819  0.2009  0.2204 -0.5648
  139MOL    C3441710   7.481   5.497   0.044 -0.3871 -0.0170  0.3079
  139MOL    C3541711   7.623   5.381   7.755 -0.0155  0.2031  0.2548
  139MOL    O3641712   7.631   5.371   7.635  0.0218  0.2675 -0.0633
  139MOL    O3741713   7.654   5.282   7.841 -0.3266  0.0932 -0.0258
  139MOL    C3841714   7.705   5.150   7.805 -0.2470  0.2327  0.5366
  139MOL    H3941715   7.609   5.721   7.742 -1.0406 -0.4684  3.8616
  139MOL    H4041716   7.653   5.613   7.644  0.2837 -2.1934 -0.0641
  139MOL    H4141717   7.447   5.597   0.073  2.0399  1.1994 -0.8242
  139MOL    H4241718   7.395   5.449   7.876 -1.0992  0.6521  0.9345
  139MOL    H4341719   7.510   5.440   0.132  1.6907 -0.3412 -0.5631
  139MOL    H4441720   7.733   5.145   7.700 -1.7581  1.6568  0.0551
  139MOL    H4541721   7.636   5.069   7.828 -2.0984  0.8329 -2.5536
  139MOL    H4641722   7.790   5.141   7.873 -0.1903 -1.8921  0.2253
  139MOL    C4741723   7.717   5.569   0.034 -0.1052  0.0834 -0.0959
  139MOL    C4841724   7.863   5.584   7.862 -0.0936 -0.1203  0.6476
  139MOL    C4941725   0.052   5.450   7.808  0.3176 -0.5798  0.3177
  139MOL    C5041726   0.001   5.696   7.759  0.2040 -0.3168  0.2980
  139MOL    O5141727   0.067   5.689   7.655  0.5243  0.5136 -0.2464
  139MOL    O5241728   7.827   5.811   7.796  0.7368 -0.1681 -0.1900
  139MOL    C5341729   7.855   5.931   7.719  0.4398  0.2665  0.0319
  139MOL    H5441730   7.717   5.499   0.118 -1.2900 -0.1084 -0.2446
  139MOL    H5541731   7.677   5.659   0.079 -3.1236 -0.8001 -0.8928
  139MOL    H5641732   0.048   5.379   0.013 -2.8677 -0.3628  0.4192
  139MOL    H5741733   0.001   5.399   7.727  0.0334  1.1612 -0.6320
  139MOL    H5841734   0.153   5.450   7.767 -0.2571  0.5468 -1.1358
  139MOL    H5941735   7.806   5.935   7.621 -3.0996 -0.5733  1.6791
  139MOL    H6041736   0.079   5.970   7.718  0.1314  1.0910 -0.8360
  139MOL    H6141737   7.790   6.006   7.766 -0.2958 -0.6720  0.5260
  139MOL    C6241738   0.065   5.615   0.124  0.3323  0.4993  0.4684
  139MOL    C6341739   0.209   5.679   0.138 -0.9457  0.1373  0.3852
  139MOL    C6441740   0.300   5.615   0.027  0.2614  0.5156 -0.1391
  139MOL    C6541741   0.216   5.830   0.125 -1.1976  0.1212 -0.0902
  139MOL    O6641742   0.114   5.905   0.130 -0.2898 -0.1876 -0.3078
  139MOL    O6741743   0.346   5.875   0.093 -0.0294 -0.5353 -0.5964
  139MOL    C6841744   0.358   6.008   0.042  0.7766  0.3825  0.0521
  139MOL    H6941745   0.075   5.515   0.167 -0.5970 -0.1048 -0.6990
  139MOL    H7041746   0.010   5.667   0.203  0.8319 -0.9569  1.8076
  139MOL    H7141747   0.301   5.507   0.043  0.8179  0.9110  2.8175
  139MOL    H7241748   0.264   5.634   7.803 -1.4193 -0.8730  0.1655
  139MOL    H7341749   0.404   5.643   0.040 -0.0497  0.3584  3.1573
  139MOL    H7441750   0.450   6.005   7.862  2.0758 -1.5479  2.1187
  139MOL    H7541751   0.364   6.069   0.132 -0.0748  0.4895  0.0375
  139MOL    H7641752   0.277   6.031   7.850  0.2281  1.3008  0.9721
  139MOL    C7741753   0.270   5.634   0.279 -0.2243 -0.1066 -0.1652
  139MOL    C7841754   0.215   5.665   0.427 -0.1241  0.4642  0.4163
  139MOL    C7941755   0.153   5.809   0.434  0.0896 -0.0826 -0.8723
  139MOL    C8041756   0.104   5.565   0.464 -0.4941  0.2703  0.2338
  139MOL    O8141757   0.112   5.452   0.428  0.5901  0.0306 -0.0024
  139MOL    O8241758   0.019   5.613   0.548 -0.3066  0.1228 -0.0303
  139MOL    C8341759   7.775   5.543   0.588  0.6967  0.9447 -0.2091
  139MOL    H8441760   0.376   5.661   0.276  0.1712 -1.5314  0.6669
  139MOL    H8541761   0.261   5.528   0.257 -5.4954  0.3384 -0.6256
  139MOL    H8641762   0.065   5.825   0.371  0.9158  0.5497 -1.8877
  139MOL    H8741763   0.118   5.845   0.530 -0.4841 -1.4559 -0.5552
  139MOL    H8841764   0.229   5.878   0.398  0.8852 -0.1316  0.7050
  139MOL    H8941765   7.709   5.612   0.641 -2.1061 -1.5390 -0.3037
  139MOL    H9041766   7.795   5.453   0.645 -0.7055  1.6548  1.4750
  139MOL    H9141767   7.721   5.512   0.498  2.2904 -3.0070  0.1076
  139MOL    C9241768   0.337   5.658   0.535 -0.3289 -0.0745  0.6018
  139MOL    C9341769   0.408   5.522   0.580  0.4924 -0.8181  0.1859
  139MOL    C9441770   0.318   5.451   0.685  1.3705 -0.2386  0.4007
  139MOL    C9541771   0.440   5.427   0.467 -0.2040 -0.5180 -0.3756
  139MOL    O9641772   0.381   5.320   0.444 -0.4087  0.3916 -0.3790
  139MOL    O9741773   0.543   5.480   0.393 -0.2578 -0.0155 -0.4504
  139MOL    C9841774   0.608   5.395   0.297 -0.2034 -0.3435  0.2930
  139MOL    H9941775   0.302   5.695   0.631  0.5529  0.9888  0.5178
  139MOL   H10041776   0.415   5.729   0.509 -1.5376  1.5494  1.3162
  139MOL   H10141777   0.358   5.355   0.719  0.5425 -0.9574 -0.6236
  139MOL   H10241778   0.307   5.520   0.769  2.7407 -0.0375  0.4324
  139MOL   H10341779   0.220   5.426   0.646  1.2460  2.6917 -1.2548
  139MOL   H10441780   0.599   5.288   0.320  0.6050 -0.2840  0.9231
  139MOL   H10541781   0.714   5.421   0.296 -0.0051 -0.9319  2.9736
  139MOL   H10641782   0.572   5.422   0.198 -0.9834  3.3509  1.5203
  139MOL   C10741783   0.542   5.590   0.653  0.0004 -0.1544  0.1255
  139MOL   C10841784   0.661   5.521   0.733 -0.5377  0.0112  0.4622
  139MOL   C10941785   0.611   5.481   0.884  0.4374  0.1498  0.0450
  139MOL   C11041786   0.710   5.388   0.667  0.6754  0.0764  0.4236
  139MOL   O11141787   0.825   5.380   0.631  0.2483  0.1805  0.0314
  139MOL   O11241788   0.635   5.280   0.674 -0.0693 -0.3315  0.5036
  139MOL   C11341789   0.679   5.166   0.595  0.1865 -0.6309 -0.7212
  139MOL   H11441790   0.503   5.671   0.714  0.9060  0.4137 -0.0512
  139MOL   H11541791   0.600   5.636   0.573  0.1066  1.6515  1.2143
  139MOL   H11641792   0.521   5.421   0.876 -0.0781  1.1109 -1.6377
  139MOL   H11741793   0.687   5.435   0.947  2.0192  0.7555 -1.3822
  139MOL   H11841794   0.587   5.567   0.946 -2.5237  0.4160 -1.3781
  139MOL   H11941795   0.685   5.204   0.493  2.5588  1.5639  0.1763
  139MOL   H12041796   0.608   5.083   0.603  1.5666 -1.5879  2.5020
  139MOL   H12141797   0.776   5.123   0.623  1.7088  2.5230 -1.0003
  139MOL   C12241798   0.777   5.629   0.756  0.0371 -0.6680 -0.3265
  139MOL   C12341799   0.839   5.722   0.645  0.3731 -0.6779 -0.1544
  139MOL   C12441800   0.882   5.648   0.508 -0.6227 -0.7373  0.0093
  139MOL   C12541801   0.734   5.831   0.605 -0.4601 -0.2307 -0.2002
  139MOL   O12641802   0.690   5.898   0.697  0.6409  0.4202 -0.2606
  139MOL   O12741803   0.702   5.849   0.472  0.9374 -0.1158  0.3509
  139MOL   C12841804   0.598   5.935   0.435 -0.5776  0.3654 -0.2150
  139MOL   H12941805   0.856   5.571   0.803  1.5340 -0.7984 -2.8791
  139MOL   H13041806   0.746   5.690   0.840  1.3766 -0.5546  0.0940
  139MOL   H13141807   0.972   5.593   0.535  1.3880  1.7862 -1.3059
  139MOL   H13241808   0.801   5.580   0.482 -0.1045 -1.7926  1.0772
  139MOL   H13341809   0.896   5.713   0.421 -1.5239  0.6650  0.9044
  139MOL   H13441810   0.507   5.936   0.496 -1.4588 -0.5974 -1.4834
  139MOL   H13541811   0.564   5.899   0.338  2.0947  0.6613 -1.2923
  139MOL   H13641812   0.641   6.034   0.437  1.1848 -0.3911  0.4179
  139MOL   C13741813   0.970   5.785   0.713  0.3766 -0.2959  0.2863
  139MOL   C13841814   1.043   5.918   0.673  0.6027  0.4040  0.2455
  139MOL   C13941815   0.954   6.037   0.721  0.0233 -0.3078 -0.7864
  139MOL   C14041816   1.181   5.908   0.754 -0.9000  0.6660  0.2058
  139MOL   O14141817   1.203   5.984   0.848 -0.3811 -0.0698 -0.0172
  139MOL   O14241818   1.255   5.805   0.714 -0.0750  0.1470 -0.1123
  139MOL   C14341819   1.381   5.793   0.764  0.2303  0.0504  0.0110
  139MOL   H14441820   1.038   5.700   0.728 -0.2652 -0.8563  0.0567
  139MOL   H14541821   0.943   5.801   0.817  1.7893  2.5056  0.2591
  139MOL   H14641822   1.021   6.113   0.763  0.3493 -0.6735 -0.6464
  139MOL   H14741823   0.888   6.075   0.643  0.1490 -0.4773 -0.9752
  139MOL   H14841824   0.880   6.014   0.796  2.2214 -0.7565  1.3175
  139MOL   H14941825   1.384   5.776   0.872  3.4992 -0.0080 -0.0280
  139MOL   H15041826   1.436   5.887   0.753  2.8708 -1.5533 -1.0915
  139MOL   H15141827   1.435   5.718   0.706 -0.6606 -0.0992 -0.6292
  139MOL   C15241828   1.075   5.929   0.515 -0.6507  0.7055  0.0882
  139MOL   C15341829   1.183   6.028   0.447 -0.0554  0.2638  0.0097
  139MOL   C15441830   1.188   6.160   0.525  0.5484  0.7512  0.6634
  139MOL   C15541831   1.328   5.957   0.444  0.6765  0.0166 -0.3509
  139MOL   O15641832   1.421   5.994   0.514 -0.0621 -0.4887 -0.3362
  139MOL   O15741833   1.332   5.862   0.354 -0.1067 -0.4661 -0.4743
  139MOL   C15841834   1.459   5.807   0.319  0.5717 -0.2761 -0.0827
  139MOL   H15941835   0.982   5.921   0.459  0.8027  0.3916 -2.3339
  139MOL   H16041836   1.117   5.834   0.482  1.8004  2.1072 -0.9230
  139MOL   H16141837   1.256   6.229   0.474 -2.6286  1.9798 -2.1065
  139MOL   H16241838   1.091   6.210   0.529  0.8383  1.4377 -0.4693
  139MOL   H16341839   1.225   6.142   0.626 -0.1251  0.4867  0.8701
  139MOL   H16441840   1.529   5.888   0.297  0.8937 -0.8847 -1.3964
  139MOL   H16541841   1.457   5.757   0.222 -0.4163 -0.4102  0.0068
  139MOL   H16641842   1.490   5.745   0.403 -0.0819  1.3162  1.3639
  139MOL   C16741843   1.138   6.053   0.295 -0.6682 -0.0439  0.1231
  139MOL   C16841844   1.038   6.159   0.240  0.4850  0.3018 -0.2260
  139MOL   C16941845   0.897   6.135   0.296 -0.6723 -0.0177 -0.1218
  139MOL   C17041846   1.074   6.307   0.287 -0.0805 -0.1355  0.8425
  139MOL   O17141847   0.996   6.384   0.336  0.4218  0.7817  0.1262
  139MOL   O17241848   1.199   6.338   0.259 -0.3224  0.0316  0.1662
  139MOL   C17341849   1.227   6.474   0.225 -0.0044 -0.0986  0.1817
  139MOL   H17441850   1.097   5.958   0.262 -2.0647  0.8929 -0.8828
  139MOL   H17541851   1.224   6.057   0.229 -0.0207  0.1601  0.9728
  139MOL   H17641852   0.855   6.037   0.272 -0.4646 -0.5549  1.6200
  139MOL   H17741853   0.888   6.146   0.405  0.7953  1.3288 -0.1247
  139MOL   H17841854   0.833   6.214   0.258  0.5008 -0.0806 -2.2693
  139MOL   H17941855   1.174   6.499   0.133  1.3746  2.1936 -0.0468
  139MOL   H18041856   1.333   6.488   0.205 -0.5184 -0.0363 -2.6591
  139MOL   H18141857   1.189   6.554   0.289  0.0399 -0.8578  1.1674
  139MOL   C18241858   1.042   6.166   0.080 -0.1149  0.5824 -0.2193
  139MOL   C18341859   0.971   6.065   7.867  0.0215  0.7385  0.6653
  139MOL   C18441860   1.001   5.921   0.033  0.4110  0.2211 -0.0157
  139MOL   C18541861   0.820   6.091   7.867 -0.4084 -0.0177 -0.9024
  139MOL   O18641862   0.745   5.990   7.857  0.3394  0.2756 -0.1933
  139MOL   O18741863   0.780   6.222   7.869  0.0179 -0.3645  0.3749
  139MOL   C18841864   0.640   6.249   0.013 -0.3159  0.6198 -0.2955
  139MOL   H18941865   1.148   6.176   0.057  0.0936 -0.9250  0.0797
  139MOL   H19041866   1.011   6.267   0.055  0.6951  0.7016 -0.7637
  139MOL   H19141867   0.944   5.892   0.122  0.3184  2.5443  0.7062
  139MOL   H19241868   0.970   5.854   7.830 -1.2405  2.2249 -1.0671
  139MOL   H19341869   1.106   5.898   0.053 -0.0746 -2.5811 -0.4306
  139MOL   H19441870   0.593   6.176   0.077  0.0595  0.0502 -0.6657
  139MOL   H19541871   0.601   6.256   7.789 -0.1989  1.0377 -0.3154
  139MOL   H19641872   0.620   6.348   0.054 -1.2907 -0.6659  2.4342
  139MOL   C19741873   1.038   6.101   7.723  0.0666 -0.3147 -0.3971
  139MOL   C19841874   1.051   5.998   7.607 -0.4590 -0.2768  0.5642
  139MOL   C19941875   1.163   5.895   7.632  0.1963 -0.9721  0.6066
  139MOL   C20041876   0.910   5.938   7.581 -0.3402  0.7106  0.0549
  139MOL   O20141877   0.890   5.813   7.577 -0.3293 -0.0898  0.9657
  139MOL   O20241878   0.824   6.028   7.566  0.4361 -0.0377 -0.5275
  139MOL   C20341879   0.694   5.994   7.542  0.3489  0.2243 -0.6754
  139MOL   H20441880   1.136   6.149   7.729 -0.2626  0.4654 -1.0313
  139MOL   H20541881   0.975   6.183   7.689  1.4610  1.3504  0.9524
  139MOL   H20641882   1.264   5.935   7.645  1.2158 -3.1624 -0.2607
  139MOL   H20741883   1.142   5.821   7.709  0.4238 -1.7599 -0.0828
  139MOL   H20841884   1.160   5.828   7.546  1.5389 -1.0485  0.6082
  139MOL   H20941885   0.675   5.968   7.438  2.0874  1.7570 -1.4092
  139MOL   H21041886   0.636   6.082   7.572 -0.3918 -0.0712 -1.2420
  139MOL   H21141887   0.674   5.920   7.619  1.7526  0.9461  0.4303
  139MOL   C21241888   1.099   6.081   7.478  0.1056  0.6600  0.7327
  139MOL   C21341889   1.077   6.046   7.324 -0.8863  0.2733 -0.1647
  139MOL   C21441890   1.107   5.889   7.308  0.3602  0.1487 -0.1702
  139MOL   C21541891   0.931   6.070   7.282 -0.4487 -0.1716 -0.5593
  139MOL   O21641892   0.861   5.983   7.241 -0.8617  0.6759  0.2385
  139MOL   O21741893   0.891   6.201   7.289 -0.2853 -0.3381  0.3274
  139MOL   C21841894   0.763   6.226   7.251  0.1524  0.1806 -1.1962
  139MOL   H21941895   1.206   6.100   7.489 -0.1735  3.3109 -0.7507
  139MOL   H22041896   1.072   6.187   7.473  1.2003  0.9094 -0.0310
  139MOL   H22141897   1.211   5.866   7.332 -0.0698 -1.4297  0.2116
  139MOL   H22241898   1.035   5.824   7.357  0.6101 -0.1338 -0.1796
  139MOL   H22341899   1.085   5.859   7.205  0.0889  2.2704 -0.7583
  139MOL   H22441900   0.744   6.191   7.149 -0.6060  0.8727 -1.2929
  139MOL   H22541901   0.752   6.334   7.244  2.3775  0.4416 -1.2257
  139MOL   H22641902   0.693   6.184   7.322 -0.0608 -0.9289 -2.0434
  139MOL   C22741903   1.159   6.142   7.225 -0.1843  0.2298 -0.4284
  139MOL   C22841904   1.315   6.142   7.184 -0.6307 -0.1858  0.2637
  139MOL   C22941905   1.390   6.163   7.320 -0.1789 -0.3661 -0.3302
  139MOL   C23041906   1.362   6.009   7.124  0.3371 -0.0011 -0.0720
  139MOL   O23141907   1.455   5.945   7.156 -0.5834  0.8065 -0.1138
  139MOL   O23241908   1.277   5.971   7.031  0.3779  0.2022  0.3913
  139MOL   C23341909   1.297   5.852   6.951  0.1416  0.0080 -0.6182
  139MOL   H23441910   1.136   6.243   7.258 -2.1393  0.0241 -1.1116
  139MOL   H23541911   1.105   6.139   7.131  2.5730 -0.4561 -2.0403
  139MOL   H23641912   1.497   6.178   7.306  0.1425 -1.1698  1.1027
  139MOL   H23741913   1.359   6.248   7.380  1.4525  1.7532 -2.3962
  139MOL   H23841914   1.385   6.073   7.382 -0.3193 -2.0799 -2.7688
  139MOL   H23941915   1.268   5.765   7.010 -0.4402 -0.2078 -1.2116
  139MOL   H24041916   1.402   5.855   6.922  0.1335  1.3909 -0.5747
  139MOL   H24141917   1.241   5.872   6.860 -0.4331  1.0708 -0.0402
  139MOL   C24241918   1.360   6.271   7.095 -0.5305  0.2413 -0.1681
  139MOL   C24341919   1.354   6.279   6.940 -0.0068 -0.5031  0.3961
  139MOL   C24441920   1.453   6.178   6.878  0.0535 -0.7839  0.1042
  139MOL   C24541921   1.204   6.250   6.901  0.3528 -0.1534  0.5054
  139MOL   O24641922   1.174   6.158   6.825 -0.7292  0.5182 -0.0608
  139MOL   O24741923   1.114   6.335   6.952  0.2073  0.1348  0.1903
  139MOL   C24841924   0.982   6.337   6.905 -0.4592  0.1078 -0.7087
  139MOL   H24941925   1.464   6.293   7.120 -0.1667 -0.4969 -0.9774
  139MOL   H25041926   1.314   6.359   7.139  1.7961  0.5470  1.7448
  139MOL   H25141927   1.408   6.079   6.871 -0.3452 -0.7520  2.0218
  139MOL   H25241928   1.484   6.191   6.775  1.1786 -1.0988  0.3990
  139MOL   H25341929   1.541   6.180   6.942 -0.5958 -1.1946  1.0281
  139MOL   H25441930   0.979   6.335   6.796 -2.6894 -1.3779 -0.6448
  139MOL   H25541931   0.937   6.430   6.939 -1.5531 -0.5466 -0.3672
  139MOL   H25641932   0.923   6.257   6.950  2.1648 -0.2770  2.2114
  139MOL   C25741933   1.381   6.428   6.900  0.3135  0.6212  0.0244
  139MOL   C25841934   1.403   6.478   6.750  0.5471  0.2224 -0.5500
  139MOL   C25941935   1.549   6.469   6.706  0.2952  0.8871  0.3207
  139MOL   C26041936   1.322   6.403   6.641 -0.1964  0.6085  0.6563
  139MOL   O26141937   1.383   6.317   6.568 -0.1843 -0.0961  0.2911
  139MOL   O26241938   1.195   6.423   6.650  0.0451  0.0347 -0.1954
  139MOL   C26341939   1.108   6.368   6.551  0.0807  0.2550 -0.2012
  139MOL   H26441940   1.471   6.450   6.958 -1.6553  1.2179  2.9389
  139MOL   H26541941   1.308   6.493   6.948 -0.1488 -0.7147  1.1620
  139MOL   H26641942   1.575   6.459   6.601  2.0739 -0.0686  0.8304
  139MOL   H26741943   1.602   6.556   6.744 -2.0379  2.2855  0.4482
  139MOL   H26841944   1.601   6.389   6.760 -1.0178 -0.2786 -0.0962
  139MOL   H26941945   1.006   6.391   6.582 -0.7548 -1.2904 -1.7374
  139MOL   H27041946   1.117   6.260   6.553  1.5910  0.3796  0.3602
  139MOL   H27141947   1.120   6.412   6.452  3.0802  1.3541  0.5754
  139MOL   C27241948   1.348   6.624   6.756 -0.4993  0.2950 -0.1287
  139MOL   C27341949   1.339   6.732   6.641  0.0056 -0.1629  0.0866
  139MOL   C27441950   1.465   6.732   6.554  0.1164  0.2387 -0.1552
  139MOL   C27541951   1.213   6.705   6.552 -0.4667  0.3284 -0.6568
  139MOL   O27641952   1.226   6.677   6.433 -0.4030  0.5333  0.2819
  139MOL   O27741953   1.092   6.737   6.606 -0.2546  0.1095  0.4053
  139MOL   C27841954   0.981   6.744   6.520  0.5774 -0.2219 -0.5391
  139MOL   H27941955   1.405   6.672   6.836 -0.9883  1.1690 -0.2992
  139MOL   H28041956   1.245   6.615   6.791 -0.3381 -0.3271  0.1844
  139MOL   H28141957   1.453   6.808   6.477 -0.3197  0.6910  0.3603
  139MOL   H28241958   1.555   6.766   6.606  0.0249  0.9847 -0.4794
  139MOL   H28341959   1.479   6.635   6.506  0.4224  0.4731 -0.5499
  139MOL   H28441960   0.953   6.642   6.496  1.3690 -1.0025  1.7430
  139MOL   H28541961   0.998   6.799   6.426 -0.3187 -0.4495 -0.8337
  139MOL   H28641962   0.896   6.782   6.576 -0.5025 -1.1938 -1.5036
  139MOL   C28741963   1.329   6.873   6.709  0.4202  0.2062  0.1471
  139MOL   C28841964   1.291   7.001   6.617 -0.5462  0.5121 -0.2006
  139MOL   C28941965   1.175   7.087   6.685  0.5099  0.1859  0.7160
  139MOL   C29041966   1.411   7.098   6.601  0.3058  0.1109 -0.9699
  139MOL   O29141967   1.458   7.127   6.492  0.4378 -0.5226 -0.1854
  139MOL   O29241968   1.462   7.140   6.718  0.1169  0.2711  0.3737
  139MOL   C29341969   1.570   7.229   6.725 -0.4881  0.0057  0.3261
  139MOL   H29441970   1.424   6.891   6.759  1.5650  0.5464 -2.1108
  139MOL   H29541971   1.250   6.872   6.784 -0.9913  0.1925 -1.3055
  139MOL   H29641972   1.168   7.051   6.787  0.2231  0.5846  0.8404
  139MOL   H29741973   1.204   7.192   6.681  1.2877 -0.0675 -1.0578
  139MOL   H29841974   1.087   7.057   6.627  2.0666  0.7954 -2.0663
  139MOL   H29941975   1.541   7.334   6.728 -1.4989 -0.2358 -0.6241
  139MOL   H30041976   1.647   7.209   6.650  1.0160  0.1447  1.7875
  139MOL   H30141977   1.619   7.218   6.822 -4.0904  1.8706  2.4793
  139MOL   H30241978   1.264   6.965   6.518 -0.3531 -1.6315  0.5106
  140MOL     C141979   3.326   0.031   2.506  0.3450  0.1226  0.0577
  140MOL     C241980   3.405   7.837   2.396 -0.4042 -0.2603  1.0244
  140MOL     C341981   3.552   0.024   2.400  0.0666 -0.1363  0.3370
  140MOL     C441982   3.413   7.683   2.435 -0.2157 -0.5279 -0.0550
  140MOL     O541983   3.519   7.633   2.473  0.3926  0.3568  0.0449
  140MOL     O641984   3.301   7.617   2.426  0.3772  0.0364  0.4608
  140MOL     C741985   3.296   7.487   2.468  0.6195 -0.0978 -0.9086
  140MOL     H841986   3.222   0.004   2.491 -0.0906  0.1429  2.8145
  140MOL     H941987   3.375   0.006   2.600 -1.4000  0.0263  0.9411
  140MOL    H1041988   3.555   0.132   2.393 -1.4730 -0.1266 -0.4182
  140MOL    H1141989   3.604   7.861   2.487 -0.9048 -2.4749 -0.1249
  140MOL    H1241990   3.603   7.876   2.306  0.1241  0.7435  0.1285
  140MOL    H1341991   3.302   7.480   2.577  0.0151  0.6721 -0.8271
  140MOL    H1441992   3.382   7.427   2.435  1.5048  0.6193  0.0635
  140MOL    H1541993   3.205   7.443   2.428  1.0771 -0.7987 -1.1872
  140MOL    H1641994   3.327   0.140   2.499 -0.9754  0.0612 -1.3586
  140MOL    C1741995   3.344   7.865   2.258  0.6610 -0.2646  0.4717
  140MOL    C1841996   3.361   7.777   2.124 -0.3895 -0.1167 -0.1555
  140MOL    C1941997   3.509   7.726   2.111 -0.6322 -0.2772  0.3325
  140MOL    C2041998   3.259   7.658   2.125  0.1390  0.1130  0.3531
  140MOL    O2141999   3.309   7.541   2.118  0.2572  0.6744 -0.0297
  140MOL    O2242000   3.129   7.695   2.129 -0.2030  0.4585  0.3197
  140MOL    C2342001   3.028   7.599   2.124 -0.1194  0.2387 -0.3666
  140MOL    H2442002   3.372   0.091   2.241 -0.5245 -0.3004 -1.8276
  140MOL    H2542003   3.236   7.872   2.263  0.6599  0.7358 -0.6462
  140MOL    H2642004   3.512   7.649   2.034 -0.9039  1.2476 -1.2151
  140MOL    H2742005   3.567   7.815   2.087 -1.3930  0.3143  0.6728
  140MOL    H2842006   3.545   7.669   2.197  1.9015  0.3934 -0.2385
  140MOL    H2942007   2.938   7.642   2.167  0.5767  2.0678 -0.6721
  140MOL    H3042008   3.053   7.513   2.185 -2.8858 -0.3440  0.0228
  140MOL    H3142009   3.011   7.572   2.019 -2.4973 -0.7833  0.2558
  140MOL    C3242010   3.313   7.874   2.013  0.0802 -0.4532 -0.4242
  140MOL    C3342011   3.310   7.838   1.864  0.5888  0.2107 -0.1334
  140MOL    C3442012   3.420   7.738   1.808 -0.4011  0.9116 -0.0634
  140MOL    C3542013   3.170   7.794   1.806 -0.5510 -0.0324 -0.6375
  140MOL    O3642014   3.157   7.699   1.728  0.1960 -0.0767 -0.4905
  140MOL    O3742015   3.071   7.870   1.857  0.4166  0.1778  0.1705
  140MOL    C3842016   2.944   7.822   1.848 -0.0258 -0.7327 -0.1943
  140MOL    H3942017   3.378   0.084   2.018  0.0649 -0.5192  1.0277
  140MOL    H4042018   3.221   0.047   2.042 -0.2073 -0.7046 -0.9077
  140MOL    H4142019   3.402   7.640   1.852 -0.6638  1.2511  0.5907
  140MOL    H4242020   3.409   7.719   1.701 -1.8805 -0.8774  0.3758
  140MOL    H4342021   3.526   7.759   1.822  0.0547 -0.2184 -1.6896
  140MOL    H4442022   2.929   7.794   1.744  3.4216  1.1253 -1.2612
  140MOL    H4542023   2.869   0.020   1.867  0.4467  0.0487 -1.4032
  140MOL    H4642024   2.939   7.734   1.912  0.3941 -0.0604  0.7804
  140MOL    C4742025   3.361   0.087   1.777  0.7345 -0.1841 -0.4993
  140MOL    C4842026   3.330   0.242   1.794  0.3146 -0.0041 -0.3465
  140MOL    C4942027   3.197   0.270   1.861 -0.1382  0.6281  1.0486
  140MOL    C5042028   3.430   0.310   1.886 -0.2749 -0.4536 -0.1997
  140MOL    O5142029   3.520   0.247   1.950 -0.3650 -0.1668  0.0770
  140MOL    O5242030   3.402   0.440   1.898  0.1483  0.1721  0.4348
  140MOL    C5342031   3.488   0.514   1.978 -0.6160 -0.1737  1.0340
  140MOL    H5442032   3.318   0.063   1.679  0.0302  0.1866 -0.2881
  140MOL    H5542033   3.468   0.084   1.755  1.0743 -2.2599  1.3404
  140MOL    H5642034   3.117   0.225   1.802 -1.5478  0.2458  3.1872
  140MOL    H5742035   3.191   0.217   1.956  0.3761  1.3141  1.4642
  140MOL    H5842036   3.168   0.375   1.866 -0.3813  0.6611 -0.7364
  140MOL    H5942037   3.455   0.617   1.964 -1.0473 -0.5995 -1.2253
  140MOL    H6042038   3.586   0.498   1.935 -1.7391  0.0757 -1.7081
  140MOL    H6142039   3.475   0.474   2.079 -0.4575 -2.9783 -0.0133
  140MOL    C6242040   3.331   0.316   1.649 -0.0864  0.7380 -0.5858
  140MOL    C6342041   3.452   0.360   1.558  0.5046 -0.3526 -0.1319
  140MOL    C6442042   3.388   0.405   1.429 -0.0582 -0.0754 -0.1397
  140MOL    C6542043   3.531   0.480   1.620  0.7078  0.2318 -0.7512
  140MOL    O6642044   3.638   0.463   1.674  0.6482 -0.4790  0.1032
  140MOL    O6742045   3.470   0.600   1.606  0.0116 -0.0893 -0.7281
  140MOL    C6842046   3.544   0.708   1.634 -0.4406  0.1313  0.4924
  140MOL    H6942047   3.276   0.410   1.655 -1.7747 -0.0839 -2.5302
  140MOL    H7042048   3.274   0.251   1.582  1.3098  0.7767 -1.8453
  140MOL    H7142049   3.303   0.470   1.446 -0.7647 -0.3307 -2.4807
  140MOL    H7242050   3.465   0.440   1.360  0.8242  1.1011  1.3970
  140MOL    H7342051   3.331   0.323   1.385 -2.6227  2.0990 -0.9895
  140MOL    H7442052   3.600   0.697   1.727  0.9775  1.2615 -0.1990
  140MOL    H7542053   3.477   0.793   1.651 -0.4046  0.3082 -0.2131
  140MOL    H7642054   3.605   0.730   1.546 -1.7332  2.6476  0.1527
  140MOL    C7742055   3.550   0.235   1.532 -0.2074 -0.2617  0.7695
  140MOL    C7842056   3.651   0.219   1.408  0.4788  0.3090 -0.1901
  140MOL    C7942057   3.734   0.351   1.401 -0.0793 -0.3626 -0.2944
  140MOL    C8042058   3.744   0.105   1.455  0.7226  0.0788  0.3192
  140MOL    O8142059   3.865   0.119   1.476 -0.0653  0.3667  0.9245
  140MOL    O8242060   3.672   7.859   1.476  0.4186  0.2582  0.9618
  140MOL    C8342061   3.749   7.754   1.524 -0.0849  0.0984  0.0408
  140MOL    H8442062   3.487   0.147   1.516 -0.1855  0.1054 -1.5107
  140MOL    H8542063   3.588   0.218   1.632 -0.9414 -1.0139  0.9257
  140MOL    H8642064   3.678   0.443   1.386  0.8630 -0.1012 -2.3964
  140MOL    H8742065   3.784   0.362   1.497  2.3906 -1.0188 -1.4378
  140MOL    H8842066   3.806   0.341   1.319  0.8786 -0.6391  0.5640
  140MOL    H8942067   3.692   7.662   1.516 -2.7991  1.8073 -1.0814
  140MOL    H9042068   3.785   7.773   1.625  3.7115  0.5042 -1.2981
  140MOL    H9142069   3.843   7.745   1.469 -0.4123  0.7904 -0.6474
  140MOL    C9242070   3.581   0.179   1.272 -0.0468  0.1267  0.3664
  140MOL    C9342071   3.650   0.189   1.128 -0.1281 -0.8684 -0.4243
  140MOL    C9442072   3.670   0.338   1.086  0.0019  0.1611  0.1425
  140MOL    C9542073   3.791   0.118   1.131  0.0472 -0.5962  1.2111
  140MOL    O9642074   3.896   0.186   1.142  0.8125  0.0589 -0.3461
  140MOL    O9742075   3.791   7.864   1.122  0.1555  0.0094  0.2748
  140MOL    C9842076   3.906   7.773   1.127 -0.6311 -0.0637  0.6317
  140MOL    H9942077   3.478   0.213   1.271 -0.0694  0.0287 -0.6080
  140MOL   H10042078   3.553   0.074   1.282 -0.5628  0.0812 -1.3584
  140MOL   H10142079   3.772   0.376   1.089  0.3985 -0.8895  0.3390
  140MOL   H10242080   3.657   0.363   0.981 -0.9133 -1.4388 -0.1428
  140MOL   H10342081   3.612   0.405   1.148 -0.2655  0.8913 -0.8794
  140MOL   H10442082   3.918   7.738   1.230  1.9212  0.9971  0.7479
  140MOL   H10542083   4.004   7.819   1.108 -0.0458 -1.6024 -0.1492
  140MOL   H10642084   3.893   7.690   1.058 -0.2777  0.5950 -0.2275
  140MOL   C10742085   3.566   0.122   1.010 -0.9604 -0.0745 -0.0391
  140MOL   C10842086   3.408   0.134   0.994 -0.4867 -0.0541 -0.6155
  140MOL   C10942087   3.341   0.046   1.097 -0.2264 -0.4050  0.5985
  140MOL   C11042088   3.370   0.282   1.001  0.2318 -0.5484  0.0440
  140MOL   O11142089   3.307   0.329   1.092  0.4070  0.8079 -0.0369
  140MOL   O11242090   3.406   0.353   0.892 -0.1705  0.3463 -0.7821
  140MOL   C11342091   3.345   0.478   0.865  0.2164  0.0713  0.2897
  140MOL   H11442092   3.583   0.014   1.015 -3.5998 -0.4482  1.9115
  140MOL   H11542093   3.622   0.150   0.921  1.5242  1.6909  1.9915
  140MOL   H11642094   3.350   0.077   1.201  0.6108  1.0040  0.1230
  140MOL   H11742095   3.232   0.041   1.086 -0.0111 -0.3851 -1.7931
  140MOL   H11842096   3.378   7.823   1.075 -1.0068 -0.2335 -1.6206
  140MOL   H11942097   3.387   0.568   0.911 -0.0345  0.1555  0.3583
  140MOL   H12042098   3.238   0.474   0.888  0.3908 -0.6297  0.9783
  140MOL   H12142099   3.347   0.491   0.757  0.0270  1.9324  0.4836
  140MOL   C12242100   3.371   0.079   0.849 -0.1751 -0.1610  0.2718
  140MOL   C12342101   3.218   0.042   0.800  0.1084 -0.8133  0.0194
  140MOL   C12442102   3.170   7.782   0.849 -0.2030 -0.5796  0.5734
  140MOL   C12542103   3.118   0.154   0.839 -0.1869  0.1524 -0.6629
  140MOL   O12642104   3.024   0.122   0.914  0.1636  0.3667 -1.0930
  140MOL   O12742105   3.137   0.269   0.776  0.0516  0.5975 -1.3444
  140MOL   C12842106   3.034   0.363   0.773  0.1020  1.0324 -0.4103
  140MOL   H12942107   3.426   7.864   0.842 -0.9486 -1.1716  5.2719
  140MOL   H13042108   3.425   0.142   0.779  1.5968 -0.3348  1.4537
  140MOL   H13142109   3.157   7.787   0.957  1.3868  3.2950  0.6879
  140MOL   H13242110   3.069   7.765   0.810 -0.0499  1.5387 -0.8858
  140MOL   H13342111   3.238   7.698   0.838 -1.5430 -1.5092 -0.9014
  140MOL   H13442112   2.975   0.363   0.865  0.2922  0.0936 -0.2816
  140MOL   H13542113   2.968   0.359   0.687 -1.5272  2.1394  0.7319
  140MOL   H13642114   3.067   0.466   0.791 -2.3286  1.7095  0.3464
  140MOL   C13742115   3.222   0.021   0.646 -0.8183 -0.0822  0.8050
  140MOL   C13842116   3.306   0.099   0.534 -0.0771 -0.6408  0.0974
  140MOL   C13942117   3.286   0.248   0.540  0.3430  0.2180 -0.3637
  140MOL   C14042118   3.462   0.067   0.546 -0.1283  0.1254 -0.3384
  140MOL   O14142119   3.547   0.157   0.545 -0.1743  0.1570 -0.7836
  140MOL   O14242120   3.486   7.812   0.557  0.0139  0.1205 -0.3632
  140MOL   C14342121   3.619   7.768   0.578  0.0280  0.3498 -0.4029
  140MOL   H14442122   3.117   0.027   0.615 -0.7116  0.3597  0.5156
  140MOL   H14542123   3.249   7.794   0.634  0.2378  0.4692 -2.0684
  140MOL   H14642124   3.329   0.301   0.455 -1.3527 -1.3862 -2.2728
  140MOL   H14742125   3.178   0.256   0.527  0.0080 -2.5764  0.3034
  140MOL   H14842126   3.316   0.285   0.637  3.1845  2.0809 -1.8875
  140MOL   H14942127   3.697   7.823   0.526  2.3481 -0.6906  1.8419
  140MOL   H15042128   3.624   7.664   0.549 -0.7828  0.4718 -0.9874
  140MOL   H15142129   3.641   7.767   0.685 -0.4830  0.3996 -0.2955
  140MOL   C15242130   3.254   0.037   0.400 -0.2351 -0.0639  0.7167
  140MOL   C15342131   3.281   0.086   0.260  0.3274  1.1206 -0.4569
  140MOL   C15442132   3.163   0.183   0.219  0.3243  0.2507  0.1006
  140MOL   C15542133   3.415   0.163   0.237 -0.3508  0.0856 -0.0557
  140MOL   O15642134   3.414   0.286   0.227 -0.1956 -0.4259  0.1279
  140MOL   O15742135   3.530   0.094   0.255 -0.0119  0.2500 -0.3314
  140MOL   C15842136   3.658   0.171   0.260  0.6722  0.3660 -0.2769
  140MOL   H15942137   3.146   0.039   0.411 -0.3696 -0.7615 -0.3586
  140MOL   H16042138   3.267   7.806   0.405  0.2276  0.0829  3.0468
  140MOL   H16142139   3.154   0.261   0.295 -1.2564 -1.4471  1.7154
  140MOL   H16242140   3.171   0.223   0.118  1.6101 -1.0858 -0.3490
  140MOL   H16342141   3.063   0.140   0.226  0.8843 -1.1488 -0.2966
  140MOL   H16442142   3.650   0.237   0.346  0.9574 -2.2764  1.8482
  140MOL   H16542143   3.665   0.220   0.163 -0.6608 -0.4319 -0.7924
  140MOL   H16642144   3.749   0.112   0.266  0.3600 -0.0063  0.8932
  140MOL   C16742145   3.264   7.846   0.152 -0.5216  0.4799 -0.3333
  140MOL   C16842146   3.363   7.726   0.128  0.2523 -0.3921  0.6988
  140MOL   C16942147   3.416   7.671   0.255 -0.0500  0.0260 -0.2612
  140MOL   C17042148   3.274   7.615   0.059  0.5617 -0.5144 -0.0424
  140MOL   O17142149   3.263   7.503   0.113  0.0608  0.5120 -0.2953
  140MOL   O17242150   3.220   7.656   7.829 -0.6255  0.2563  0.5145
  140MOL   C17342151   3.120   7.567   7.777 -0.0989 -0.2854 -0.0048
  140MOL   H17442152   3.251   0.007   0.051 -2.1715  2.3547  0.5799
  140MOL   H17542153   3.171   7.798   0.182  0.7264 -1.2431  0.8973
  140MOL   H17642154   3.463   7.575   0.239 -1.7808 -0.9389  0.2782
  140MOL   H17742155   3.472   7.742   0.315 -1.3788 -0.1549  1.2431
  140MOL   H17842156   3.335   7.637   0.320 -1.5468  1.0097 -1.5757
  140MOL   H17942157   3.042   7.550   7.852  1.0042 -0.3677  1.1411
  140MOL   H18042158   3.168   7.471   7.755 -0.5253 -0.8115  1.3020
  140MOL   H18142159   3.083   7.602   7.681  2.8787  0.2428 -1.0006
  140MOL   C18242160   3.476   7.762   0.021  0.2830  0.4200 -0.1590
  140MOL   C18342161   3.614   7.689   7.865  0.6697  0.5760  0.1165
  140MOL   C18442162   3.719   7.691   0.105  0.1486 -0.0733  0.7940
  140MOL   C18542163   3.588   7.540   7.835  0.3401 -0.2508  0.1589
  140MOL   O18642164   3.644   7.444   0.013  0.2857  0.2090 -0.0864
  140MOL   O18742165   3.496   7.527   7.731  0.5164 -0.9735  0.1949
  140MOL   C18842166   3.459   7.394   7.690 -0.1013  0.0551 -0.3033
  140MOL   H18942167   3.509   7.863   0.045  0.0093  0.8892 -1.7163
  140MOL   H19042168   3.429   7.776   7.801  2.3422 -0.1785 -1.2629
  140MOL   H19142169   3.752   7.793   0.124  1.0346 -0.3047  0.4983
  140MOL   H19242170   3.682   7.650   0.199 -1.3206 -1.6605 -0.4122
  140MOL   H19342171   3.804   7.625   0.090  0.7480  0.6624  0.9453
  140MOL   H19442172   3.479   7.312   7.759  0.6719  0.6569  0.1821
  140MOL   H19542173   3.522   7.373   7.603  0.4332  0.0137  0.0962
  140MOL   H19642174   3.351   7.402   7.673 -0.1847 -1.4373 -0.5147
  140MOL   C19742175   3.668   7.761   7.736 -0.5474 -0.1960 -0.7844
  140MOL   C19842176   3.817   7.749   7.678 -1.0577 -0.1698  0.4268
  140MOL   C19942177   3.818   7.836   7.550  0.2551  0.3262 -0.4180
  140MOL   C20042178   3.920   7.811   7.775 -0.6696 -0.0225 -0.1048
  140MOL   O20142179   3.989   7.751   7.849 -0.2058 -0.1465 -0.9222
  140MOL   O20242180   3.925   0.060   7.772  0.3517 -0.1622 -0.4449
  140MOL   C20342181   4.017   0.129   7.853  0.0106 -0.0497  0.4840
  140MOL   H20442182   3.662   7.867   7.763 -0.4132 -0.3632 -0.0794
  140MOL   H20542183   3.598   7.747   7.654 -0.0465  0.1852 -1.2840
  140MOL   H20642184   3.756   7.796   7.470 -0.7801  1.4895 -0.2074
  140MOL   H20742185   3.771   0.053   7.577 -1.5145 -0.9996  1.3503
  140MOL   H20842186   3.917   7.867   7.515  0.7149  1.8830  2.1169
  140MOL   H20942187   4.015   0.091   0.078 -0.5626 -0.9457  0.1386
  140MOL   H21042188   3.990   0.235   7.852  1.9731  0.4649  0.1381
  140MOL   H21142189   4.108   0.089   7.808 -1.1230 -0.3251 -1.6103
  140MOL   C21242190   3.846   7.597   7.645 -0.2846  0.6114 -0.3780
  140MOL   C21342191   3.964   7.548   7.556  0.1091 -0.2652  0.1579
  140MOL   C21442192   3.944   7.395   7.583 -0.0446 -0.0538 -0.6362
  140MOL   C21542193   3.934   7.568   7.406  0.2609 -0.1868 -0.2978
  140MOL   O21642194   3.865   7.489   7.337  0.2007  0.2907 -0.2331
  140MOL   O21742195   3.998   7.680   7.364 -0.4687 -0.2834  0.2443
  140MOL   C21842196   4.004   7.711   7.232  0.5572  0.5254 -0.7452
  140MOL   H21942197   3.759   7.552   7.596 -0.9648  2.1450 -0.6054
  140MOL   H22042198   3.855   7.555   7.745  0.5772  0.9478 -0.3160
  140MOL   H22142199   4.010   7.345   7.512  1.5810  2.1338 -0.7202
  140MOL   H22242200   3.990   7.360   7.676 -1.0647 -1.3657 -0.6045
  140MOL   H22342201   3.843   7.356   7.577 -0.4476  0.7255  0.9437
  140MOL   H22442202   4.083   7.783   7.213 -0.1122  1.6642  0.6519
  140MOL   H22542203   3.910   7.755   7.197 -0.9620 -0.1484  2.2524
  140MOL   H22642204   4.026   7.620   7.176  0.5546 -0.0018  0.1047
  140MOL   C22742205   4.112   7.580   7.604 -0.1006 -0.1260 -0.0566
  140MOL   C22842206   4.256   7.550   7.540 -0.6383  0.0422 -0.3663
  140MOL   C22942207   4.267   7.405   7.474  0.2305 -0.5969  0.3070
  140MOL   C23042208   4.283   7.671   7.438  0.2420 -0.2622 -0.1297
  140MOL   O23142209   4.281   7.650   7.322 -0.3250 -0.2587 -0.1659
  140MOL   O23242210   4.292   7.788   7.493 -0.0341 -0.5486 -0.3350
  140MOL   C23342211   4.264   0.023   7.416  0.5188 -0.1540  0.5071
  140MOL   H23442212   4.117   7.564   7.711  0.5783 -1.1482 -0.2379
  140MOL   H23542213   4.105   7.689   7.610  0.5968 -0.1167  0.6308
  140MOL   H23642214   4.180   7.400   7.409  1.1292  0.3829 -0.9939
  140MOL   H23742215   4.353   7.397   7.408 -0.4856 -0.6655 -0.6222
  140MOL   H23842216   4.250   7.323   7.544  0.1024 -2.3019 -1.6846
  140MOL   H23942217   4.230   0.003   7.314 -0.5812 -0.2239  0.8852
  140MOL   H24042218   4.356   0.082   7.410  1.3847 -1.6104 -1.4615
  140MOL   H24142219   4.185   0.082   7.461 -1.0363 -1.5441 -0.3672
  140MOL   C24242220   4.357   7.553   7.664 -0.5514  0.0584 -0.4346
  140MOL   C24342221   4.512   7.518   7.644 -0.4916 -0.5560  0.8731
  140MOL   C24442222   4.533   7.363   7.654  0.0399  0.3771 -0.1852
  140MOL   C24542223   4.567   7.569   7.510  0.6696 -0.1226  0.0680
  140MOL   O24642224   4.585   7.499   7.412  0.1842 -0.2306 -0.2327
  140MOL   O24742225   4.592   7.700   7.518 -0.0954  0.3619  0.1643
  140MOL   C24842226   4.641   7.767   7.401 -0.3593  0.3832  0.1703
  140MOL   H24942227   4.325   7.480   7.738 -1.6903  0.3759 -0.6088
  140MOL   H25042228   4.343   7.649   7.714  2.9282  0.4645 -0.1236
  140MOL   H25142229   4.524   7.323   7.755 -1.3496 -1.7460 -1.1273
  140MOL   H25242230   4.471   7.308   7.584 -0.8061  0.2415  0.6544
  140MOL   H25342231   4.635   7.343   7.620 -0.2049  1.5963 -1.6894
  140MOL   H25442232   4.563   7.815   7.341  1.2042  1.5304 -0.9890
  140MOL   H25542233   4.716   7.712   7.345 -0.7336  1.8804 -1.9002
  140MOL   H25642234   4.703   7.850   7.435 -1.6294  1.2297  0.5050
  140MOL   C25742235   4.604   7.597   7.752 -0.8064 -0.2320  0.3712
  140MOL   C25842236   4.612   7.551   0.028  0.3216 -0.6157  0.1113
  140MOL   C25942237   4.470   7.513   0.081  0.5322 -0.6234  0.8333
  140MOL   C26042238   4.714   7.435   0.049  0.3198 -0.4278  0.3699
  140MOL   O26142239   4.703   7.369   0.155 -0.2344  0.5462  0.4137
  140MOL   O26242240   4.818   7.426   7.842  0.0677  0.7681 -0.4016
  140MOL   C26342241   4.912   7.325   7.850  0.0055  0.1911  0.4700
  140MOL   H26442242   4.572   7.701   7.756  0.9799  0.3656 -0.4608
  140MOL   H26542243   4.707   7.597   7.716 -0.3223  0.1858  1.7367
  140MOL   H26642244   4.432   7.416   0.051 -1.0790  0.1308  0.3800
  140MOL   H26742245   4.474   7.519   0.190  2.7050 -0.0138  0.7530
  140MOL   H26842246   4.400   7.594   0.058  0.6590 -0.5086  0.8526
  140MOL   H26942247   4.995   7.357   7.787  1.3294 -3.6799  0.0950
  140MOL   H27042248   4.870   7.229   7.820  1.2135  0.0155 -0.7013
  140MOL   H27142249   4.955   7.329   0.072  2.1309 -2.2027 -0.2888
  140MOL   C27242250   4.648   7.672   0.127  1.0260  0.1820 -0.7481
  140MOL   C27342251   4.772   7.764   0.116 -0.0671 -0.3279  0.4137
  140MOL   C27442252   4.910   7.688   0.106  0.1669  0.5194  0.4156
  140MOL   C27542253   4.753   7.860   7.871 -0.3498 -0.5360 -0.0880
  140MOL   O27642254   4.845   0.012   7.796 -0.2172  0.0856 -0.1688
  140MOL   O27742255   4.629   0.037   7.858  0.5219 -0.2461  0.0501
  140MOL   C27842256   4.601   0.125   7.752  0.2308  0.3831 -0.1855
  140MOL   H27942257   4.658   7.628   0.226 -0.2796  1.5493  0.0035
  140MOL   H28042258   4.565   7.739   0.147  1.0598 -0.9646  3.8106
  140MOL   H28142259   4.923   7.654   0.003 -1.5746  0.6368  0.1466
  140MOL   H28242260   5.003   7.741   0.126 -1.0058  1.4782  3.6149
  140MOL   H28342261   4.902   7.599   0.168  0.3436  1.4486  1.7890
  140MOL   H28442262   4.679   0.148   7.680 -0.6710 -2.0853 -1.9726
  140MOL   H28542263   4.591   0.219   7.808  0.6784  0.0827  0.4113
  140MOL   H28642264   4.510   0.098   7.699  1.3324 -1.6692 -1.0748
  140MOL   C28742265   4.765   7.859   0.241  0.2259  0.3005 -0.5184
  140MOL   C28842266   4.856   0.107   0.246  0.4759  0.4243  0.6915
  140MOL   C28942267   4.800   0.184   0.367  0.3250 -0.5548  0.0387
  140MOL   C29042268   5.006   0.082   0.265  0.3961 -0.3070 -0.0628
  140MOL   O29142269   5.046   7.863   0.320 -0.5337 -0.7624  0.1892
  140MOL   O29242270   5.082   0.173   0.213  0.3416  0.5125  0.4395
  140MOL   C29342271   5.218   0.154   0.214  0.0178  0.2067  0.0975
  140MOL   H29442272   4.789   7.791   0.323 -0.5020 -0.7806 -1.1793
  140MOL   H29542273   4.662   0.008   0.268 -0.1198 -0.4510 -1.0618
  140MOL   H29642274   4.699   0.213   0.339  0.8843  0.5405 -0.8831
  140MOL   H29742275   4.802   0.122   0.457  1.8288  1.7971  1.6707
  140MOL   H29842276   4.857   0.273   0.391 -1.8355  0.4214  1.7065
  140MOL   H29942277   5.280   0.221   0.153 -0.4962  1.3374  0.8184
  140MOL   H30042278   5.243   0.054   0.177 -1.6697 -0.2163  0.0951
  140MOL   H30142279   5.257   0.171   0.314  1.7907 -0.2667 -0.4880
  140MOL   H30242280   4.839   0.169   0.158 -2.2161 -1.6450 -0.3084
  141MOL     C142281   6.106   3.877   5.719  0.1203 -0.1317  0.4370
  141MOL     C242282   6.164   3.803   5.597 -0.0441  0.0594 -0.6616
  141MOL     C342283   6.278   3.711   5.655  0.1285 -0.4457  0.5538
  141MOL     C442284   6.051   3.714   5.531 -0.1328 -0.0561  0.0892
  141MOL     O542285   6.073   3.596   5.503  0.4852 -0.0853 -0.3326
  141MOL     O642286   5.938   3.790   5.505 -0.1583 -0.2472 -0.5635
  141MOL     C742287   5.826   3.729   5.443  0.0677 -0.1946 -0.2217
  141MOL     H842288   6.038   3.813   5.775 -1.1622 -1.2117 -2.2915
  141MOL     H942289   6.186   3.909   5.787  1.5590 -0.3524 -1.1228
  141MOL    H1042290   6.364   3.766   5.693  0.2238  1.6441 -2.5333
  141MOL    H1142291   6.254   3.669   5.753 -0.4155  0.2440  0.7252
  141MOL    H1242292   6.320   3.644   5.581 -0.1475  2.1165 -1.9939
  141MOL    H1342293   5.824   3.734   5.334  2.1404 -1.1866 -0.3467
  141MOL    H1442294   5.739   3.789   5.470  0.5135 -0.6556  2.4234
  141MOL    H1542295   5.818   3.625   5.473 -0.9796 -0.7224 -2.2784
  141MOL    H1642296   6.052   3.970   5.705 -0.4512 -0.7251 -1.3855
  141MOL    C1742297   6.216   3.906   5.491 -0.3535  0.3816 -0.1869
  141MOL    C1842298   6.306   3.875   5.363 -0.0829  0.1561  0.0963
  141MOL    C1942299   6.442   3.814   5.405  0.5701  0.2643 -0.6922
  141MOL    C2042300   6.237   3.766   5.278  0.2559 -0.1087 -0.0946
  141MOL    O2142301   6.304   3.676   5.229  0.0211 -0.5096 -0.0834
  141MOL    O2242302   6.110   3.789   5.243  0.2020 -0.5580  0.4207
  141MOL    C2342303   6.045   3.705   5.160 -0.2764  0.0642  0.5250
  141MOL    H2442304   6.274   3.976   5.552 -1.7605 -0.7045  2.5046
  141MOL    H2542305   6.125   3.952   5.453 -0.1377 -0.9713 -2.3960
  141MOL    H2642306   6.524   3.842   5.339 -0.2083  2.0338 -0.9338
  141MOL    H2742307   6.482   3.849   5.500  2.2525 -0.8510 -0.9648
  141MOL    H2842308   6.450   3.706   5.423  0.7472  0.5246  0.8619
  141MOL    H2942309   5.950   3.744   5.125 -0.1360  0.7077  0.8609
  141MOL    H3042310   6.022   3.613   5.213 -5.5294 -0.5178 -2.4734
  141MOL    H3142311   6.113   3.685   5.076 -0.2226 -0.5076  0.7064
  141MOL    C3242312   6.328   4.002   5.274 -0.0100 -0.0527  0.1562
  141MOL    C3342313   6.382   4.011   5.128 -0.5884 -0.3001 -0.0046
  141MOL    C3442314   6.513   3.938   5.107 -0.3537  0.0762 -0.1198
  141MOL    C3542315   6.285   3.944   5.023 -0.6131 -0.7095 -0.0457
  141MOL    O3642316   6.314   3.863   4.937 -0.2937  0.0531  0.0992
  141MOL    O3742317   6.164   3.995   5.041  0.2475  0.2871  0.1681
  141MOL    C3842318   6.072   3.964   4.930 -0.0140  0.1863 -0.0580
  141MOL    H3942319   6.385   4.069   5.339  1.5038 -1.7695  0.6559
  141MOL    H4042320   6.232   4.053   5.271  0.5585  1.0673  0.5429
  141MOL    H4142321   6.508   3.829   5.108 -0.8871  0.1051  0.2689
  141MOL    H4242322   6.554   3.963   5.009  1.0385 -1.3481  0.0710
  141MOL    H4342323   6.581   3.973   5.185 -1.8118  0.7013  0.8715
  141MOL    H4442324   6.115   4.026   4.852  0.7054  0.2624  0.3968
  141MOL    H4542325   5.969   3.994   4.954  0.4127  1.9303 -0.3496
  141MOL    H4642326   6.079   3.858   4.906  1.2054 -0.4736  2.9445
  141MOL    C4742327   6.392   4.167   5.091  1.1450  0.2749 -0.0518
  141MOL    C4842328   6.451   4.241   4.964 -0.3244 -0.0636 -0.2871
  141MOL    C4942329   6.409   4.182   4.832  0.6437 -0.5944  0.0938
  141MOL    C5042330   6.398   4.389   4.963  0.1885 -0.7951 -0.4963
  141MOL    O5142331   6.374   4.450   4.856  0.4397 -0.0688 -0.0321
  141MOL    O5242332   6.374   4.440   5.080  0.0564 -0.6254  0.2544
  141MOL    C5342333   6.308   4.567   5.094  0.4926 -0.4139  0.9242
  141MOL    H5442334   6.423   4.222   5.180  0.2346 -1.1191  1.1387
  141MOL    H5542335   6.288   4.199   5.088 -0.0715 -3.5400 -2.4099
  141MOL    H5642336   6.310   4.213   4.801  1.5982  0.2529 -2.2480
  141MOL    H5742337   6.481   4.212   4.755  0.7847 -1.7432 -0.2339
  141MOL    H5842338   6.409   4.073   4.822 -0.5341 -0.5653 -0.3313
  141MOL    H5942339   6.363   4.653   5.056 -1.6322  0.7261  0.3400
  141MOL    H6042340   6.293   4.584   5.200  2.5287 -0.7130  1.2799
  141MOL    H6142341   6.213   4.564   5.040  0.5613  0.9576  0.7063
  141MOL    C6242342   6.607   4.250   4.964  0.1976  0.2701 -0.7349
  141MOL    C6342343   6.709   4.318   5.068  0.3886 -0.7300  0.1430
  141MOL    C6442344   6.845   4.284   5.007  0.5998 -0.0307 -0.8206
  141MOL    C6542345   6.688   4.475   5.065 -0.1255 -0.0948 -0.1488
  141MOL    O6642346   6.670   4.542   5.168  0.2345  0.5843  0.4399
  141MOL    O6742347   6.705   4.530   4.945  0.5232 -0.2529 -0.3282
  141MOL    C6842348   6.649   4.657   4.914 -0.3537 -0.1027  0.1031
  141MOL    H6942349   6.631   4.299   4.869  1.1866  2.9855  0.8748
  141MOL    H7042350   6.631   4.146   4.942  1.4144  0.3647  0.1181
  141MOL    H7142351   6.913   4.338   5.072 -0.7566  1.4215 -0.5590
  141MOL    H7242352   6.856   4.177   4.992 -1.9560 -0.4665  0.1873
  141MOL    H7342353   6.854   4.321   4.904  1.1948  0.4789 -0.5836
  141MOL    H7442354   6.581   4.646   4.830  2.7358 -1.5469 -2.3311
  141MOL    H7542355   6.722   4.736   4.894 -1.2525  1.1958  1.8161
  141MOL    H7642356   6.598   4.701   5.000  1.0840 -0.9111  1.4046
  141MOL    C7742357   6.688   4.257   5.209 -0.0731 -0.1525  0.0988
  141MOL    C7842358   6.800   4.235   5.310  0.2462  0.5507 -0.6181
  141MOL    C7942359   6.719   4.181   5.436 -0.2805  0.0522 -0.4201
  141MOL    C8042360   6.913   4.133   5.272 -0.3193 -0.0644 -0.5148
  141MOL    O8142361   7.033   4.156   5.249  0.0772 -0.9571 -0.2534
  141MOL    O8242362   6.875   4.003   5.282 -0.0264  0.2080  0.7364
  141MOL    C8342363   6.959   3.893   5.256  0.2874 -0.0453  0.3814
  141MOL    H8442364   6.619   4.173   5.199 -1.0479  0.2650  2.9819
  141MOL    H8542365   6.620   4.324   5.262 -2.1382 -0.9454 -1.4947
  141MOL    H8642366   6.779   4.126   5.508  1.0588  0.9522 -0.8331
  141MOL    H8742367   6.669   4.264   5.485  1.0348  0.9697 -0.6161
  141MOL    H8842368   6.636   4.115   5.410 -1.5831  0.6521  2.0869
  141MOL    H8942369   7.017   3.910   5.165 -1.8118 -1.2271 -1.2121
  141MOL    H9042370   6.898   3.805   5.234  2.1044 -1.3168  0.2715
  141MOL    H9142371   7.035   3.885   5.335  0.6463  0.1805  0.0586
  141MOL    C9242372   6.868   4.377   5.360 -0.3227  0.8826  0.3993
  141MOL    C9342373   6.990   4.391   5.466  0.3390  0.0154  0.0547
  141MOL    C9442374   7.110   4.429   5.384  0.4353 -0.5045 -0.0420
  141MOL    C9542375   6.963   4.524   5.543  0.1380  0.2674 -0.6027
  141MOL    O9642376   7.035   4.627   5.546  0.7378  0.4699  0.2207
  141MOL    O9742377   6.847   4.513   5.617 -0.1899  0.2245  0.2159
  141MOL    C9842378   6.808   4.614   5.701 -0.1491  0.2677  0.2318
  141MOL    H9942379   6.776   4.422   5.399  0.1810  2.4253 -0.1476
  141MOL   H10042380   6.891   4.440   5.275 -1.6188  1.1440  0.2239
  141MOL   H10142381   7.190   4.476   5.442  1.0045 -1.9863  0.4101
  141MOL   H10242382   7.159   4.348   5.329  1.1283  1.0171 -1.7153
  141MOL   H10342383   7.084   4.510   5.316 -0.1764  0.7616  1.6859
  141MOL   H10442384   6.888   4.653   5.765  0.7121  0.0388 -0.6913
  141MOL   H10542385   6.720   4.581   5.755 -0.1831  1.3987  0.8897
  141MOL   H10642386   6.771   4.692   5.634  0.2924  0.5447  0.3059
  141MOL   C10742387   6.987   4.274   5.568  0.4125  0.0751  0.0690
  141MOL   C10842388   7.084   4.255   5.697 -0.2376 -0.2780 -0.1378
  141MOL   C10942389   7.228   4.264   5.631 -0.2069  0.4375  0.2814
  141MOL   C11042390   7.066   4.362   5.805  0.7553  0.7423  1.3328
  141MOL   O11142391   7.156   4.441   5.834  0.5827  0.2593 -0.0426
  141MOL   O11242392   6.945   4.370   5.852 -0.0782 -0.3033 -0.1972
  141MOL   C11342393   6.910   4.463   5.954 -0.2049  0.2657 -0.3728
  141MOL   H11442394   6.986   4.184   5.506 -3.9932 -0.4659  0.7701
  141MOL   H11542395   6.892   4.270   5.621 -0.4530 -0.1673 -1.4751
  141MOL   H11642396   7.305   4.207   5.682  0.9077 -0.1770 -2.0370
  141MOL   H11742397   7.230   4.229   5.528 -0.2009  1.9722 -0.2636
  141MOL   H11842398   7.271   4.364   5.621 -1.0686  0.6911 -0.9366
  141MOL   H11942399   6.801   4.469   5.954 -0.1711  0.9716  0.0176
  141MOL   H12042400   6.937   4.566   5.932  0.2839  0.3669  0.6722
  141MOL   H12142401   6.937   4.432   6.055  0.6521  1.3574 -0.2654
  141MOL   C12242402   7.064   4.096   5.743 -0.3953  0.3394 -0.3782
  141MOL   C12342403   7.074   4.048   5.887 -0.8750  0.2717  0.0633
  141MOL   C12442404   7.185   4.126   5.966 -0.1469  0.8129 -0.2141
  141MOL   C12542405   6.936   4.070   5.961  0.2851 -0.5018 -0.4303
  141MOL   O12642406   6.840   4.123   5.902  0.5267 -0.1993 -0.2715
  141MOL   O12742407   6.938   4.036   6.092 -0.1267 -0.1271  0.0195
  141MOL   C12842408   6.829   4.065   6.175  0.1293  1.0503  0.5887
  141MOL   H12942409   7.141   4.034   5.698 -1.4896  0.7466 -2.9380
  141MOL   H13042410   6.973   4.055   5.699 -1.7776  1.6540  1.1837
  141MOL   H13142411   7.172   4.230   5.995 -0.9409  0.0022  2.5122
  141MOL   H13242412   7.212   4.085   6.064 -0.8146 -0.6385 -0.6202
  141MOL   H13342413   7.278   4.130   5.909  0.1847 -2.2387  0.0137
  141MOL   H13442414   6.735   4.026   6.136  1.0560  0.4231 -1.0516
  141MOL   H13542415   6.815   4.173   6.183  0.9983  1.1762  0.4856
  141MOL   H13642416   6.842   4.046   6.281  1.4605 -1.5048 -0.0071
  141MOL   C13742417   7.122   3.900   5.897  0.0403 -0.4462 -0.5807
  141MOL   C13842418   7.059   3.776   5.825 -0.5990  0.2705 -0.5145
  141MOL   C13942419   6.908   3.793   5.820  0.3316  0.0994 -0.9028
  141MOL   C14042420   7.111   3.778   5.679 -0.2164  0.3470 -0.2736
  141MOL   O14142421   7.027   3.785   5.589 -0.1196  0.6593  0.3601
  141MOL   O14242422   7.242   3.781   5.664 -0.3921 -0.0531  0.3416
  141MOL   C14342423   7.295   3.808   5.534 -0.4639 -0.1451  1.0020
  141MOL   H14442424   7.116   3.871   6.002 -0.5065  0.7099 -0.2953
  141MOL   H14542425   7.227   3.895   5.867  0.2407 -1.9326  0.3166
  141MOL   H14642426   6.862   3.818   5.916  3.7859 -0.3741  0.9273
  141MOL   H14742427   6.878   3.869   5.747 -2.0702 -0.6101 -0.6968
  141MOL   H14842428   6.857   3.700   5.793 -0.5440 -0.5572  2.7577
  141MOL   H14942429   7.384   3.750   5.512  0.7747  2.4838 -1.1446
  141MOL   H15042430   7.329   3.910   5.523 -0.6870 -0.1546  0.1961
  141MOL   H15142431   7.237   3.777   5.447 -1.0652  0.9907  0.9882
  141MOL   C15242432   7.102   3.641   5.890 -0.7673 -0.1632  0.3714
  141MOL   C15342433   7.049   3.568   6.022 -0.5866 -0.1677  0.0810
  141MOL   C15442434   7.050   3.668   6.140 -0.5605  0.8548  0.7752
  141MOL   C15542435   6.903   3.527   5.993  0.2072  0.5389  0.3032
  141MOL   O15642436   6.806   3.552   6.066  0.0420  0.3473  0.0965
  141MOL   O15742437   6.893   3.470   5.874  0.3022 -0.1649  0.1115
  141MOL   C15842438   6.774   3.397   5.838  0.3730  0.0619 -0.0315
  141MOL   H15942439   7.210   3.653   5.900 -0.5988  0.6336 -2.0640
  141MOL   H16042440   7.103   3.573   5.805 -0.0873  2.3066 -1.6583
  141MOL   H16142441   7.055   3.618   6.236  0.3623 -2.2404 -0.8112
  141MOL   H16242442   7.144   3.722   6.140 -0.5531  0.8775 -1.2719
  141MOL   H16342443   6.975   3.747   6.144 -0.4917  1.0021 -0.6065
  141MOL   H16442444   6.803   3.294   5.816 -0.9150 -0.2941 -0.0826
  141MOL   H16542445   6.719   3.446   5.758  0.4497 -0.2838 -0.2963
  141MOL   H16642446   6.712   3.393   5.928 -0.9111  1.0725 -0.8628
  141MOL   C16742447   7.150   3.447   6.045  0.2470 -0.2021  0.3449
  141MOL   C16842448   7.169   3.370   6.181  1.0123  0.2893  0.0381
  141MOL   C16942449   7.280   3.447   6.265  0.1285  0.1535 -0.1805
  141MOL   C17042450   7.031   3.353   6.266  0.2250 -0.5112 -0.3916
  141MOL   O17142451   7.021   3.390   6.384  0.0119  0.0534  0.2796
  141MOL   O17242452   6.932   3.306   6.190  0.6803 -0.7219  0.3782
  141MOL   C17342453   6.802   3.280   6.249 -0.1588 -0.2844 -0.7268
  141MOL   H17442454   7.252   3.485   6.031  0.4361 -1.0006 -0.4201
  141MOL   H17542455   7.144   3.383   5.957  0.2151  1.8510 -1.1940
  141MOL   H17642456   7.227   3.534   6.304 -0.7522 -0.6586  0.4421
  141MOL   H17742457   7.321   3.395   6.351 -2.1832 -0.7655  0.3846
  141MOL   H17842458   7.365   3.486   6.208 -2.4993  2.0075 -3.0157
  141MOL   H17942459   6.727   3.358   6.238 -0.9174 -0.7035  1.2518
  141MOL   H18042460   6.810   3.273   6.357  2.0241  0.0300 -0.8402
  141MOL   H18142461   6.761   3.185   6.216 -1.3970 -0.8488  2.2460
  141MOL   C18242462   7.233   3.226   6.142  0.4996  0.3640  0.1879
  141MOL   C18342463   7.320   3.131   6.233 -0.9500 -0.3850 -0.0721
  141MOL   C18442464   7.323   3.003   6.153 -0.5368 -0.0864 -0.0024
  141MOL   C18542465   7.463   3.184   6.228  0.3004 -0.3304 -0.8863
  141MOL   O18642466   7.521   3.238   6.325  0.3508 -0.1156  0.6134
  141MOL   O18742467   7.524   3.171   6.104 -0.5430 -0.1084 -0.3506
  141MOL   C18842468   7.663   3.185   6.089  0.2494  0.5327  0.5162
  141MOL   H18942469   7.290   3.247   6.051  0.0392 -3.6008 -1.0975
  141MOL   H19042470   7.150   3.172   6.096 -0.7458  1.1181  1.5261
  141MOL   H19142471   7.397   2.933   6.192 -1.8790  0.0351  2.8404
  141MOL   H19242472   7.221   2.966   6.159  0.3698 -2.5825  0.5517
  141MOL   H19342473   7.350   3.018   6.048 -0.6067 -3.0325 -0.4790
  141MOL   H19442474   7.694   3.196   5.985 -0.1846  1.3528  0.4686
  141MOL   H19542475   7.724   3.114   6.144 -0.5878 -1.5734 -1.2050
  141MOL   H19642476   7.693   3.286   6.117 -0.1346  0.3895  1.4443
  141MOL   C19742477   7.260   3.106   6.375  0.0031  0.6178  0.1478
  141MOL   C19842478   7.294   2.983   6.469 -0.4036  0.4727 -0.4138
  141MOL   C19942479   7.202   3.011   6.592  0.0836  0.1948  0.2968
  141MOL   C20042480   7.252   2.853   6.404  0.1163 -0.1360 -0.3244
  141MOL   O20142481   7.337   2.771   6.358  0.1221  0.6584 -0.0592
  141MOL   O20242482   7.123   2.825   6.398  0.3681 -0.5773 -0.6862
  141MOL   C20342483   7.086   2.708   6.333 -0.1249  0.1102  0.3661
  141MOL   H20442484   7.157   3.084   6.349  0.0951  0.4361 -0.0615
  141MOL   H20542485   7.276   3.193   6.439  1.0008  1.8557 -1.7403
  141MOL   H20642486   7.206   3.108   6.642 -1.5962 -0.4675  1.7538
  141MOL   H20742487   7.097   2.995   6.567  0.8067 -2.2097 -1.4251
  141MOL   H20842488   7.215   2.935   6.669  0.2534 -0.0175  0.0576
  141MOL   H20942489   7.085   2.716   6.224  1.2191 -2.3776  0.1328
  141MOL   H21042490   6.984   2.686   6.364 -0.6486 -0.9395 -1.9871
  141MOL   H21142491   7.136   2.618   6.369  1.0578  0.8747  0.6201
  141MOL   C21242492   7.444   2.994   6.525  0.3662  0.0642  0.1047
  141MOL   C21342493   7.505   2.929   6.650 -0.1930 -0.1893  0.0592
  141MOL   C21442494   7.473   3.011   6.784 -0.2057 -0.7860 -0.2237
  141MOL   C21542495   7.457   2.782   6.666 -0.6128  0.4950 -0.1570
  141MOL   O21642496   7.361   2.763   6.742 -0.3719  0.3223  0.0150
  141MOL   O21742497   7.521   2.685   6.601  0.8977  0.3433 -0.4522
  141MOL   C21842498   7.489   2.550   6.635  0.0451  0.4680  0.8815
  141MOL   H21942499   7.455   3.102   6.539 -0.4616  0.4682 -2.1075
  141MOL   H22042500   7.506   2.969   6.439  1.3692  0.0959  0.8164
  141MOL   H22142501   7.366   3.028   6.785 -0.0272  0.4397 -1.2519
  141MOL   H22242502   7.496   2.955   6.875  1.0407 -0.2825 -0.2154
  141MOL   H22342503   7.518   3.108   6.804 -1.8263 -0.0452 -0.1257
  141MOL   H22442504   7.482   2.552   6.744  0.3667 -1.4539  0.9496
  141MOL   H22542505   7.565   2.481   6.600 -1.1487  0.4885 -1.9522
  141MOL   H22642506   7.393   2.520   6.591  0.5607 -4.2577  2.7033
  141MOL   C22742507   7.663   2.935   6.634  0.0989 -0.2847 -0.6616
  141MOL   C22842508   7.765   2.898   6.748 -0.5999  0.0903  0.2564
  141MOL   C22942509   7.740   2.765   6.816 -0.1056 -0.1897  0.1836
  141MOL   C23042510   0.030   2.885   6.675 -0.3775  0.6954 -0.6917
  141MOL   O23142511   0.107   2.792   6.693  0.4668  0.5748 -0.2645
  141MOL   O23242512   0.058   2.997   6.603  0.0641 -0.4668  0.1702
  141MOL   C23342513   0.183   2.996   6.531  0.0078  0.8827  0.2416
  141MOL   H23442514   7.677   3.039   6.606 -0.3895  0.4877  1.8305
  141MOL   H23542515   7.679   2.866   6.551 -1.2010  0.5263 -1.6183
  141MOL   H23642516   7.734   2.684   6.743 -1.5997  0.2565 -0.1940
  141MOL   H23742517   7.821   2.738   6.883 -0.1712 -0.9980 -0.0538
  141MOL   H23842518   7.645   2.763   6.870 -0.8911 -3.0326 -1.1734
  141MOL   H23942519   0.199   2.903   6.476 -0.1338  0.8903  0.1861
  141MOL   H24042520   0.256   2.995   6.612 -1.5708 -1.3671  1.6914
  141MOL   H24142521   0.184   3.079   6.460 -1.4350  0.3939 -0.3724
  141MOL   C24242522   7.773   3.010   6.861  0.2906  0.2678  0.0159
  141MOL   C24342523   0.016   3.037   6.957  0.0672 -0.7620 -0.4157
  141MOL   C24442524   0.066   2.908   7.027 -0.7042 -0.2920  0.0254
  141MOL   C24542525   0.137   3.101   6.882 -0.7508 -0.1904 -0.2836
  141MOL   O24642526   0.247   3.049   6.882 -0.2272  0.3171 -0.1555
  141MOL   O24742527   0.106   3.219   6.833  0.1407  1.1970  0.0210
  141MOL   C24842528   0.191   3.272   6.735  0.9325 -0.6895  0.0107
  141MOL   H24942529   7.690   2.983   6.926  1.5427 -0.6323  1.2738
  141MOL   H25042530   7.763   3.104   6.806  0.0637 -0.1593 -0.6799
  141MOL   H25142531   0.116   2.846   6.952  0.2416 -1.0321  1.2467
  141MOL   H25242532   0.150   2.941   7.089  1.8892  0.7899 -3.8575
  141MOL   H25342533   7.863   2.863   7.084 -0.6381  0.9559  1.1081
  141MOL   H25442534   0.147   3.229   6.645  0.0077  1.5447 -0.6562
  141MOL   H25542535   0.294   3.239   6.740  0.2260 -3.0663 -0.6428
  141MOL   H25642536   0.185   3.381   6.744  0.2900 -0.9067  2.7381
  141MOL   C25742537   7.839   3.137   7.063 -0.0123  0.0616  0.1458
  141MOL   C25842538   0.007   3.167   7.209 -0.0302  0.0031  0.0497
  141MOL   C25942539   7.830   3.062   7.312  0.4570 -0.4037  0.4930
  141MOL   C26042540   0.162   3.165   7.212 -0.1007  0.0401  0.6067
  141MOL   O26142541   0.225   3.087   7.283  0.1719  0.3913 -0.3448
  141MOL   O26242542   0.227   3.253   7.134 -0.1741  0.1178 -0.6012
  141MOL   C26342543   0.369   3.259   7.139 -0.3939 -0.7375  0.0200
  141MOL   H26442544   7.735   3.115   7.086 -0.0782  1.0474  0.8282
  141MOL   H26542545   7.822   3.226   7.001 -0.3028 -1.4426 -1.9913
  141MOL   H26642546   7.733   3.103   7.341  0.0746  0.3308 -1.6959
  141MOL   H26742547   7.830   2.961   7.272 -0.5216  0.5029 -1.8997
  141MOL   H26842548   0.012   3.058   7.403  0.9374 -0.5089  0.1753
  141MOL   H26942549   0.401   3.156   7.122  3.8174  0.2770  1.2418
  141MOL   H27042550   0.408   3.297   7.233  0.8243 -1.0692 -0.3315
  141MOL   H27142551   0.407   3.324   7.060 -1.9938  0.2035  0.0163
  141MOL   C27242552   7.822   3.310   7.241 -0.2902 -0.1628 -0.1573
  141MOL   C27342553   7.853   3.397   7.369 -0.9637 -0.6520  0.1607
  141MOL   C27442554   7.854   3.309   7.488  0.2523  0.3938 -1.0612
  141MOL   C27542555   0.111   3.470   7.358 -0.5054  0.5946 -0.1976
  141MOL   O27642556   0.208   3.445   7.429  0.6765  0.1665  0.1722
  141MOL   O27742557   0.109   3.575   7.271 -0.4303 -0.1765 -0.4040
  141MOL   C27842558   0.224   3.653   7.258 -0.1339  0.0581  0.3688
  141MOL   H27942559   7.714   3.298   7.235 -0.3388 -0.3433  0.9034
  141MOL   H28042560   7.852   3.364   7.152 -1.0551  0.7625  0.1441
  141MOL   H28142561   0.068   3.251   7.490  0.6461  1.0249 -0.6774
  141MOL   H28242562   7.856   3.359   7.584 -0.6634 -0.5777 -0.5232
  141MOL   H28342563   7.777   3.232   7.495  1.8620 -1.4205 -2.5908
  141MOL   H28442564   0.318   3.602   7.235 -0.5342  0.1941 -1.6507
  141MOL   H28542565   0.235   3.717   7.346  0.2670 -0.2933  0.5753
  141MOL   H28642566   0.198   3.722   7.178 -0.9245 -0.7654 -0.0848
  141MOL   C28742567   7.742   3.501   7.391  0.1070  0.2110 -0.4352
  141MOL   C28842568   7.758   3.610   7.504  0.4856  0.2810  0.6953
  141MOL   C28942569   7.768   3.759   7.463  0.2131 -0.3554  0.8223
  141MOL   C29042570   7.636   3.602   7.601 -0.1190  0.0157  0.4220
  141MOL   O29142571   7.658   3.580   7.720 -0.8635  0.0947  0.6170
  141MOL   O29242572   7.515   3.631   7.542  0.5783 -0.1708 -0.0995
  141MOL   C29342573   7.401   3.648   7.628  0.5333 -0.3114  0.1128
  141MOL   H29442574   7.646   3.450   7.404  0.6468 -1.2205 -1.8850
  141MOL   H29542575   7.741   3.554   7.296  2.2290  2.5410  0.7968
  141MOL   H29642576   7.845   3.763   7.386 -0.7148 -3.9193 -0.3473
  141MOL   H29742577   7.678   3.803   7.419  1.6194 -0.2669 -2.1104
  141MOL   H29842578   7.796   3.822   7.547 -1.5161  0.7932  0.5837
  141MOL   H29942579   7.371   3.753   7.630 -1.9207 -0.9776  0.3532
  141MOL   H30042580   7.409   3.614   7.731 -0.2355 -0.1487  0.2282
  141MOL   H30142581   7.318   3.587   7.590  0.4945  2.0095 -3.8188
  141MOL   H30242582   7.833   3.577   7.577  0.0053 -1.0272  0.6067
  142MOL     C142583   3.258   2.225   3.370 -1.0861  0.3612  0.4088
  142MOL     C242584   3.176   2.235   3.242 -0.5906 -0.7365 -0.2880
  142MOL     C342585   3.065   2.346   3.259  0.2320 -0.2083  0.0347
  142MOL     C442586   3.261   2.293   3.125 -0.0845  0.1517  1.0084
  142MOL     O542587   3.383   2.319   3.133 -0.0969  0.1052 -0.3131
  142MOL     O642588   3.193   2.315   3.010 -0.2453  0.5600  0.3261
  142MOL     C742589   3.258   2.369   2.893 -0.0390  0.8110 -0.1069
  142MOL     H842590   3.313   2.318   3.384 -0.7159  0.3671 -0.9908
  142MOL     H942591   3.201   2.223   3.462 -1.6023 -1.4711  0.0694
  142MOL    H1042592   3.011   2.375   3.169  0.7101 -0.2466 -0.2598
  142MOL    H1142593   2.987   2.305   3.323  0.6408 -1.8524 -0.4917
  142MOL    H1242594   3.094   2.441   3.304  0.7195 -1.4802  2.5261
  142MOL    H1342595   3.189   2.398   2.813 -1.7225  1.8808  1.6894
  142MOL    H1442596   3.333   2.303   2.849 -0.9880 -1.4409  1.5785
  142MOL    H1542597   3.309   2.461   2.921 -0.2865  0.6052  1.0370
  142MOL    H1642598   3.334   2.147   3.378  0.3753  1.7454  0.2455
  142MOL    C1742599   3.122   2.095   3.219  0.8610 -0.3664 -0.1544
  142MOL    C1842600   3.036   2.029   3.106 -0.1885  0.2493 -0.2456
  142MOL    C1942601   2.920   2.121   3.085  0.1739  1.2666  0.1710
  142MOL    C2042602   3.119   2.021   2.971 -0.4437 -0.3481  0.5324
  142MOL    O2142603   3.077   2.083   2.869  0.7700  1.1255 -0.2382
  142MOL    O2242604   3.242   1.967   2.972  0.2674 -0.4296  0.4400
  142MOL    C2342605   3.336   1.991   2.866 -0.5566  0.1301 -0.1964
  142MOL    H2442606   3.063   2.090   3.311  0.9230  2.4897  0.1111
  142MOL    H2542607   3.212   2.037   3.239 -0.0002 -0.9807  2.1133
  142MOL    H2642608   2.957   2.219   3.054 -0.5838  1.6321  0.4333
  142MOL    H2742609   2.852   2.085   3.008  0.6185 -1.5851  1.0232
  142MOL    H2842610   2.853   2.132   3.170 -0.2128 -1.3362  0.2454
  142MOL    H2942611   3.436   1.962   2.899 -0.7429  1.2200  1.4009
  142MOL    H3042612   3.349   2.098   2.851 -0.5892  0.2570  0.6366
  142MOL    H3142613   3.295   1.940   2.779 -2.2510 -1.4032  1.4477
  142MOL    C3242614   2.991   1.885   3.160 -0.3410 -0.3440  0.0688
  142MOL    C3342615   2.901   1.782   3.078  0.1937 -0.6635 -0.8766
  142MOL    C3442616   2.893   1.661   3.172  0.6869 -0.0750  0.3275
  142MOL    C3542617   2.762   1.840   3.073  0.5322 -0.2886 -0.7346
  142MOL    O3642618   2.707   1.871   2.966  0.3869 -0.1811  0.2276
  142MOL    O3742619   2.708   1.870   3.197  0.4954 -0.6803  0.3536
  142MOL    C3842620   2.584   1.945   3.203  0.5244  0.0680 -0.7147
  142MOL    H3942621   2.933   1.906   3.250  0.4774  2.3194  0.0346
  142MOL    H4042622   3.083   1.839   3.195 -1.8099 -1.1701  3.0074
  142MOL    H4142623   2.816   1.587   3.152  0.6353  0.4170 -1.3844
  142MOL    H4242624   2.993   1.617   3.175  1.6941  2.1401  0.8854
  142MOL    H4342625   2.875   1.688   3.276  0.6081  0.1290  0.2617
  142MOL    H4442626   2.526   1.932   3.112  1.0841  1.4403 -1.2710
  142MOL    H4542627   2.619   2.048   3.202  0.3444  0.1284 -2.2246
  142MOL    H4642628   2.524   1.921   3.290  0.8189 -1.1978 -0.8425
  142MOL    C4742629   2.962   1.743   2.942  0.4416 -0.2609 -0.7565
  142MOL    C4842630   2.917   1.626   2.838 -0.3260 -1.2981  0.4987
  142MOL    C4942631   2.953   1.696   2.704  0.2822 -0.0252  0.0358
  142MOL    C5042632   2.992   1.492   2.852  0.1440  0.8345  0.4504
  142MOL    O5142633   3.067   1.441   2.773  0.0346  0.3273 -0.1955
  142MOL    O5242634   2.973   1.441   2.970 -0.0207 -0.2305  0.6609
  142MOL    C5342635   3.033   1.316   3.001 -0.1343  0.6115 -0.1709
  142MOL    H5442636   3.071   1.749   2.945  0.3721  0.0175  2.1883
  142MOL    H5542637   2.937   1.833   2.886 -0.3923  0.5048  0.8047
  142MOL    H5642638   2.878   1.763   2.662 -0.0424  0.0587  0.7430
  142MOL    H5742639   3.048   1.748   2.708 -0.5325  1.4582  0.6948
  142MOL    H5842640   2.964   1.624   2.623 -0.7523  0.7134 -0.7842
  142MOL    H5942641   3.141   1.301   2.998 -0.2881 -0.4292 -3.9705
  142MOL    H6042642   2.989   1.239   2.937 -0.9976 -0.8631  2.1539
  142MOL    H6142643   3.000   1.297   3.103 -0.7938 -1.5911 -0.7533
  142MOL    C6242644   2.760   1.607   2.823  0.4363  0.0919 -0.7853
  142MOL    C6342645   2.691   1.482   2.756  0.5281 -0.7036 -0.2452
  142MOL    C6442646   2.710   1.349   2.832 -0.6188  0.3791 -0.3571
  142MOL    C6542647   2.542   1.519   2.756  0.8076  0.4156 -0.7113
  142MOL    O6642648   2.510   1.623   2.709 -0.1030 -0.8424 -0.4621
  142MOL    O6742649   2.458   1.434   2.813 -0.1495  0.2730 -0.2912
  142MOL    C6842650   2.328   1.482   2.847  0.0751 -0.1724  0.2425
  142MOL    H6942651   2.713   1.697   2.782  1.4392  0.5438 -0.9589
  142MOL    H7042652   2.732   1.611   2.928 -0.4844  2.0093 -1.0834
  142MOL    H7142653   2.632   1.276   2.812  0.5857 -0.9117 -0.4486
  142MOL    H7242654   2.805   1.301   2.808  0.3981  1.6314  1.0190
  142MOL    H7342655   2.724   1.363   2.939 -0.6617  2.3130 -0.5834
  142MOL    H7442656   2.278   1.519   2.757  0.8666  1.3586  0.4047
  142MOL    H7542657   2.321   1.555   2.928  1.5320  1.0591 -0.7073
  142MOL    H7642658   2.267   1.398   2.880 -1.7975  1.9983  2.5554
  142MOL    C7742659   2.744   1.468   2.607 -0.0519 -0.3968  0.1441
  142MOL    C7842660   2.673   1.377   2.496  0.0190 -0.5819  0.1173
  142MOL    C7942661   2.779   1.367   2.383 -0.3499  0.1301 -0.4614
  142MOL    C8042662   2.641   1.236   2.557 -0.3335 -0.0267  0.1029
  142MOL    O8142663   2.526   1.202   2.586  0.7304 -0.1909 -0.4195
  142MOL    O8242664   2.755   1.165   2.579 -0.1509 -0.0810  0.0254
  142MOL    C8342665   2.741   1.042   2.637 -0.1003 -0.3448  0.1412
  142MOL    H8442666   2.846   1.434   2.622  0.3568  1.1214  1.0065
  142MOL    H8542667   2.751   1.568   2.564 -2.4890 -0.0136  0.5298
  142MOL    H8642668   2.748   1.307   2.297 -0.8039 -0.1385 -0.1176
  142MOL    H8742669   2.800   1.470   2.353  0.5983  0.1507  0.2636
  142MOL    H8842670   2.873   1.330   2.422 -0.8473  2.6077  3.3348
  142MOL    H8942671   2.650   0.996   2.600  0.0013  0.2871 -0.9119
  142MOL    H9042672   2.732   1.043   2.746  1.6021  0.5615  0.2953
  142MOL    H9142673   2.826   0.981   2.606 -2.0850 -2.7926 -0.6022
  142MOL    C9242674   2.541   1.439   2.436 -0.3832  0.4039 -0.2492
  142MOL    C9342675   2.492   1.425   2.283 -0.1231 -0.0893 -0.1807
  142MOL    C9442676   2.583   1.503   2.188  0.7432  0.4146  0.1765
  142MOL    C9542677   2.486   1.280   2.225 -0.0827  0.1675 -0.4002
  142MOL    O9642678   2.494   1.178   2.295  0.3355  0.1887  0.2250
  142MOL    O9742679   2.481   1.266   2.090  0.2209 -0.0392  0.0139
  142MOL    C9842680   2.475   1.138   2.026 -0.0060 -0.2721  0.3906
  142MOL    H9942681   2.554   1.546   2.450  3.5090  0.6249 -4.3258
  142MOL   H10042682   2.456   1.419   2.502  1.7772  1.4408  3.0173
  142MOL   H10142683   2.609   1.592   2.246  2.3942 -0.3348  0.6224
  142MOL   H10242684   2.684   1.464   2.172  0.4777 -0.6837  1.1185
  142MOL   H10342685   2.538   1.534   2.094 -0.4929 -1.8629 -0.0060
  142MOL   H10442686   2.374   1.099   2.031 -0.4540  0.3032 -3.1789
  142MOL   H10542687   2.548   1.074   2.075 -2.4921 -1.3454  2.8069
  142MOL   H10642688   2.496   1.137   1.919 -0.5208  1.3630  0.2528
  142MOL   C10742689   2.345   1.484   2.261  0.2340  0.2480 -0.8445
  142MOL   C10842690   2.222   1.461   2.367  0.6284 -0.0422 -0.2772
  142MOL   C10942691   2.212   1.317   2.436 -0.0151 -0.1437  0.0282
  142MOL   C11042692   2.229   1.570   2.473 -0.6242 -0.0834  0.1923
  142MOL   O11142693   2.318   1.650   2.478  0.4284  0.2331 -0.6088
  142MOL   O11242694   2.125   1.566   2.563  0.0101  0.0639 -0.1977
  142MOL   C11342695   2.094   1.668   2.659  0.1556 -0.2435 -0.7558
  142MOL   H11442696   2.321   1.464   2.157  1.9569  1.8025 -1.5813
  142MOL   H11542697   2.366   1.590   2.245  1.0371  0.4614  1.4111
  142MOL   H11642698   2.302   1.290   2.492 -1.1811 -1.9631  1.0567
  142MOL   H11742699   2.139   1.323   2.516  1.5830  0.5271  1.4530
  142MOL   H11842700   2.187   1.232   2.371  1.5035 -0.9886  0.5068
  142MOL   H11942701   2.073   1.619   2.754  0.6099  1.1440  0.0770
  142MOL   H12042702   1.993   1.702   2.634 -0.0797 -0.7292 -0.4811
  142MOL   H12142703   2.165   1.748   2.679 -1.6626  0.9144  1.3624
  142MOL   C12242704   2.088   1.495   2.279 -1.3739  0.1305 -0.8820
  142MOL   C12342705   2.012   1.391   2.181  0.3487  0.1762 -0.5979
  142MOL   C12442706   2.098   1.358   2.054  0.0436  0.7558 -0.1360
  142MOL   C12542707   1.957   1.271   2.265 -0.1862 -0.6726 -0.4224
  142MOL   O12642708   1.987   1.152   2.233  0.2125  0.0203  0.0359
  142MOL   O12742709   1.877   1.311   2.366  0.2983 -0.6067  0.8022
  142MOL   C12842710   1.795   1.212   2.435  0.1600  0.1788  0.3886
  142MOL   H12942711   2.116   1.591   2.237  0.4771 -0.2075 -0.4371
  142MOL   H13042712   2.012   1.515   2.355 -1.9215 -2.5649 -0.6448
  142MOL   H13142713   2.183   1.296   2.081  0.2132  0.8420 -0.4725
  142MOL   H13242714   2.031   1.293   1.998  0.1363 -0.4005  1.0703
  142MOL   H13342715   2.118   1.440   1.986 -1.3124  0.7780 -0.5276
  142MOL   H13442716   1.731   1.257   2.511  0.7416  0.2748  0.8238
  142MOL   H13542717   1.853   1.135   2.486  4.6614  3.3844  0.3901
  142MOL   H13642718   1.726   1.157   2.370 -0.7454  0.2852  1.2517
  142MOL   C13742719   1.894   1.487   2.135  0.3003 -0.3532 -0.1879
  142MOL   C13842720   1.786   1.462   2.029 -0.5352 -1.1218 -0.8445
  142MOL   C13942721   1.831   1.505   1.893  0.1182 -0.6390 -0.6444
  142MOL   C14042722   1.756   1.307   2.016 -0.0371 -0.1232 -0.4473
  142MOL   O14142723   1.795   1.235   1.920  0.7587  0.6420  0.5172
  142MOL   O14242724   1.683   1.260   2.127  0.2613  0.5952  0.5624
  142MOL   C14342725   1.627   1.131   2.125  0.3380  0.1425 -0.0302
  142MOL   H14442726   1.939   1.577   2.093 -0.1020 -0.4523 -0.8519
  142MOL   H14542727   1.848   1.521   2.228  0.3198 -0.5009 -0.1240
  142MOL   H14642728   1.839   1.613   1.895  2.5524 -0.7692 -1.5405
  142MOL   H14742729   1.915   1.461   1.841 -0.1680 -2.4198  0.3428
  142MOL   H14842730   1.751   1.487   1.822 -0.6576 -1.4185  0.4062
  142MOL   H14942731   1.586   1.118   2.225 -0.6667  1.1687 -0.2975
  142MOL   H15042732   1.701   1.054   2.104  1.5289  1.2994 -0.1709
  142MOL   H15142733   1.552   1.127   2.046 -0.7863 -0.1709  1.0377
  142MOL   C15242734   1.639   1.523   2.060 -0.6565  0.8114 -0.0894
  142MOL   C15342735   1.605   1.673   2.054  0.3582  0.0513 -0.4514
  142MOL   C15442736   1.703   1.757   2.135 -0.3182 -0.0812 -0.2741
  142MOL   C15542737   1.606   1.716   1.905  0.0354 -0.5089  0.7318
  142MOL   O15642738   1.688   1.799   1.859  0.2213 -0.0858  0.7534
  142MOL   O15742739   1.514   1.654   1.829  0.1883  0.0680 -0.2943
  142MOL   C15842740   1.508   1.685   1.694 -0.2545 -0.3296  0.9774
  142MOL   H15942741   1.628   1.495   2.164  1.2437  2.2874  0.5488
  142MOL   H16042742   1.567   1.466   2.002 -0.6192  0.4709  0.1950
  142MOL   H16142743   1.680   1.864   2.132  0.7542  0.1633  0.0123
  142MOL   H16242744   1.709   1.722   2.238  1.5607 -0.4389 -0.4889
  142MOL   H16342745   1.806   1.744   2.103 -0.0571 -1.9213  1.2203
  142MOL   H16442746   1.422   1.646   1.639  0.3462  1.5562 -1.4106
  142MOL   H16542747   1.598   1.645   1.647  0.3445  1.0953  0.8896
  142MOL   H16642748   1.493   1.791   1.677  3.6937 -0.1794 -2.3685
  142MOL   C16742749   1.466   1.697   2.128 -0.5630 -0.3179  1.2755
  142MOL   C16842750   1.373   1.823   2.122  0.2934  0.3600 -0.3437
  142MOL   C16942751   1.254   1.801   2.219  0.5858  0.1736 -0.2120
  142MOL   C17042752   1.445   1.953   2.171  0.2786 -0.4681 -0.4109
  142MOL   O17142753   1.457   2.049   2.096  0.1022 -0.2582 -0.0951
  142MOL   O17242754   1.492   1.945   2.302 -0.3755  0.2978 -0.2968
  142MOL   C17342755   1.549   2.053   2.360 -0.2027  0.3048  0.4161
  142MOL   H17442756   1.480   1.682   2.235 -0.6600  1.4179  1.5587
  142MOL   H17542757   1.402   1.616   2.095 -2.4415  1.4972  0.3131
  142MOL   H17642758   1.295   1.774   2.316 -0.0558  2.4544  0.7179
  142MOL   H17742759   1.203   1.894   2.243  1.8335  0.6427  0.6374
  142MOL   H17842760   1.190   1.716   2.192  0.9441 -0.3405  0.5333
  142MOL   H17942761   1.503   2.063   2.458 -1.4969 -0.0167 -0.1470
  142MOL   H18042762   1.555   2.147   2.305  0.5740 -0.3743 -0.6963
  142MOL   H18142763   1.652   2.018   2.371  0.1602  1.2372  0.0028
  142MOL   C18242764   1.312   1.843   1.975 -0.4978 -0.4396 -0.1488
  142MOL   C18342765   1.175   1.911   1.931  0.4185  0.6590 -1.0020
  142MOL   C18442766   1.043   1.840   1.986  0.3307 -0.3959  0.3980
  142MOL   C18542767   1.162   2.058   1.968  0.1086  0.5904  0.0329
  142MOL   O18642768   1.073   2.106   2.040  0.4142 -0.0246  0.5669
  142MOL   O18742769   1.258   2.126   1.914 -0.4131 -0.1737  0.2774
  142MOL   C18842770   1.265   2.261   1.947 -0.0793 -0.3715  0.0717
  142MOL   H18942771   1.307   1.739   1.942  0.8029 -1.3380  2.2999
  142MOL   H19042772   1.392   1.876   1.909 -1.8874  0.1202 -1.5829
  142MOL   H19142773   1.043   1.813   2.092  1.3406  1.0916  0.7945
  142MOL   H19242774   0.956   1.906   1.977  0.5000 -0.3393 -0.9549
  142MOL   H19342775   1.023   1.745   1.937  0.6994  0.2624 -1.0456
  142MOL   H19442776   1.179   2.325   1.963 -0.9301 -1.0794 -1.5887
  142MOL   H19542777   1.338   2.313   1.885 -0.0802  0.5576  0.8381
  142MOL   H19642778   1.313   2.263   2.045  1.0821  0.7404 -0.4990
  142MOL   C19742779   1.169   1.882   1.780 -0.2280 -0.9471  0.3417
  142MOL   C19842780   1.070   1.932   1.670  0.4422 -0.5258  0.4190
  142MOL   C19942781   0.931   1.866   1.689 -0.3786 -0.1384  0.5425
  142MOL   C20042782   1.054   2.089   1.673 -0.1512  0.2899  0.4349
  142MOL   O20142783   0.941   2.139   1.693 -0.6070  0.5118  0.2535
  142MOL   O20242784   1.168   2.159   1.644  0.1089 -0.2741  0.0052
  142MOL   C20342785   1.172   2.302   1.621  0.1337  0.6118 -0.2993
  142MOL   H20442786   1.173   1.773   1.776 -1.0198 -1.0405  1.6912
  142MOL   H20542787   1.266   1.905   1.736 -0.5422  2.2081  1.1590
  142MOL   H20642788   0.889   1.883   1.788  0.3171 -1.5029  1.0874
  142MOL   H20742789   0.854   1.900   1.620  0.7324  1.8230  0.2202
  142MOL   H20842790   0.943   1.758   1.680 -0.7082 -0.1015 -0.4299
  142MOL   H20942791   1.258   2.324   1.557 -0.0673  0.9071 -0.4633
  142MOL   H21042792   1.196   2.354   1.714 -0.9494 -0.0448  0.3456
  142MOL   H21142793   1.090   2.352   1.570  1.1448  2.4661 -0.1692
  142MOL   C21242794   1.138   1.887   1.536  0.0240  0.4329 -1.1490
  142MOL   C21342795   1.077   1.871   1.396 -0.2720 -0.3834  0.5119
  142MOL   C21442796   0.980   1.752   1.408  0.6952  0.3612 -0.1926
  142MOL   C21542797   1.007   2.008   1.361 -0.4589 -0.3014 -0.0888
  142MOL   O21642798   0.891   2.008   1.319  0.4762 -0.1137 -0.2859
  142MOL   O21742799   1.092   2.110   1.369 -0.0128 -0.2900  0.0297
  142MOL   C21842800   1.050   2.232   1.309  0.2487 -0.8311  0.0875
  142MOL   H21942801   1.177   1.789   1.561 -0.1630  0.7428  0.3942
  142MOL   H22042802   1.222   1.953   1.515  0.8838 -0.2707  0.0275
  142MOL   H22142803   0.949   1.716   1.310 -1.3939  2.9318 -0.5204
  142MOL   H22242804   1.020   1.664   1.460 -0.4875 -1.0506 -1.6282
  142MOL   H22342805   0.883   1.782   1.446 -0.5185 -1.1977 -1.9726
  142MOL   H22442806   1.131   2.305   1.312 -0.3502 -0.0502 -2.0615
  142MOL   H22542807   0.961   2.273   1.357 -0.8138 -0.5458 -2.0954
  142MOL   H22642808   1.019   2.234   1.205 -1.0836 -2.7269  0.4270
  142MOL   C22742809   1.203   1.836   1.309  0.3896 -0.7832  0.4820
  142MOL   C22842810   1.205   1.744   1.183  0.4908  0.0853 -0.6341
  142MOL   C22942811   1.352   1.751   1.131  0.5215  0.1919 -0.4179
  142MOL   C23042812   1.198   1.598   1.238 -0.2595  0.1824 -0.3026
  142MOL   O23142813   1.106   1.519   1.203  0.2970  0.0053 -0.1397
  142MOL   O23242814   1.292   1.572   1.326  0.1113 -0.0054 -0.1752
  142MOL   C23342815   1.294   1.444   1.380 -0.5674  0.4504 -0.1014
  142MOL   H23442816   1.283   1.802   1.375  0.6519 -1.4050 -0.1445
  142MOL   H23542817   1.240   1.931   1.270 -0.5307 -0.3982  0.5431
  142MOL   H23642818   1.382   1.853   1.106 -0.0636  0.6459  0.7289
  142MOL   H23742819   1.424   1.723   1.207 -1.3619 -3.0033  0.2695
  142MOL   H23842820   1.365   1.675   1.054 -1.4276 -0.5861 -0.0165
  142MOL   H23942821   1.194   1.413   1.411 -1.4052  1.5445 -1.6573
  142MOL   H24042822   1.360   1.464   1.464 -0.2641 -0.7957 -0.0263
  142MOL   H24142823   1.332   1.375   1.304 -2.8430 -1.7261  0.6953
  142MOL   C24242824   1.097   1.803   1.072 -0.6302 -0.1224  0.5467
  142MOL   C24342825   1.106   1.774   0.913  0.3289  0.0528 -0.0935
  142MOL   C24442826   1.212   1.862   0.859  0.3759  0.2793  0.7439
  142MOL   C24542827   1.124   1.626   0.872 -0.0304  0.2255 -0.6975
  142MOL   O24642828   1.225   1.594   0.812 -0.0942  0.3218 -0.7758
  142MOL   O24742829   1.036   1.537   0.923 -0.8030 -0.2257 -0.0490
  142MOL   C24842830   1.038   1.399   0.889  0.1654 -0.3561 -0.5434
  142MOL   H24942831   1.112   1.911   1.084  0.7925 -0.2571  0.0704
  142MOL   H25042832   0.994   1.798   1.108 -1.2141 -2.3952 -1.3753
  142MOL   H25142833   1.309   1.842   0.904  0.4493 -3.0671 -0.7143
  142MOL   H25242834   1.239   1.829   0.758 -0.1263  2.2453 -0.0452
  142MOL   H25342835   1.183   1.966   0.865  0.5325  0.3933 -0.3810
  142MOL   H25442836   1.112   1.334   0.934 -0.3057 -1.1416 -0.8862
  142MOL   H25542837   1.053   1.394   0.781 -0.5706  1.5650 -0.7587
  142MOL   H25642838   0.940   1.356   0.909 -1.4977  3.6733  0.4900
  142MOL   C25742839   0.965   1.824   0.856 -0.6026 -0.0830 -0.7093
  142MOL   C25842840   0.930   1.835   0.701  0.5587  0.3039 -0.0810
  142MOL   C25942841   0.976   1.705   0.628  0.6516  0.2693  0.3433
  142MOL   C26042842   0.778   1.843   0.684 -0.5154 -0.5653  0.0629
  142MOL   O26142843   0.696   1.872   0.775  0.1073  0.2618  0.2132
  142MOL   O26242844   0.736   1.840   0.559  0.1332 -0.5178  0.5406
  142MOL   C26342845   0.594   1.860   0.539  0.4078  0.0462 -0.1782
  142MOL   H26442846   0.925   1.911   0.907 -0.8932 -0.1945 -0.7459
  142MOL   H26542847   0.897   1.751   0.900 -0.1889 -1.0146 -1.5626
  142MOL   H26642848   0.949   1.689   0.524 -0.5386 -3.1361  1.0994
  142MOL   H26742849   1.085   1.694   0.629  0.5534 -1.4932 -2.4142
  142MOL   H26842850   0.939   1.619   0.684 -0.3117  0.4092 -0.0745
  142MOL   H26942851   0.559   1.814   0.446  2.4560  2.5936 -2.3112
  142MOL   H27042852   0.582   1.968   0.528 -1.3802 -0.3608 -2.6869
  142MOL   H27142853   0.526   1.818   0.612  1.3909  0.2816  0.8773
  142MOL   C27242854   0.989   1.958   0.628  0.1064  0.3830  0.4396
  142MOL   C27342855   0.967   2.112   0.667 -0.2005  0.6507  0.1572
  142MOL   C27442856   0.944   2.136   0.813  0.3645 -0.5786  0.1156
  142MOL   C27542857   1.103   2.177   0.633 -0.1012  0.6431  0.6019
  142MOL   O27642858   1.177   2.219   0.718 -0.6767 -0.3235  0.0222
  142MOL   O27742859   1.142   2.166   0.505 -0.3692  0.3641 -0.4433
  142MOL   C27842860   1.277   2.200   0.465 -0.0994 -0.4928 -0.3660
  142MOL   H27942861   0.971   1.950   0.521 -0.1508  1.3828  0.4004
  142MOL   H28042862   1.095   1.937   0.636  0.0156  0.2172  1.3111
  142MOL   H28142863   0.946   2.244   0.834  1.4894 -0.6169  0.2488
  142MOL   H28242864   0.848   2.106   0.855  0.0847  0.7576  0.4610
  142MOL   H28342865   1.022   2.088   0.872  0.8603 -0.5015 -0.4775
  142MOL   H28442866   1.300   2.305   0.483 -0.9606 -0.2313 -0.7511
  142MOL   H28542867   1.274   2.195   0.356 -0.0772 -0.8133 -0.3510
  142MOL   H28642868   1.350   2.127   0.498 -2.2313 -2.5699 -0.1025
  142MOL   C28742869   0.858   2.177   0.584  0.1419  0.2515  0.7828
  142MOL   C28842870   0.825   2.334   0.601  0.3066  0.0441 -0.4379
  142MOL   C28942871   0.872   2.427   0.484  0.0660  0.5803 -0.0615
  142MOL   C29042872   0.676   2.358   0.637  0.4914 -0.2612 -0.7683
  142MOL   O29142873   0.640   2.401   0.747  0.5017  0.0195  0.4181
  142MOL   O29242874   0.596   2.334   0.527  0.2786  0.2886 -0.5976
  142MOL   C29342875   0.454   2.344   0.548 -0.2300 -0.0747 -0.5899
  142MOL   H29442876   0.763   2.124   0.591 -0.5137  1.6917  2.9013
  142MOL   H29542877   0.871   2.186   0.476  1.8842  0.9393  1.0378
  142MOL   H29642878   0.803   2.451   0.403  0.4772  0.3268 -0.4912
  142MOL   H29742879   0.903   2.524   0.523  0.5078 -0.2423  1.6776
  142MOL   H29842880   0.955   2.379   0.432 -1.0416 -0.3082 -1.0389
  142MOL   H29942881   0.426   2.435   0.600  3.6245  0.7318  0.2460
  142MOL   H30042882   0.426   2.258   0.611  0.0568 -1.5532 -2.4446
  142MOL   H30142883   0.392   2.335   0.459 -1.6015 -3.0244  0.5837
  142MOL   H30242884   0.882   2.373   0.685 -2.1351 -0.7382  1.6518
  143MOL     C142885   0.091   2.339   5.154  0.3342  0.0006 -0.5555
  143MOL     C242886   7.867   2.335   5.042  0.0350  0.6815  0.5285
  143MOL     C342887   0.032   2.429   4.933 -0.2127 -0.1901  0.4468
  143MOL     C442888   7.862   2.199   4.958  0.4607  0.0757 -0.1297
  143MOL     O542889   7.757   2.160   4.905 -0.2575 -0.6762 -0.0149
  143MOL     O642890   0.106   2.144   4.944  0.0012  0.3660 -0.3209
  143MOL     C742891   0.121   2.023   4.877  0.2974  0.7974  0.1088
  143MOL     H842892   0.086   2.431   5.212 -1.7161  0.4897 -1.4783
  143MOL     H942893   0.069   2.268   5.235  0.1044  2.2688  1.4208
  143MOL    H1042894   0.026   2.531   4.971  2.2743  0.0742  0.2091
  143MOL    H1142895   0.132   2.417   4.891  1.0014  3.4622  2.0212
  143MOL    H1242896   7.847   2.424   4.844  0.5290  1.2765 -0.1903
  143MOL    H1342897   0.223   1.989   4.896  0.2054  1.5580  2.1734
  143MOL    H1442898   0.101   2.021   4.770  0.0793  0.6535  0.1516
  143MOL    H1542899   0.040   1.956   4.906 -0.9959  2.1052 -0.3963
  143MOL    H1642900   0.193   2.313   5.127 -0.1079 -0.9147 -1.3690
  143MOL    C1742901   7.722   2.378   5.089  0.0368 -0.3289 -0.1444
  143MOL    C1842902   7.641   2.327   5.214 -0.0583  0.1299 -0.3296
  143MOL    C1942903   7.649   2.168   5.203 -0.3913 -0.7736  0.6868
  143MOL    C2042904   7.716   2.370   5.340  0.0978  0.5764 -0.3495
  143MOL    O2142905   7.775   2.480   5.351  0.5191 -0.1186  0.6432
  143MOL    O2242906   7.709   2.273   5.438 -0.2130 -0.9334  0.0188
  143MOL    C2342907   7.739   2.312   5.573 -0.7665 -0.2229 -0.1292
  143MOL    H2442908   7.655   2.365   5.005 -0.9121  0.0651  0.5452
  143MOL    H2542909   7.715   2.486   5.090  0.3637 -0.2832 -1.7155
  143MOL    H2642910   7.597   2.132   5.115 -1.0367 -2.6363  1.8003
  143MOL    H2742911   7.747   2.119   5.200 -0.2968 -0.5190 -0.4038
  143MOL    H2842912   7.580   2.125   5.276 -1.4747  1.0094  0.7309
  143MOL    H2942913   7.799   2.403   5.579  0.8742 -1.2858 -0.1984
  143MOL    H3042914   7.806   2.241   5.622 -0.8694  1.0418  1.8859
  143MOL    H3142915   7.652   2.309   5.639 -1.4494 -1.0857 -1.0500
  143MOL    C3242916   7.490   2.377   5.207  0.6706  0.2116  0.1293
  143MOL    C3342917   7.415   2.484   5.295  0.1922  0.5792 -0.1652
  143MOL    C3442918   7.390   2.421   5.433 -0.3733  0.3160 -0.0357
  143MOL    C3542919   7.496   2.613   5.305 -0.3662 -0.6793  0.8050
  143MOL    O3642920   7.568   2.647   5.208 -0.9634  0.5029  0.1207
  143MOL    O3742921   7.497   2.669   5.424 -0.1420 -0.0059 -0.1725
  143MOL    C3842922   7.572   2.787   5.447  0.6892  1.2911  0.1607
  143MOL    H3942923   7.424   2.291   5.204 -0.7816  1.1929  2.4612
  143MOL    H4042924   7.469   2.411   5.106  0.2889 -0.0689  0.1141
  143MOL    H4142925   7.482   2.385   5.478  0.3023  1.5701 -0.3848
  143MOL    H4242926   7.349   2.491   5.507  1.1826  1.2699 -0.0656
  143MOL    H4342927   7.316   2.341   5.440 -0.5357  0.5047  0.4536
  143MOL    H4442928   7.679   2.767   5.448  0.5525  0.4617 -0.3670
  143MOL    H4542929   7.544   2.827   5.544 -0.7255  0.4160  0.1315
  143MOL    H4642930   7.558   2.862   5.369 -0.1861  0.4447 -0.5272
  143MOL    C4742931   7.275   2.515   5.227  0.1079  0.0387  0.7316
  143MOL    C4842932   7.179   2.637   5.252  0.2232 -0.0194 -0.3738
  143MOL    C4942933   7.238   2.769   5.192  0.7242 -0.0885 -0.0563
  143MOL    C5042934   7.052   2.608   5.171 -0.3316 -0.7105 -0.0854
  143MOL    O5142935   7.007   2.683   5.080 -0.0086  0.0749  0.3650
  143MOL    O5242936   6.995   2.490   5.208  0.4332  0.2452 -0.5396
  143MOL    C5342937   6.872   2.455   5.145 -0.2502 -0.2854 -0.0823
  143MOL    H5442938   7.215   2.428   5.252 -1.4677  0.4644 -1.4503
  143MOL    H5542939   7.286   2.517   5.118  2.8325  2.7579  0.9827
  143MOL    H5642940   7.289   2.827   5.269 -0.9996  3.3458 -1.3989
  143MOL    H5742941   7.309   2.738   5.115  1.9482  1.3387  0.4663
  143MOL    H5842942   7.165   2.833   5.142  0.9136  0.0206 -0.1977
  143MOL    H5942943   6.838   2.363   5.193  1.3983 -0.7693  0.1718
  143MOL    H6042944   6.875   2.443   5.036  0.3249 -0.6776 -0.0244
  143MOL    H6142945   6.799   2.532   5.169  0.7296  0.2018  1.3867
  143MOL    C6242946   7.143   2.641   5.409  0.1638 -0.8401  0.3161
  143MOL    C6342947   7.037   2.739   5.473  0.3564 -0.0724  0.2430
  143MOL    C6442948   7.047   2.881   5.413 -0.4246 -0.0420 -0.2023
  143MOL    C6542949   6.884   2.691   5.447  0.1232 -0.7486 -0.1835
  143MOL    O6642950   6.800   2.769   5.392 -0.2642 -0.3195  0.3028
  143MOL    O6742951   6.856   2.559   5.482 -0.1971 -0.2622 -0.4140
  143MOL    C6842952   6.721   2.510   5.476  0.5161  0.0543  0.1677
  143MOL    H6942953   7.232   2.682   5.457  0.4577 -1.7592  0.5791
  143MOL    H7042954   7.124   2.539   5.442 -1.7433 -1.5384 -2.7226
  143MOL    H7142955   7.013   2.884   5.310  0.1394  1.4788 -0.3586
  143MOL    H7242956   6.979   2.949   5.464  0.5201  0.3075  0.6056
  143MOL    H7342957   7.148   2.920   5.405  0.3050 -1.4620  1.6676
  143MOL    H7442958   6.731   2.416   5.531  0.3367 -0.7226 -1.1003
  143MOL    H7542959   6.704   2.487   5.371 -3.4408  3.4059 -0.0306
  143MOL    H7642960   6.656   2.591   5.508  1.6145  1.1638 -0.3669
  143MOL    C7742961   7.063   2.760   5.623 -0.2935  0.4312 -0.2507
  143MOL    C7842962   7.047   2.650   5.740 -0.7039  0.2445 -0.0453
  143MOL    C7942963   7.106   2.515   5.702  0.2813  1.0601  0.3297
  143MOL    C8042964   7.145   2.698   5.851  0.3177  0.4994  0.1066
  143MOL    O8142965   7.195   2.813   5.849  0.4902  0.3418 -0.0245
  143MOL    O8242966   7.169   2.610   5.949  0.2422  0.2143  0.7586
  143MOL    C8342967   7.272   2.638   6.047  0.7430  0.2387  0.0011
  143MOL    H8442968   7.019   2.854   5.655  2.7196  1.4065  1.3352
  143MOL    H8542969   7.167   2.795   5.624  0.2243 -0.9867  2.3834
  143MOL    H8642970   7.206   2.533   5.662 -0.0923  1.6271 -0.3625
  143MOL    H8742971   7.109   2.438   5.779  0.8502 -1.8913 -2.4991
  143MOL    H8842972   7.058   2.462   5.619  1.9288  0.6948 -0.4156
  143MOL    H8942973   7.249   2.588   6.141  0.4043  0.4048  0.0085
  143MOL    H9042974   7.288   2.744   6.067  0.3149  0.4365 -0.6692
  143MOL    H9142975   7.369   2.607   6.008  1.7982  3.4649 -0.1022
  143MOL    C9242976   6.911   2.623   5.802  0.6485 -0.2281 -0.1554
  143MOL    C9342977   6.831   2.745   5.873  0.0060 -0.2357 -0.4493
  143MOL    C9442978   6.898   2.789   6.001  0.0718  0.0088 -0.0230
  143MOL    C9542979   6.794   2.858   5.780 -0.4145  0.1055 -0.2088
  143MOL    O9642980   6.850   2.971   5.786  0.1956  0.6689  0.5818
  143MOL    O9742981   6.705   2.827   5.684 -0.0546 -0.4895  0.6350
  143MOL    C9842982   6.649   2.939   5.614  0.5327 -0.3732 -0.4283
  143MOL    H9942983   6.929   2.548   5.879  0.8850  0.9356  0.9407
  143MOL   H10042984   6.858   2.582   5.716 -0.4783  1.7035 -0.4239
  143MOL   H10142985   6.925   2.709   6.070 -0.9251  0.3450  0.7656
  143MOL   H10242986   6.987   2.852   5.990  0.4996 -0.9421 -2.0503
  143MOL   H10342987   6.841   2.855   6.067  1.6100 -0.2852  1.6378
  143MOL   H10442988   6.731   2.986   5.560  0.0781  0.3362 -0.5173
  143MOL   H10542989   6.607   3.016   5.679  0.9884  0.7698 -1.4693
  143MOL   H10642990   6.567   2.915   5.545 -0.6969  2.4773 -0.0459
  143MOL   C10742991   6.701   2.667   5.912  0.1400  0.3673  0.8220
  143MOL   C10842992   6.583   2.711   6.008 -0.1792  0.0788 -0.5265
  143MOL   C10942993   6.622   2.678   6.157 -0.1810 -0.0443 -0.4323
  143MOL   C11042994   6.570   2.868   6.015 -0.0984 -0.3169 -0.2387
  143MOL   O11142995   6.603   2.930   6.114  0.0626 -0.8334  0.6783
  143MOL   O11242996   6.521   2.916   5.908  0.0414 -0.1580  0.7384
  143MOL   C11342997   6.485   3.055   5.898 -0.3493 -0.2126  0.2193
  143MOL   H11442998   6.741   2.570   5.941  1.3985  0.4808 -0.4812
  143MOL   H11542999   6.659   2.639   5.814  3.1229 -0.8311 -0.1623
  143MOL   H11643000   6.710   2.734   6.188 -1.5205  3.3202 -2.5249
  143MOL   H11743001   6.545   2.707   6.228  0.5971  1.8748 -0.3467
  143MOL   H11843002   6.637   2.573   6.185  0.9481  0.7043  1.9231
  143MOL   H11943003   6.434   3.090   5.988  0.2552 -2.0016  1.2771
  143MOL   H12043004   6.409   3.071   5.821 -0.4472 -0.1279  0.3340
  143MOL   H12143005   6.576   3.111   5.879 -2.1212  2.4694 -0.7522
  143MOL   C12243006   6.440   2.660   5.959 -0.7102  0.3728 -0.8037
  143MOL   C12343007   6.403   2.509   5.969  0.4889  0.6397 -0.2224
  143MOL   C12443008   6.522   2.415   5.933 -0.5083 -0.4405 -0.2295
  143MOL   C12543009   6.353   2.484   6.113 -0.1020  0.7084  0.4762
  143MOL   O12643010   6.416   2.407   6.195  0.5204  0.2784  0.0000
  143MOL   O12743011   6.244   2.555   6.145  0.2904 -0.6688  0.1305
  143MOL   C12843012   6.194   2.563   6.281 -0.7119 -0.0301  0.5859
  143MOL   H12943013   6.437   2.687   5.853 -0.6700  1.8935 -0.4176
  143MOL   H13043014   6.361   2.721   6.002  0.9876  2.7570 -1.0219
  143MOL   H13143015   6.560   2.451   5.837  0.7862 -0.5745  0.2224
  143MOL   H13243016   6.603   2.420   6.006 -0.6479 -1.4535 -0.0036
  143MOL   H13343017   6.492   2.311   5.935 -0.4336 -0.4643 -0.4113
  143MOL   H13443018   6.117   2.640   6.284  0.9352  1.7779 -1.2378
  143MOL   H13543019   6.269   2.597   6.353  0.3573  0.5163 -0.7572
  143MOL   H13643020   6.156   2.467   6.315 -0.6554 -0.1506  0.3170
  143MOL   C13743021   6.288   2.481   5.863 -0.5340 -0.1667  0.1330
  143MOL   C13843022   6.206   2.346   5.836  0.4224  0.7334  0.0750
  143MOL   C13943023   6.130   2.359   5.704 -0.1863  0.3521  0.6161
  143MOL   C14043024   6.295   2.225   5.822 -0.3424  0.4002 -0.1136
  143MOL   O14143025   6.306   2.137   5.907  0.7688  0.0481 -0.2019
  143MOL   O14243026   6.371   2.228   5.716 -0.1275  0.9189 -0.8549
  143MOL   C14343027   6.470   2.122   5.704 -0.3426 -0.9982 -0.1417
  143MOL   H14443028   6.323   2.513   5.765 -1.3162 -0.8962 -0.3869
  143MOL   H14543029   6.214   2.560   5.882  1.2685  1.4848  0.4744
  143MOL   H14643030   6.094   2.261   5.673 -1.3109  1.0588 -0.3486
  143MOL   H14743031   6.047   2.427   5.721 -0.2600  0.5287 -0.4446
  143MOL   H14843032   6.193   2.402   5.626 -1.4008  2.6208  0.8432
  143MOL   H14943033   6.426   2.027   5.675 -0.4703 -0.8906 -0.2961
  143MOL   H15043034   6.516   2.109   5.802 -2.1860 -1.2188  0.7053
  143MOL   H15143035   6.543   2.154   5.630  0.7986 -0.0984  1.3368
  143MOL   C15243036   6.104   2.319   5.953  0.0721  0.3304 -0.6139
  143MOL   C15343037   5.978   2.217   5.967 -0.4395  0.3606 -0.4140
  143MOL   C15443038   6.020   2.069   5.947 -0.4603  0.2262  0.5104
  143MOL   C15543039   5.946   2.231   6.123 -0.1815 -0.0328 -0.3731
  143MOL   O15643040   5.991   2.315   6.198  0.1295 -0.5943  0.3068
  143MOL   O15743041   5.862   2.140   6.167 -0.0903 -0.2444  0.3018
  143MOL   C15843042   5.797   2.157   6.289 -0.1450 -0.6716  0.4771
  143MOL   H15943043   6.069   2.421   5.964 -0.6460  0.2063 -1.7151
  143MOL   H16043044   6.174   2.314   6.036 -0.6056  1.9678  0.0725
  143MOL   H16143045   6.072   2.028   6.034 -1.4754  0.0461  1.0463
  143MOL   H16243046   5.931   2.006   5.938 -2.0713  2.4777  0.4345
  143MOL   H16343047   6.083   2.056   5.859 -2.2723  0.8209 -0.8835
  143MOL   H16443048   5.752   2.256   6.294  0.4275 -0.3746 -0.2301
  143MOL   H16543049   5.867   2.171   6.371  1.2474  2.2514 -1.1224
  143MOL   H16643050   5.721   2.084   6.319 -3.1896  2.4410  0.6665
  143MOL   C16743051   5.867   2.263   5.861  0.4878 -0.1710  0.3422
  143MOL   C16843052   5.710   2.238   5.877  0.5850  0.5631  0.9543
  143MOL   C16943053   5.689   2.088   5.896 -0.6663  0.1479 -0.0606
  143MOL   C17043054   5.644   2.307   6.003  0.0062  0.2756  0.0968
  143MOL   O17143055   5.702   2.396   6.067 -0.4389  0.0758  0.7590
  143MOL   O17243056   5.518   2.266   6.017 -0.4796 -0.1926 -0.5089
  143MOL   C17343057   5.434   2.325   6.114 -0.1565 -0.7118 -0.1235
  143MOL   H17443058   5.900   2.224   5.764  1.1089  1.0475  0.0546
  143MOL   H17543059   5.878   2.371   5.857  2.4057 -0.3981 -2.0491
  143MOL   H17643060   5.739   2.024   5.823  1.2613  2.3178 -0.7096
  143MOL   H17743061   5.714   2.068   6.000  1.0649  2.3083 -0.0078
  143MOL   H17843062   5.583   2.065   5.890 -0.9166  1.5488 -1.3088
  143MOL   H17943063   5.429   2.431   6.088 -1.5033 -0.7952 -0.2611
  143MOL   H18043064   5.472   2.319   6.215 -0.5261 -0.2870  0.0427
  143MOL   H18143065   5.334   2.282   6.104  0.0422 -1.7291  2.0415
  143MOL   C18243066   5.638   2.300   5.748 -0.5360  0.0170 -0.2514
  143MOL   C18343067   5.591   2.216   5.622 -0.3131 -0.5610  0.6158
  143MOL   C18443068   5.536   2.322   5.525  0.1898  0.1623  0.0979
  143MOL   C18543069   5.717   2.146   5.565  0.3423  0.0511  0.8095
  143MOL   O18643070   5.743   2.027   5.577 -0.2962  0.4223 -0.0661
  143MOL   O18743071   5.807   2.240   5.520  0.5664  0.1177 -0.1965
  143MOL   C18843072   5.928   2.196   5.457  0.6870  0.7566  0.0027
  143MOL   H18943073   5.689   2.390   5.714  0.1087  0.8963  2.8862
  143MOL   H19043074   5.551   2.351   5.790 -0.8255 -0.7069  0.0496
  143MOL   H19143075   5.610   2.400   5.511  1.1614 -0.6457  0.6112
  143MOL   H19243076   5.523   2.274   5.428  0.0562  1.7198 -0.6557
  143MOL   H19343077   5.447   2.378   5.554 -1.3944 -1.0952 -2.1553
  143MOL   H19443078   5.914   2.172   5.352  0.9194 -1.6601  0.4959
  143MOL   H19543079   5.979   2.118   5.513 -1.7199 -0.3817  0.6661
  143MOL   H19643080   5.993   2.284   5.448 -0.1028  1.5252  1.5336
  143MOL   C19743081   5.479   2.109   5.651  0.2301 -0.4553 -0.2439
  143MOL   C19843082   5.378   2.037   5.546  0.0599 -0.4765 -0.2989
  143MOL   C19943083   5.294   1.946   5.640  0.3794 -0.5452 -0.2292
  143MOL   C20043084   5.282   2.149   5.486 -0.6258  0.0786 -0.3821
  143MOL   O20143085   5.288   2.177   5.364 -0.4865  0.0985  0.1867
  143MOL   O20243086   5.212   2.210   5.582 -0.3535  0.4988 -0.5184
  143MOL   C20343087   5.129   2.315   5.549 -0.2493 -0.4505 -0.4222
  143MOL   H20443088   5.422   2.140   5.739 -1.5059 -0.6046 -1.2990
  143MOL   H20543089   5.531   2.023   5.694  1.0331  0.8268  1.4400
  143MOL   H20643090   5.215   1.890   5.590 -1.4926  0.1229  1.8701
  143MOL   H20743091   5.362   1.870   5.679  1.3960 -0.3358 -1.5596
  143MOL   H20843092   5.244   2.002   5.719  2.0374 -0.7608  0.9872
  143MOL   H20943093   5.140   2.328   5.441  0.0933 -2.6243 -0.6574
  143MOL   H21043094   5.165   2.404   5.601 -1.4640  0.2782 -0.7933
  143MOL   H21143095   5.024   2.300   5.574  0.5076 -1.5713  2.2387
  143MOL   C21243096   5.461   1.961   5.434 -0.8948  0.4100 -0.7235
  143MOL   C21343097   5.406   1.863   5.320  0.0716  0.6913 -0.0336
  143MOL   C21443098   5.484   1.886   5.182  0.2880 -0.4445 -0.3775
  143MOL   C21543099   5.442   1.721   5.373 -0.1628 -0.5965 -0.4233
  143MOL   O21643100   5.501   1.639   5.303 -0.4374  0.4397  0.7519
  143MOL   O21743101   5.418   1.712   5.503 -0.4986  0.1052  0.1236
  143MOL   C21843102   5.442   1.590   5.574 -0.2768  0.2622  0.6156
  143MOL   H21943103   5.541   1.917   5.493 -2.0216  2.5769  2.5261
  143MOL   H22043104   5.525   2.036   5.387 -0.2350  0.2724 -0.0466
  143MOL   H22143105   5.465   1.985   5.142  2.9459  0.6957  1.0276
  143MOL   H22243106   5.591   1.880   5.203  0.0764 -1.3645  0.5173
  143MOL   H22343107   5.467   1.822   5.096  0.4293  0.1027 -0.8127
  143MOL   H22443108   5.377   1.585   5.662 -0.6798  0.1461  0.3157
  143MOL   H22543109   5.543   1.553   5.589 -0.1160  0.7906  0.8495
  143MOL   H22643110   5.411   1.506   5.512 -0.1108  0.6174  0.0389
  143MOL   C22743111   5.253   1.879   5.288  0.3386 -0.2985  0.3842
  143MOL   C22843112   5.150   1.763   5.241 -0.0595 -0.8263 -0.1623
  143MOL   C22943113   5.206   1.701   5.105  0.3106  0.1078  0.1105
  143MOL   C23043114   5.139   1.647   5.339 -0.0266 -0.3124 -0.8636
  143MOL   O23143115   5.127   1.672   5.458  0.3634  0.3518  0.5435
  143MOL   O23243116   5.151   1.520   5.284  0.4032 -0.3727 -0.6361
  143MOL   C23343117   5.171   1.407   5.364  0.2730 -0.7966 -0.2411
  143MOL   H23443118   5.253   1.960   5.215  1.7558 -0.5252  0.1110
  143MOL   H23543119   5.197   1.921   5.372 -2.4022 -1.5226 -0.7834
  143MOL   H23643120   5.307   1.660   5.119 -0.5762 -2.2331 -0.1465
  143MOL   H23743121   5.146   1.622   5.062  0.1624 -0.6386  1.6676
  143MOL   H23843122   5.227   1.779   5.032  1.4452 -0.8466 -0.6105
  143MOL   H23943123   5.276   1.398   5.394 -0.9011 -0.7564  4.1360
  143MOL   H24043124   5.139   1.318   5.311 -1.6030 -0.1256 -0.2725
  143MOL   H24143125   5.108   1.414   5.452 -1.4335  0.2983 -1.5056
  143MOL   C24243126   5.016   1.839   5.214  0.3823  0.4040  0.8707
  143MOL   C24343127   4.876   1.804   5.275 -0.3496  0.9777  0.0518
  143MOL   C24443128   4.827   1.672   5.223  0.2877  0.3747  0.0692
  143MOL   C24543129   4.879   1.812   5.433  0.2832  0.4961  0.5085
  143MOL   O24643130   4.838   1.724   5.508  0.4017  0.0118 -0.0120
  143MOL   O24743131   4.940   1.931   5.467 -0.3301  0.0412 -0.6160
  143MOL   C24843132   4.933   1.973   5.604  0.1419  0.0169 -0.1436
  143MOL   H24943133   4.991   1.842   5.108 -0.2196 -1.9971  0.9165
  143MOL   H25043134   5.025   1.948   5.225  0.8778  0.3999  0.4955
  143MOL   H25143135   4.907   1.604   5.196 -1.9964 -1.0867 -3.3440
  143MOL   H25243136   4.766   1.618   5.296  1.4645 -0.9087  0.1024
  143MOL   H25343137   4.767   1.672   5.132  0.4113  0.0825 -0.0138
  143MOL   H25443138   4.840   1.944   5.652  0.8007 -0.6848  0.7294
  143MOL   H25543139   4.951   2.079   5.622 -0.4043  0.1667 -0.4842
  143MOL   H25643140   5.003   1.927   5.673  0.1990  0.4483  0.0884
  143MOL   C25743141   4.776   1.916   5.229  0.3826  0.5372 -0.0085
  143MOL   C25843142   4.619   1.931   5.259  1.0635 -0.6271 -0.8167
  143MOL   C25943143   4.586   2.067   5.185 -0.2013  0.4524  0.5559
  143MOL   C26043144   4.543   1.818   5.178 -0.5434 -0.1565  0.4473
  143MOL   O26143145   4.492   1.726   5.233 -0.2287  0.5914 -0.1708
  143MOL   O26243146   4.546   1.833   5.046  0.4519  0.1142 -0.0154
  143MOL   C26343147   4.475   1.749   4.959 -0.0337  0.5731 -0.0448
  143MOL   H26443148   4.779   1.902   5.121  0.9094 -0.0338  0.0761
  143MOL   H26543149   4.821   2.013   5.249 -0.6958  0.8764  0.8669
  143MOL   H26643150   4.647   2.146   5.230 -0.8804  0.0858  2.1410
  143MOL   H26743151   4.626   2.062   5.083 -1.8025 -0.6224 -0.0313
  143MOL   H26843152   4.482   2.097   5.194  0.4816  2.2704  3.0042
  143MOL   H26943153   4.540   1.669   4.925  0.6595  1.3414 -0.5397
  143MOL   H27043154   4.439   1.796   4.867 -0.8703 -1.0447 -0.5567
  143MOL   H27143155   4.386   1.706   5.005  0.5322 -1.4716 -0.8277
  143MOL   C27243156   4.578   1.929   5.413 -0.1989 -0.3435  0.1275
  143MOL   C27343157   4.442   1.992   5.479  0.2451  0.7655 -0.6947
  143MOL   C27443158   4.454   1.958   5.635  0.1124 -0.4351 -0.3721
  143MOL   C27543159   4.464   2.149   5.473  0.3718 -0.1476  0.2284
  143MOL   O27643160   4.379   2.228   5.426  0.0991 -0.0552  0.4599
  143MOL   O27743161   4.564   2.193   5.550  0.1170 -0.2452 -0.7054
  143MOL   C27843162   4.599   2.335   5.542  1.0436  0.0455  0.2533
  143MOL   H27943163   4.658   1.984   5.463  0.8271 -1.6630 -0.0413
  143MOL   H28043164   4.581   1.825   5.447  1.8306 -0.8934 -1.5815
  143MOL   H28143165   4.434   1.853   5.660 -1.4679  0.5264  2.7655
  143MOL   H28243166   4.543   1.993   5.687  0.0393  0.2737 -0.7147
  143MOL   H28343167   4.380   2.013   5.694 -1.0387 -0.7393 -1.4961
  143MOL   H28443168   4.695   2.347   5.591  1.3018  0.7519 -0.4068
  143MOL   H28543169   4.524   2.401   5.585  2.8493  1.2267  1.6842
  143MOL   H28643170   4.622   2.357   5.438  0.2796 -0.1752  0.0337
  143MOL   C28743171   4.315   1.952   5.405  0.1061  0.7458 -0.1453
  143MOL   C28843172   4.182   2.018   5.459 -0.5336 -0.1654 -0.7112
  143MOL   C28943173   4.093   2.048   5.343 -0.4091  0.1301 -0.0245
  143MOL   C29043174   4.113   1.936   5.561 -0.4300  0.6269 -0.5399
  143MOL   O29143175   4.035   1.986   5.646  0.1408 -0.3931  0.9384
  143MOL   O29243176   4.147   1.806   5.557 -0.0934  0.8060 -0.7718
  143MOL   C29343177   4.092   1.710   5.656  0.7323  0.2473 -0.4868
  143MOL   H29443178   4.318   1.844   5.408 -0.3651  0.7462  0.6116
  143MOL   H29543179   4.328   1.977   5.300  0.5918  1.2938  0.0417
  143MOL   H29643180   4.141   2.114   5.271  0.5078  0.7155  1.0990
  143MOL   H29743181   4.070   1.952   5.297  1.1872 -0.5670  0.5831
  143MOL   H29843182   3.992   2.083   5.364 -1.5517 -3.1322  0.0902
  143MOL   H29943183   4.065   1.760   5.749  0.4605  0.2752 -0.5781
  143MOL   H30043184   4.162   1.629   5.675 -0.2974 -0.3997  0.6124
  143MOL   H30143185   3.999   1.660   5.628  0.6459 -0.6320  1.2766
  143MOL   H30243186   4.195   2.120   5.496 -0.6166  0.5212 -2.5218
  144MOL     C143187   3.969   4.274   4.061 -0.4440  0.1746  0.0692
  144MOL     C243188   3.818   4.241   4.051  0.6125 -0.3408 -0.1887
  144MOL     C343189   3.790   4.091   4.073  0.0856  0.5981 -0.0307
  144MOL     C443190   3.757   4.325   4.165  0.1260 -0.1613 -0.0182
  144MOL     O543191   3.690   4.424   4.144 -0.0110 -0.6127 -0.5769
  144MOL     O643192   3.774   4.272   4.282  0.0579  0.3318 -0.4851
  144MOL     C743193   3.719   4.331   4.398  0.7374  0.5605  0.2184
  144MOL     H843194   4.029   4.220   3.988 -3.4826 -1.0250 -1.6720
  144MOL     H943195   3.985   4.376   4.027  2.6345 -0.6651 -1.1065
  144MOL    H1043196   3.688   4.074   4.106 -0.0175  2.1000  0.4904
  144MOL    H1143197   3.811   4.038   3.980  0.7399  0.8429 -0.0264
  144MOL    H1243198   3.859   4.055   4.150  1.7958 -1.4486 -2.4608
  144MOL    H1343199   3.671   4.427   4.379  1.4637  0.8269 -0.2838
  144MOL    H1443200   3.794   4.348   4.475  0.1443 -0.9103  1.1481
  144MOL    H1543201   3.643   4.266   4.441  1.4035  1.0783  2.2324
  144MOL    H1643202   4.019   4.243   4.153  4.2992  1.5852 -1.8941
  144MOL    C1743203   3.779   4.284   3.901  0.3862 -0.4034  0.6434
  144MOL    C1843204   3.637   4.250   3.827 -0.2146 -0.1024  0.3396
  144MOL    C1943205   3.624   4.099   3.812  0.5459 -0.8221 -0.3432
  144MOL    C2043206   3.515   4.309   3.913 -0.0575  0.4998 -0.1798
  144MOL    O2143207   3.437   4.241   3.974  0.1731  0.0299  0.0573
  144MOL    O2243208   3.518   4.446   3.919  0.1348 -0.4130  0.2060
  144MOL    C2343209   3.409   4.518   3.977  0.6943  0.2122 -0.4016
  144MOL    H2443210   3.856   4.236   3.842  0.7852  0.1365  0.7174
  144MOL    H2543211   3.801   4.390   3.888  2.4125 -0.8831  0.0223
  144MOL    H2643212   3.534   4.064   3.760  1.0559  0.1429 -1.9054
  144MOL    H2743213   3.702   4.044   3.761  0.4427 -0.1616 -1.2353
  144MOL    H2843214   3.602   4.055   3.909  0.1156 -1.9492 -0.9440
  144MOL    H2943215   3.446   4.560   4.070 -3.1974  1.3019  0.7762
  144MOL    H3043216   3.323   4.454   3.997  1.7558 -0.7812  1.0495
  144MOL    H3143217   3.367   4.598   3.915 -0.9019 -1.4292 -1.5213
  144MOL    C3243218   3.623   4.324   3.681  0.0235 -0.5108 -0.2841
  144MOL    C3343219   3.703   4.286   3.551  0.0473  0.0362 -0.6268
  144MOL    C3443220   3.852   4.305   3.589  1.0593 -0.1796 -0.9146
  144MOL    C3543221   3.667   4.146   3.501 -0.3098 -0.5914  0.2607
  144MOL    O3643222   3.749   4.051   3.507 -0.1672  0.0108  0.1195
  144MOL    O3743223   3.546   4.128   3.462 -0.6469  0.2245  0.1785
  144MOL    C3843224   3.504   3.992   3.438 -0.0414  0.3173 -1.1731
  144MOL    H3943225   3.628   4.431   3.699 -0.1252 -0.3135 -1.4043
  144MOL    H4043226   3.521   4.326   3.643  0.0753  1.0953 -0.3741
  144MOL    H4143227   3.870   4.397   3.645  2.9733 -0.6373 -0.7481
  144MOL    H4243228   3.896   4.219   3.639 -2.0581 -2.2089 -1.5817
  144MOL    H4343229   3.923   4.317   3.507  2.6731  3.3548  0.8525
  144MOL    H4443230   3.406   4.026   3.405  0.0023  1.4703 -0.1409
  144MOL    H4543231   3.502   3.922   3.521 -1.7400  1.6299 -0.0735
  144MOL    H4643232   3.556   3.952   3.351  0.3916 -1.7179 -0.0200
  144MOL    C4743233   3.667   4.385   3.432  0.6273 -0.6569 -0.2222
  144MOL    C4843234   3.697   4.363   3.280  0.2542  0.1523 -0.9599
  144MOL    C4943235   3.827   4.296   3.260 -0.3077  0.5800  0.4344
  144MOL    C5043236   3.584   4.270   3.212  0.3819  0.0892 -0.1237
  144MOL    O5143237   3.614   4.174   3.141  0.2129  0.5749  0.6110
  144MOL    O5243238   3.460   4.307   3.243  0.3143 -0.3248  0.7291
  144MOL    C5343239   3.350   4.235   3.191  0.0645 -0.3287 -0.7472
  144MOL    H5443240   3.728   4.472   3.457  2.4977 -1.6078 -1.3165
  144MOL    H5543241   3.565   4.421   3.440  1.0656  0.2701  1.2548
  144MOL    H5643242   3.849   4.209   3.322  1.5860  0.6784 -0.0544
  144MOL    H5743243   3.840   4.263   3.157  0.3221 -1.7592  1.2363
  144MOL    H5843244   3.911   4.364   3.272  0.9926 -1.2488  1.9444
  144MOL    H5943245   3.364   4.191   3.092  1.0814  2.8816 -2.0901
  144MOL    H6043246   3.263   4.300   3.193  0.2081 -0.1532 -0.2737
  144MOL    H6143247   3.307   4.160   3.257 -0.5318  0.0039 -0.7509
  144MOL    C6243248   3.711   4.501   3.206  0.0786  0.7807  0.3001
  144MOL    C6343249   3.587   4.609   3.183 -0.3961  0.1529 -0.1102
  144MOL    C6443250   3.509   4.559   3.059 -0.0731 -0.1117 -0.1687
  144MOL    C6543251   3.494   4.626   3.311  0.6503  1.7001  0.0133
  144MOL    O6643252   3.372   4.618   3.310  0.0281 -0.0537 -0.5334
  144MOL    O6743253   3.567   4.678   3.417 -0.0636 -0.2461  0.7174
  144MOL    C6843254   3.519   4.702   3.543  0.2598 -0.0019  0.2428
  144MOL    H6943255   3.755   4.481   3.108 -3.3856  0.7962 -1.3240
  144MOL    H7043256   3.785   4.562   3.258 -0.8573  1.8784  0.3826
  144MOL    H7143257   3.442   4.479   3.092 -0.8374  0.1488 -1.0523
  144MOL    H7243258   3.430   4.630   3.033  1.3474  0.7104 -2.2548
  144MOL    H7343259   3.568   4.520   2.977 -0.7013 -2.1932  0.3346
  144MOL    H7443260   3.509   4.615   3.608 -1.5617 -0.2400 -0.3424
  144MOL    H7543261   3.416   4.734   3.530 -0.9829 -3.7560  0.4094
  144MOL    H7643262   3.576   4.778   3.597  1.2629  0.7259 -1.7818
  144MOL    C7743263   3.666   4.742   3.141  0.5872 -0.1776  0.0532
  144MOL    C7843264   3.602   4.863   3.065 -0.7725 -0.2238 -0.4873
  144MOL    C7943265   3.589   4.827   2.916 -0.1505  0.1421 -0.2109
  144MOL    C8043266   3.472   4.911   3.126 -0.3495 -0.0596 -0.1130
  144MOL    O8143267   3.374   4.925   3.052 -0.1378 -0.1035  0.2960
  144MOL    O8243268   3.460   4.920   3.259  0.1465  0.1342  0.0313
  144MOL    C8343269   3.335   4.948   3.323 -0.3994 -0.4053 -0.5897
  144MOL    H8443270   3.758   4.715   3.088  0.5486 -0.4547  0.1246
  144MOL    H8543271   3.699   4.776   3.239 -0.4640 -0.0989  0.3757
  144MOL    H8643272   3.487   4.798   2.892  1.2672 -1.8917 -4.0911
  144MOL    H8743273   3.596   4.922   2.862  1.2843 -0.1804 -0.6112
  144MOL    H8843274   3.657   4.753   2.874  0.1650  0.3400 -0.0563
  144MOL    H8943275   3.274   4.859   3.311 -0.7292 -0.3333  0.5151
  144MOL    H9043276   3.274   5.026   3.276 -1.1770 -0.7454 -0.1556
  144MOL    H9143277   3.344   4.974   3.428 -1.4008  1.4009 -0.9298
  144MOL    C9243278   3.723   4.966   3.073 -0.6693  0.4796 -0.1932
  144MOL    C9343279   3.704   5.123   3.069 -0.1996  0.6450  0.3906
  144MOL    C9443280   3.627   5.145   2.939  0.1799  0.0649  0.0984
  144MOL    C9543281   3.637   5.186   3.191 -0.0408 -0.5664 -0.1915
  144MOL    O9643282   3.531   5.251   3.184 -0.5888  0.0387 -0.5522
  144MOL    O9743283   3.705   5.163   3.299  0.1705  0.2798  0.0497
  144MOL    C9843284   3.673   5.219   3.419 -0.7759 -0.8663 -0.0673
  144MOL    H9943285   3.786   4.935   2.989  1.1367  0.5826  1.1159
  144MOL   H10043286   3.778   4.961   3.167  0.6186  1.7579 -0.8659
  144MOL   H10143287   3.681   5.111   2.851  0.4845 -2.7976  1.3306
  144MOL   H10243288   3.531   5.094   2.949  0.3446  0.2556  2.9976
  144MOL   H10343289   3.620   5.252   2.920 -0.2433  0.0709  0.2985
  144MOL   H10443290   3.680   5.327   3.405 -0.7073 -1.0098 -1.2153
  144MOL   H10543291   3.729   5.173   3.500  2.6599 -1.3417 -2.5932
  144MOL   H10643292   3.567   5.210   3.445 -0.7930  1.0858  0.5917
  144MOL   C10743293   3.857   5.167   3.060  0.7574  0.7134 -0.7650
  144MOL   C10843294   3.913   5.306   3.009  0.0103  0.6412  0.3851
  144MOL   C10943295   3.869   5.338   2.866 -0.4049 -0.4966  0.2253
  144MOL   C11043296   3.867   5.432   3.094  0.7428  0.4234  0.5353
  144MOL   O11143297   3.829   5.417   3.206 -0.3256  0.1643  0.1007
  144MOL   O11243298   3.900   5.547   3.038 -0.5155  0.3906 -0.0875
  144MOL   C11343299   3.897   5.672   3.115  0.4998  0.0866 -0.6548
  144MOL   H11443300   3.914   5.089   3.007  0.2583 -0.0264 -0.2198
  144MOL   H11543301   3.896   5.160   3.161  0.3960 -0.3797 -0.6891
  144MOL   H11643302   3.766   5.370   2.848 -0.1592 -1.3772 -3.0910
  144MOL   H11743303   3.928   5.421   2.828 -0.9419 -0.4761 -0.5765
  144MOL   H11843304   3.891   5.251   2.805 -0.9390 -2.2916  2.5099
  144MOL   H11943305   3.944   5.748   3.053  1.5237  0.5786  0.7047
  144MOL   H12043306   3.953   5.658   3.208 -0.7796 -3.8524 -0.3728
  144MOL   H12143307   3.801   5.717   3.141  1.0581  1.2921 -0.6612
  144MOL   C12243308   4.073   5.293   3.001  0.4752  0.1149 -0.8327
  144MOL   C12343309   4.173   5.274   3.118 -0.9313 -0.4478 -0.1755
  144MOL   C12443310   4.164   5.396   3.215  0.0152  0.1894  0.5397
  144MOL   C12543311   4.145   5.148   3.200 -0.2611  0.4625 -0.0045
  144MOL   O12643312   4.130   5.156   3.324  0.4364 -0.5142 -0.1047
  144MOL   O12743313   4.137   5.038   3.123  0.0686 -0.1435  0.5010
  144MOL   C12843314   4.131   4.913   3.188  0.1514  0.4218 -0.5323
  144MOL   H12943315   4.118   5.376   2.946  1.7768  0.2089  0.3521
  144MOL   H13043316   4.082   5.213   2.928  0.7660  0.2893 -0.9907
  144MOL   H13143317   4.070   5.388   3.269 -1.0926 -1.4268 -1.5641
  144MOL   H13243318   4.233   5.409   3.298  1.8404  2.1842 -1.2045
  144MOL   H13343319   4.167   5.489   3.157 -0.7052 -1.0227 -1.4862
  144MOL   H13443320   4.166   4.839   3.116  0.9569  0.7936 -0.5243
  144MOL   H13543321   4.034   4.880   3.226  1.4692 -0.2693  2.3847
  144MOL   H13643322   4.199   4.895   3.271  1.0256 -3.2016 -1.9421
  144MOL   C13743323   4.312   5.279   3.045  0.0461  1.0036 -0.6613
  144MOL   C13843324   4.446   5.230   3.105 -0.5042  0.5488 -0.7453
  144MOL   C13943325   4.460   5.281   3.250 -0.1151 -0.0146  0.4454
  144MOL   C14043326   4.448   5.073   3.097 -0.1385 -0.4459 -0.0401
  144MOL   O14143327   4.405   5.014   2.998 -0.3901  0.7566 -0.1058
  144MOL   O14243328   4.512   5.012   3.189  0.1578  0.3767 -0.7979
  144MOL   C14343329   4.516   4.870   3.188 -0.1859  0.6246 -1.0083
  144MOL   H14443330   4.324   5.386   3.027 -0.3653  1.1336 -0.1846
  144MOL   H14543331   4.311   5.245   2.942  1.1520 -0.8541 -0.0843
  144MOL   H14643332   4.557   5.264   3.298 -0.3525  0.6455  1.1734
  144MOL   H14743333   4.460   5.390   3.247  1.0844 -0.0104  0.3889
  144MOL   H14843334   4.383   5.240   3.316 -0.7668 -0.0867 -0.3467
  144MOL   H14943335   4.444   4.814   3.247 -0.9072 -0.9580 -3.3139
  144MOL   H15043336   4.617   4.836   3.212 -0.5611 -0.6171 -1.1472
  144MOL   H15143337   4.515   4.830   3.086  1.7730 -0.9091 -0.4577
  144MOL   C15243338   4.559   5.285   3.014  0.4164 -0.3771  0.0484
  144MOL   C15343339   4.714   5.237   3.014  0.4951 -0.3947 -0.2940
  144MOL   C15443340   4.770   5.272   3.154 -0.4659 -0.6179  0.5506
  144MOL   C15543341   4.732   5.087   2.972  0.0079  0.5122 -0.7243
  144MOL   O15643342   4.787   5.000   3.047 -0.3720  0.3317  0.0357
  144MOL   O15743343   4.668   5.066   2.861  0.0295 -0.4592 -0.3699
  144MOL   C15843344   4.683   4.937   2.799  0.5506  0.0201 -0.1484
  144MOL   H15943345   4.557   5.393   3.022 -1.1666 -0.2513 -1.6679
  144MOL   H16043346   4.537   5.273   2.908 -2.0425 -0.2254  0.5249
  144MOL   H16143347   4.877   5.281   3.170 -0.6793  2.7343  0.5091
  144MOL   H16243348   4.733   5.366   3.195 -0.7371 -0.5586  0.1725
  144MOL   H16343349   4.745   5.199   3.231  0.9616  0.4319  2.0573
  144MOL   H16443350   4.633   4.947   2.703 -0.3167  0.4162  0.3373
  144MOL   H16543351   4.638   4.854   2.854 -0.3425 -0.1568 -1.1278
  144MOL   H16643352   4.788   4.909   2.788  0.8936  1.5689 -1.0790
  144MOL   C16743353   4.789   5.334   2.921  0.1351  0.1621  0.0058
  144MOL   C16843354   4.935   5.306   2.856 -0.2342  0.0384  0.5420
  144MOL   C16943355   5.043   5.272   2.967 -0.2815  0.9326  0.2856
  144MOL   C17043356   4.921   5.204   2.745 -0.1785 -0.6774 -0.1941
  144MOL   O17143357   4.997   5.109   2.726 -0.4184 -0.0799 -0.0390
  144MOL   O17243358   4.813   5.224   2.662  0.4989  0.3192 -0.0703
  144MOL   C17343359   4.789   5.158   2.546  0.5494  0.6261  0.1798
  144MOL   H17443360   4.787   5.428   2.976 -1.2669 -0.1568  0.5306
  144MOL   H17543361   4.724   5.362   2.838 -0.4670 -1.5418 -0.1274
  144MOL   H17643362   5.135   5.241   2.918 -1.2826 -1.9379  0.1530
  144MOL   H17743363   5.056   5.357   3.035  1.0529  0.3184  0.8119
  144MOL   H17843364   5.017   5.193   3.037  3.4868  0.9480  1.8427
  144MOL   H17943365   4.782   5.050   2.550  1.9344  0.5731  1.4008
  144MOL   H18043366   4.871   5.189   2.481  0.4036  0.9775  0.1600
  144MOL   H18143367   4.696   5.196   2.503  1.4825  0.6941 -1.8492
  144MOL   C18243368   4.966   5.450   2.794 -0.1482  0.3153 -0.3379
  144MOL   C18343369   5.098   5.486   2.706  0.0050  0.3331 -0.0376
  144MOL   C18443370   5.101   5.639   2.701 -0.0910  0.5126  0.5344
  144MOL   C18543371   5.234   5.439   2.775  0.1501  0.0715  0.3514
  144MOL   O18643372   5.317   5.371   2.712  0.2280 -0.1668  0.6113
  144MOL   O18743373   5.259   5.497   2.889 -0.5002 -0.5117 -0.5795
  144MOL   C18843374   5.363   5.465   2.972  0.7914  0.2394  0.1344
  144MOL   H18943375   4.963   5.526   2.872 -1.2733 -0.3827  0.2988
  144MOL   H19043376   4.885   5.475   2.726 -0.2501 -0.6998 -0.5942
  144MOL   H19143377   4.997   5.663   2.675 -0.2910  0.7189  1.4858
  144MOL   H19243378   5.120   5.661   2.806 -1.3786 -0.2078  0.9317
  144MOL   H19343379   5.169   5.690   2.633  1.6145 -0.9479  1.1315
  144MOL   H19443380   5.354   5.519   3.066  1.0943  3.4567 -1.5893
  144MOL   H19543381   5.452   5.500   2.919  1.5953  0.5705  1.6816
  144MOL   H19643382   5.377   5.358   2.983  3.2058  0.6183  1.0524
  144MOL   C19743383   5.082   5.422   2.566  0.2574 -0.1957 -0.7150
  144MOL   C19843384   5.135   5.478   2.425 -0.3891 -0.5061  0.0991
  144MOL   C19943385   5.274   5.529   2.449 -0.5790 -0.7740  0.3235
  144MOL   C20043386   5.137   5.362   2.312  0.3817  0.7388 -0.4913
  144MOL   O20143387   5.182   5.367   2.196  0.2231  0.3514 -1.0088
  144MOL   O20243388   5.069   5.246   2.354  0.7593  0.3149 -0.3890
  144MOL   C20343389   5.069   5.133   2.272 -1.0204  0.0373  0.7784
  144MOL   H20443390   4.978   5.391   2.557 -0.3055  1.0713  1.0579
  144MOL   H20543391   5.115   5.321   2.585 -0.3043 -0.0037  1.4539
  144MOL   H20643392   5.298   5.589   2.361 -2.7457  0.3600  0.4732
  144MOL   H20743393   5.309   5.577   2.540 -0.4900 -0.0463 -0.0931
  144MOL   H20843394   5.339   5.441   2.447 -0.8065 -0.9830  1.6693
  144MOL   H20943395   5.164   5.082   2.265 -1.9687 -1.8399  1.1704
  144MOL   H21043396   5.041   5.167   2.172  1.3505  2.5833  0.9398
  144MOL   H21143397   4.998   5.065   2.319 -0.7130 -0.8998 -0.0999
  144MOL   C21243398   5.067   5.608   2.359  0.4300  0.1720 -0.4291
  144MOL   C21343399   4.916   5.633   2.318 -0.4074  0.1606  0.3140
  144MOL   C21443400   4.912   5.764   2.234  0.1053 -0.0968  0.2259
  144MOL   C21543401   4.864   5.519   2.232  0.2455 -0.2674  0.1337
  144MOL   O21643402   4.810   5.416   2.276 -0.1631 -0.1946  0.4200
  144MOL   O21743403   4.873   5.547   2.098 -0.3209  0.0291  0.5705
  144MOL   C21843404   4.832   5.453   2.010 -0.2391  0.1705  0.7718
  144MOL   H21943405   5.123   5.645   2.274 -2.5115  0.6391 -2.2536
  144MOL   H22043406   5.080   5.680   2.439  0.6552  0.1167 -0.4154
  144MOL   H22143407   4.814   5.763   2.187  0.4829 -1.0592 -0.5611
  144MOL   H22243408   4.912   5.851   2.300 -1.0818 -0.5309  0.8259
  144MOL   H22343409   4.992   5.762   2.161 -1.6032  1.4431 -1.7388
  144MOL   H22443410   4.748   5.395   2.049 -0.4748  1.0869  1.6632
  144MOL   H22543411   4.913   5.396   1.965 -1.2724  0.7747 -1.9833
  144MOL   H22643412   4.797   5.514   1.927  1.9749 -3.0641 -2.7440
  144MOL   C22743413   4.825   5.643   2.447 -0.2046 -0.7619  0.4120
  144MOL   C22843414   4.671   5.653   2.458 -0.3271  0.0473  0.4150
  144MOL   C22943415   4.648   5.722   2.594 -0.1059 -0.4184 -0.0853
  144MOL   C23043416   4.622   5.748   2.353 -0.4702  0.4017 -0.4115
  144MOL   O23143417   4.557   5.710   2.258  0.2973 -0.6128  0.0178
  144MOL   O23243418   4.665   5.879   2.377  0.2519  0.0345 -0.0529
  144MOL   C23343419   4.617   5.984   2.297  0.1940 -0.0311 -0.2277
  144MOL   H23443420   4.864   5.734   2.493 -0.8842 -0.4346  0.3463
  144MOL   H23543421   4.861   5.564   2.512  0.4807 -2.0279 -1.4594
  144MOL   H23643422   4.711   5.810   2.608  1.8348 -1.7139 -0.3951
  144MOL   H23743423   4.545   5.747   2.619  0.2390  2.1578 -1.1339
  144MOL   H23843424   4.692   5.663   2.675  0.2839 -0.6235 -0.4476
  144MOL   H23943425   4.682   6.009   2.214 -0.1173  0.5221 -0.3100
  144MOL   H24043426   4.609   6.067   2.368 -0.0070 -0.4010  0.1883
  144MOL   H24143427   4.520   5.979   2.247  0.4019 -0.0515 -0.6211
  144MOL   C24243428   4.603   5.514   2.459 -0.9012 -0.0092  0.3913
  144MOL   C24343429   4.463   5.488   2.520  0.1928  0.7863  1.0023
  144MOL   C24443430   4.482   5.475   2.675 -0.4618 -0.3911 -0.3622
  144MOL   C24543431   4.359   5.601   2.487  0.1758  0.2351 -0.5535
  144MOL   O24643432   4.314   5.688   2.565  0.2261 -0.0825 -0.6402
  144MOL   O24743433   4.317   5.599   2.361 -0.5689 -0.1903  0.3577
  144MOL   C24843434   4.236   5.707   2.309 -0.7173 -0.3082  0.0564
  144MOL   H24943435   4.668   5.445   2.514 -0.4442  0.2703  0.2065
  144MOL   H25043436   4.600   5.479   2.356  0.7347 -1.2314  0.7466
  144MOL   H25143437   4.384   5.452   2.715 -1.2969  1.3023 -1.4092
  144MOL   H25243438   4.549   5.395   2.707 -1.2336 -0.7382  0.3893
  144MOL   H25343439   4.506   5.571   2.721  0.0811  0.3124 -2.0499
  144MOL   H25443440   4.171   5.749   2.385  1.5465  1.9630  0.7951
  144MOL   H25543441   4.185   5.678   2.217  0.3373  1.0206 -0.9649
  144MOL   H25643442   4.309   5.782   2.278 -0.9828 -1.1298 -2.6908
  144MOL   C25743443   4.416   5.350   2.457 -0.4028  0.7294 -0.4122
  144MOL   C25843444   4.310   5.245   2.514  0.0752 -0.2169 -0.7025
  144MOL   C25943445   4.374   5.162   2.625  0.1250  0.3478 -0.1149
  144MOL   C26043446   4.190   5.323   2.577 -0.0640  0.6612  0.1027
  144MOL   O26143447   4.173   5.318   2.696 -0.1030 -0.5955 -0.1667
  144MOL   O26243448   4.112   5.392   2.486 -0.7091 -0.2342 -0.1962
  144MOL   C26343449   4.016   5.489   2.528 -0.3910  0.0745  0.4402
  144MOL   H26443450   4.506   5.288   2.454 -0.9655 -0.1258  0.1150
  144MOL   H26543451   4.397   5.373   2.352  1.1280 -0.1285 -0.9053
  144MOL   H26643452   4.388   5.229   2.709  0.4790  0.7172 -0.4641
  144MOL   H26743453   4.306   5.090   2.670 -0.4557  0.9363 -0.0474
  144MOL   H26843454   4.475   5.124   2.605 -0.6401 -2.3294  0.9070
  144MOL   H26943455   4.073   5.564   2.584  2.7685 -0.3383 -2.1046
  144MOL   H27043456   3.942   5.451   2.599 -1.9056 -0.2508 -1.2807
  144MOL   H27143457   3.963   5.534   2.444 -0.6505 -0.7378  0.1658
  144MOL   C27243458   4.252   5.142   2.398 -0.1290  0.0056  0.0661
  144MOL   C27343459   4.321   5.004   2.354  0.1727  0.0892  0.1546
  144MOL   C27443460   4.262   4.964   2.218  0.4611 -0.4857  0.1863
  144MOL   C27543461   4.476   5.021   2.345  0.3326 -0.2294 -0.1095
  144MOL   O27643462   4.552   4.967   2.426 -0.6374 -0.0560  0.2402
  144MOL   O27743463   4.509   5.115   2.257  0.3806 -0.5749  0.6589
  144MOL   C27843464   4.649   5.139   2.231 -0.0783  0.1977  0.1441
  144MOL   H27943465   4.235   5.205   2.310 -4.0464  0.5596  1.1622
  144MOL   H28043466   4.155   5.104   2.427  0.2370  0.0075  1.3078
  144MOL   H28143467   4.168   4.908   2.221 -0.8265  1.5139 -0.9210
  144MOL   H28243468   4.249   5.037   2.139 -0.9873 -1.0225 -0.0901
  144MOL   H28343469   4.327   4.892   2.169 -1.4462 -1.6819 -0.6440
  144MOL   H28443470   4.711   5.151   2.320 -0.3184  0.7385  0.2407
  144MOL   H28543471   4.664   5.231   2.174 -0.0966  0.5751  0.7424
  144MOL   H28643472   4.685   5.062   2.163 -1.0099  1.1647 -1.4933
  144MOL   C28743473   4.285   4.884   2.445  0.0675  0.5284 -0.2651
  144MOL   C28843474   4.136   4.847   2.472  0.1590  0.7566  0.4874
  144MOL   C28943475   4.123   4.693   2.484 -0.1528  0.0070  0.7169
  144MOL   C29043476   4.076   4.910   2.603  0.8394 -0.5430 -0.6978
  144MOL   O29143477   3.987   4.997   2.605  0.1752 -0.0716 -0.1801
  144MOL   O29243478   4.141   4.862   2.718 -0.5426  0.5122  0.3250
  144MOL   C29343479   4.123   4.927   2.842  0.0161  0.1259 -0.3769
  144MOL   H29443480   4.332   4.878   2.543 -0.4933  2.5671  0.1605
  144MOL   H29543481   4.326   4.796   2.395  0.4873  0.3007  0.4639
  144MOL   H29643482   4.186   4.669   2.570 -0.4734  2.1357  1.5857
  144MOL   H29743483   4.024   4.659   2.515 -0.0352  0.9338  2.1424
  144MOL   H29843484   4.156   4.635   2.398  0.7567  0.2237  0.9140
  144MOL   H29943485   4.213   4.902   2.898  0.0849  1.3610  0.0769
  144MOL   H30043486   4.031   4.886   2.883 -0.4732 -0.5065 -2.0730
  144MOL   H30143487   4.120   5.036   2.841  1.2660  0.1911  1.2502
  144MOL   H30243488   4.066   4.878   2.394  1.5830 -2.2983 -2.1482
  145MOL     C143489   3.114   4.604   2.890  0.2416 -0.3111 -0.2100
  145MOL     C243490   3.018   4.632   3.003  0.0268  0.5162  0.2352
  145MOL     C343491   3.071   4.544   3.122  0.0148  0.3381 -0.0117
  145MOL     C443492   3.035   4.776   3.059  0.6967 -0.2154 -0.4793
  145MOL     O543493   3.013   4.811   3.175  0.1478 -0.4107  0.0581
  145MOL     O643494   3.070   4.864   2.960 -0.0078 -0.2976  0.4303
  145MOL     C743495   3.074   5.003   2.977  0.5225  0.5921 -0.1889
  145MOL     H843496   3.209   4.653   2.912  0.1750 -0.3217  0.1044
  145MOL     H943497   3.137   4.499   2.870 -0.4992 -0.2170 -1.6373
  145MOL    H1043498   3.091   4.444   3.086  0.8015  0.5501 -0.1835
  145MOL    H1143499   3.166   4.572   3.168  1.2012 -0.7587 -1.7734
  145MOL    H1243500   2.995   4.526   3.198 -1.1038 -1.8298 -1.5963
  145MOL    H1343501   3.106   5.042   2.880  0.2842  0.1705 -0.4436
  145MOL    H1443502   3.142   5.031   3.057 -0.3696 -4.1370  2.4219
  145MOL    H1543503   2.974   5.036   3.006  1.4585  2.0558  1.4098
  145MOL    H1643504   3.089   4.655   2.797  2.0775  1.8727  0.4329
  145MOL    C1743505   2.868   4.604   2.968 -0.6802  0.8625  0.4890
  145MOL    C1843506   2.809   4.456   2.945  0.2247  0.2616 -0.0572
  145MOL    C1943507   2.879   4.381   2.829  0.4872  0.0415  0.4246
  145MOL    C2043508   2.817   4.370   3.077 -0.7980  0.7457  0.1937
  145MOL    O2143509   2.737   4.391   3.169  0.0823 -0.1855  0.0136
  145MOL    O2243510   2.922   4.281   3.089 -0.1100  0.4366  0.4585
  145MOL    C2343511   2.942   4.201   3.204 -0.0839  0.4623 -0.3453
  145MOL    H2443512   2.855   4.658   2.874  1.0591  1.0401  0.3354
  145MOL    H2543513   2.801   4.650   3.040  0.0120  0.6194  1.2947
  145MOL    H2643514   2.979   4.354   2.863  0.7076  0.9732  0.5436
  145MOL    H2743515   2.826   4.287   2.817 -0.8254  0.9910 -1.5084
  145MOL    H2843516   2.884   4.451   2.745  0.8613  1.0710  1.2846
  145MOL    H2943517   2.870   4.118   3.204  0.0093  0.3758  0.2424
  145MOL    H3043518   2.936   4.250   3.301 -0.3944 -0.7486  0.2704
  145MOL    H3143519   3.026   4.133   3.188 -1.2709 -0.9413 -0.7060
  145MOL    C3243520   2.646   4.468   2.922  0.2983 -0.3142  0.5284
  145MOL    C3343521   2.579   4.493   2.782 -0.3424  0.6080  0.1284
  145MOL    C3443522   2.648   4.617   2.709  0.5903 -0.2577 -0.8611
  145MOL    C3543523   2.602   4.368   2.693 -0.1766 -0.5929  0.5693
  145MOL    O3643524   2.645   4.382   2.576  0.1736  0.4391  0.7447
  145MOL    O3743525   2.595   4.253   2.761  0.4604 -0.3205 -0.2978
  145MOL    C3843526   2.608   4.137   2.688  0.2490  0.4982  0.5102
  145MOL    H3943527   2.620   4.553   2.985  1.1348  0.2849  0.0650
  145MOL    H4043528   2.589   4.386   2.967 -2.5332  1.3916  0.2060
  145MOL    H4143529   2.754   4.597   2.693  0.8206  0.3540 -0.1480
  145MOL    H4243530   2.585   4.638   2.622 -0.9253  1.1132  0.5418
  145MOL    H4343531   2.636   4.709   2.766  0.2677 -0.6319 -0.3257
  145MOL    H4443532   2.581   4.054   2.753  0.3477 -0.3751 -0.5539
  145MOL    H4543533   2.710   4.118   2.655  0.0066 -0.8747  0.5584
  145MOL    H4643534   2.549   4.138   2.596  0.8462  1.1903  0.1270
  145MOL    C4743535   2.423   4.514   2.802 -0.4166  0.1215  0.6816
  145MOL    C4843536   2.302   4.496   2.687  0.0822 -0.3803 -0.7019
  145MOL    C4943537   2.170   4.531   2.764 -0.5830 -0.3247  0.8877
  145MOL    C5043538   2.324   4.599   2.571 -0.0359 -0.3258  0.6612
  145MOL    O5143539   2.271   4.711   2.571  0.0224 -0.4713  0.4427
  145MOL    O5243540   2.398   4.563   2.469 -0.0243  0.2753 -0.1936
  145MOL    C5343541   2.397   4.638   2.346 -0.4171  0.4740 -0.0299
  145MOL    H5443542   2.420   4.620   2.828  0.3469  0.3294 -0.0860
  145MOL    H5543543   2.394   4.465   2.896 -0.9278  0.7921  0.8730
  145MOL    H5643544   2.085   4.516   2.698  0.3176  1.4813 -0.7221
  145MOL    H5743545   2.169   4.470   2.855 -0.3779 -0.6162  0.6956
  145MOL    H5843546   2.164   4.631   2.807 -1.5195 -0.4659  1.1026
  145MOL    H5943547   2.324   4.585   2.285 -1.6461  1.2577  0.7445
  145MOL    H6043548   2.494   4.637   2.296 -1.3704 -0.7551 -1.9082
  145MOL    H6143549   2.370   4.742   2.361 -0.6070  0.3660  0.3838
  145MOL    C6243550   2.296   4.348   2.640 -0.8045  0.5231 -0.2353
  145MOL    C6343551   2.171   4.275   2.561 -0.9631  0.3530 -0.3294
  145MOL    C6443552   2.242   4.147   2.496  1.0151  0.0846  0.3495
  145MOL    C6543553   2.069   4.222   2.670  0.7118 -0.3047  0.2518
  145MOL    O6643554   2.049   4.273   2.783  0.0463  0.7579  0.3195
  145MOL    O6743555   1.996   4.120   2.627  0.1566 -0.7734  0.4937
  145MOL    C6843556   1.890   4.066   2.703 -0.4688 -0.4831 -0.1915
  145MOL    H6943557   2.332   4.286   2.723  1.4627  2.0229 -0.0408
  145MOL    H7043558   2.383   4.335   2.575 -0.6713  1.8799 -0.3367
  145MOL    H7143559   2.289   4.177   2.402  0.0891  0.2025 -0.0719
  145MOL    H7243560   2.325   4.123   2.563  0.9238  0.6451  0.6677
  145MOL    H7343561   2.190   4.052   2.489  0.2461  0.6250 -1.6666
  145MOL    H7443562   1.803   4.132   2.694 -1.0839 -1.1738  0.6184
  145MOL    H7543563   1.904   4.073   2.811 -0.4531 -0.9989 -0.1626
  145MOL    H7643564   1.855   3.964   2.691 -0.4600 -0.8818  2.7813
  145MOL    C7743565   2.111   4.358   2.440  0.2030 -0.0098 -0.1326
  145MOL    C7843566   1.989   4.315   2.360  0.5258  0.3926 -0.1354
  145MOL    C7943567   2.004   4.166   2.307  0.5263 -0.4331 -0.0299
  145MOL    C8043568   1.864   4.328   2.443  0.5123 -0.1223 -0.0543
  145MOL    O8143569   1.855   4.398   2.540 -0.2665  0.0523 -0.2121
  145MOL    O8243570   1.756   4.262   2.388  0.3224 -0.0799  0.1496
  145MOL    C8343571   1.632   4.263   2.462 -0.8561  0.2242  0.4635
  145MOL    H8443572   2.195   4.363   2.370 -0.1150  1.9408 -0.3984
  145MOL    H8543573   2.097   4.456   2.484 -0.0436  0.1742 -0.6193
  145MOL    H8643574   2.001   4.085   2.380 -2.1070  0.1947  0.6110
  145MOL    H8743575   1.920   4.132   2.246  0.5932 -1.5081  0.4619
  145MOL    H8843576   2.096   4.139   2.255  0.7964 -0.5226  0.4911
  145MOL    H8943577   1.622   4.353   2.523  0.0909  1.1251 -0.6777
  145MOL    H9043578   1.626   4.175   2.526 -0.2271 -1.1678 -1.3537
  145MOL    H9143579   1.549   4.248   2.393 -2.1869 -0.5058  2.1934
  145MOL    C9243580   2.000   4.414   2.237  0.6485 -0.0391 -0.2243
  145MOL    C9343581   1.888   4.416   2.126 -0.7007  0.3855 -0.0599
  145MOL    C9443582   1.845   4.274   2.059 -0.3120 -0.0529 -0.7262
  145MOL    C9543583   1.758   4.499   2.171 -0.1855 -0.0706 -1.4223
  145MOL    O9643584   1.649   4.454   2.139 -0.8152  0.3376  0.0632
  145MOL    O9743585   1.781   4.611   2.238 -0.4508  0.0251  0.0829
  145MOL    C9843586   1.669   4.692   2.275 -1.1290  0.1081  0.6730
  145MOL    H9943587   2.092   4.385   2.189 -0.0275 -1.2097 -0.8306
  145MOL   H10043588   2.016   4.515   2.276 -1.2705 -0.7630  2.6167
  145MOL   H10143589   1.933   4.210   2.048  0.0779  0.3393  0.0006
  145MOL   H10243590   1.776   4.216   2.121  0.5570 -1.3339 -0.9348
  145MOL   H10343591   1.790   4.295   1.968 -2.1440 -0.0584  0.3650
  145MOL   H10443592   1.627   4.741   2.187  1.8935  0.3659 -0.6827
  145MOL   H10543593   1.704   4.773   2.338 -2.3051  1.8565 -0.8600
  145MOL   H10643594   1.593   4.632   2.326 -1.4723 -0.2451 -0.2367
  145MOL   C10743595   1.958   4.512   2.014  0.2062 -0.6719  0.4989
  145MOL   C10843596   2.059   4.468   1.897  0.1939  0.1378 -0.6351
  145MOL   C10943597   2.192   4.412   1.959 -0.8455  0.2320 -0.2267
  145MOL   C11043598   2.006   4.358   1.808 -0.1846  0.1090  0.0574
  145MOL   O11143599   2.061   4.249   1.791  0.5329  0.1651  0.0684
  145MOL   O11243600   1.896   4.390   1.745 -0.0732  0.3071 -0.1396
  145MOL   C11343601   1.805   4.290   1.693 -0.2608  0.5633  0.2508
  145MOL   H11443602   2.006   4.597   2.062  0.1777 -0.6852  0.5501
  145MOL   H11543603   1.881   4.569   1.961  1.4300 -0.9563 -1.6401
  145MOL   H11643604   2.230   4.483   2.033 -1.5624  0.2512  0.1295
  145MOL   H11743605   2.184   4.315   2.008 -0.0332  0.5508  0.5631
  145MOL   H11843606   2.270   4.391   1.885 -0.4954  3.1528 -0.7312
  145MOL   H11943607   1.858   4.203   1.654  1.9867  0.3527  3.5203
  145MOL   H12043608   1.752   4.311   1.601 -1.4394 -0.8231  0.5832
  145MOL   H12143609   1.729   4.259   1.765  1.5349  0.2812  2.0837
  145MOL   C12243610   2.078   4.587   1.790  0.4993  0.2942  0.1889
  145MOL   C12343611   2.178   4.707   1.803 -0.3899 -1.0733 -0.3284
  145MOL   C12443612   2.149   4.775   1.941 -0.2911 -0.6567  0.1540
  145MOL   C12543613   2.329   4.664   1.798  0.1357 -0.2411  0.2687
  145MOL   O12643614   2.421   4.725   1.857  0.0860 -0.1496 -0.7388
  145MOL   O12743615   2.349   4.553   1.715 -0.4852  0.6427 -0.4139
  145MOL   C12843616   2.479   4.482   1.722  0.6836 -0.3834  0.0455
  145MOL   H12943617   1.982   4.638   1.789 -0.1125 -0.7236  2.5256
  145MOL   H13043618   2.100   4.547   1.691  0.1412 -1.7669  0.9233
  145MOL   H13143619   2.197   4.872   1.954 -0.0312 -0.9418  1.3904
  145MOL   H13243620   2.044   4.802   1.957 -0.6097 -0.6935 -1.6926
  145MOL   H13343621   2.189   4.715   2.023  1.3910  1.5157  0.9459
  145MOL   H13443622   2.470   4.380   1.685 -1.9852  0.2469 -1.1590
  145MOL   H13543623   2.499   4.467   1.828  0.5200  2.0625  0.4641
  145MOL   H13643624   2.562   4.536   1.677  0.7297 -0.6773 -0.2248
  145MOL   C13743625   2.140   4.826   1.707 -0.0613 -0.3767 -0.2057
  145MOL   C13843626   2.154   4.821   1.551 -0.3068 -0.2993 -0.0949
  145MOL   C13943627   2.303   4.810   1.511  0.1163  0.2120  0.2183
  145MOL   C14043628   2.068   4.701   1.499 -0.3146  0.4352  0.3712
  145MOL   O14143629   2.114   4.618   1.414 -0.6303 -0.2528  0.1268
  145MOL   O14243630   1.941   4.709   1.540 -0.4056 -0.4628 -0.4111
  145MOL   C14343631   1.847   4.611   1.507  0.4431  0.0147  0.1828
  145MOL   H14443632   2.195   4.913   1.741 -0.4213  0.3381 -1.4018
  145MOL   H14543633   2.037   4.857   1.726  0.2943  1.3939 -1.0323
  145MOL   H14643634   2.334   4.707   1.527  1.8717  0.5528 -0.8440
  145MOL   H14743635   2.331   4.837   1.409  1.2713  2.0005  0.9802
  145MOL   H14843636   2.366   4.868   1.578  0.8468  0.3179 -0.5551
  145MOL   H14943637   1.782   4.637   1.424 -0.0060 -0.2905  0.4282
  145MOL   H15043638   1.779   4.601   1.592 -3.2254 -0.6956 -2.7270
  145MOL   H15143639   1.886   4.510   1.499  0.6742 -0.0260  1.5655
  145MOL   C15243640   2.097   4.949   1.472 -0.3114  0.7485 -0.4501
  145MOL   C15343641   2.143   5.101   1.494  0.3349 -0.1103  0.1401
  145MOL   C15443642   2.083   5.158   1.621  0.3532 -0.5911  0.0818
  145MOL   C15543643   2.297   5.114   1.513  0.4216  0.0195  1.0713
  145MOL   O15643644   2.349   5.131   1.620 -0.4933 -0.1350 -0.1868
  145MOL   O15743645   2.360   5.106   1.389 -0.1273  0.1278  0.3654
  145MOL   C15843646   2.501   5.138   1.387  0.0656 -0.4552 -0.2801
  145MOL   H15943647   1.989   4.944   1.484 -0.2993 -2.3307 -1.2296
  145MOL   H16043648   2.119   4.920   1.369  1.5369 -1.5238  0.5437
  145MOL   H16143649   1.976   5.144   1.609  0.2084 -0.5276  1.2544
  145MOL   H16243650   2.117   5.109   1.712 -2.0737 -2.0191  0.2525
  145MOL   H16343651   2.097   5.263   1.646 -1.4869 -0.6189  1.3470
  145MOL   H16443652   2.537   5.179   1.481  1.4742 -0.3620 -0.8489
  145MOL   H16543653   2.529   5.220   1.321  0.2387 -2.3895 -2.6764
  145MOL   H16643654   2.550   5.043   1.368  0.0977 -0.2848 -1.1024
  145MOL   C16743655   2.092   5.187   1.371 -0.3287 -0.2124  0.3939
  145MOL   C16843656   1.949   5.238   1.348 -0.0071 -0.8245  0.6886
  145MOL   C16943657   1.845   5.127   1.372 -0.5674  0.4548 -0.3295
  145MOL   C17043658   1.903   5.362   1.429 -0.3990 -0.2023  0.2450
  145MOL   O17143659   1.784   5.386   1.445 -0.2995 -0.0393  0.1406
  145MOL   O17243660   2.002   5.436   1.465  0.1588 -0.1657 -0.2142
  145MOL   C17343661   1.969   5.558   1.535 -0.2020 -0.2667  0.2242
  145MOL   H17443662   2.120   5.128   1.284 -4.1448  1.9432 -2.4340
  145MOL   H17543663   2.160   5.272   1.358  1.0150 -1.6717 -2.5644
  145MOL   H17643664   1.865   5.036   1.317  0.4355  0.5243 -0.1049
  145MOL   H17743665   1.825   5.101   1.476 -2.2739  0.9849 -0.5155
  145MOL   H17843666   1.745   5.157   1.342 -1.0799  0.4410  1.2915
  145MOL   H17943667   2.038   5.642   1.528 -1.1857  0.4664 -1.0210
  145MOL   H18043668   1.946   5.534   1.639  2.5453 -0.8400  0.7336
  145MOL   H18143669   1.871   5.590   1.498 -0.2993 -0.2532  0.4962
  145MOL   C18243670   1.917   5.268   1.194 -0.0711  0.2372  0.0409
  145MOL   C18343671   1.986   5.372   1.100 -1.1005  0.5340 -0.5373
  145MOL   C18443672   1.999   5.514   1.165 -0.6096  0.5778 -0.1154
  145MOL   C18543673   2.127   5.322   1.068 -0.0858  0.0707 -0.4668
  145MOL   O18643674   2.229   5.395   1.086  0.2432 -0.0486 -0.1329
  145MOL   O18743675   2.128   5.189   1.027 -1.0392 -0.4488  1.0596
  145MOL   C18843676   2.253   5.129   1.003 -0.2168 -0.3704  0.7168
  145MOL   H18943677   1.814   5.303   1.189 -0.3481 -0.5937 -0.0801
  145MOL   H19043678   1.907   5.171   1.145 -2.0295 -0.5618  1.9379
  145MOL   H19143679   2.062   5.512   1.253 -1.4206 -0.2466  0.4494
  145MOL   H19243680   2.049   5.572   1.088  1.6476 -1.4866 -0.2672
  145MOL   H19343681   1.903   5.546   1.206 -1.2080 -3.8885  2.2803
  145MOL   H19443682   2.313   5.199   0.944 -1.7139 -0.6472 -1.2017
  145MOL   H19543683   2.239   5.047   0.933 -2.8530  0.2573  0.4483
  145MOL   H19643684   2.313   5.109   1.092  0.5224 -2.2252 -0.1695
  145MOL   C19743685   1.902   5.371   0.960  0.1705 -0.2207 -0.4899
  145MOL   C19843686   1.919   5.471   0.838  0.3624 -0.3927 -0.0160
  145MOL   C19943687   1.826   5.591   0.870 -0.3118 -0.0330 -0.1900
  145MOL   C20043688   2.069   5.525   0.823 -0.1100  0.5698 -0.4056
  145MOL   O20143689   2.085   5.648   0.830  0.4931  0.2787  0.2513
  145MOL   O20243690   2.159   5.435   0.789 -0.1896  0.1425  0.3362
  145MOL   C20343691   2.297   5.470   0.797  0.3829  0.0761 -0.0915
  145MOL   H20443692   1.795   5.376   0.980  0.7667  3.4089  2.0773
  145MOL   H20543693   1.923   5.271   0.920  0.2873  0.0289 -1.0499
  145MOL   H20643694   1.849   5.674   0.803  3.2874 -0.9029 -0.1856
  145MOL   H20743695   1.721   5.567   0.856 -0.0367 -1.6665  0.4647
  145MOL   H20843696   1.850   5.626   0.970 -1.7953 -0.3821  0.2870
  145MOL   H20943697   2.313   5.525   0.704  0.1736  0.1893 -0.0588
  145MOL   H21043698   2.354   5.377   0.785  0.6820 -0.0775  2.2863
  145MOL   H21143699   2.313   5.531   0.886 -0.3363 -0.1934  0.2257
  145MOL   C21243700   1.864   5.391   0.710 -0.1617  0.2204 -0.0091
  145MOL   C21343701   1.819   5.462   0.577 -1.1976  0.2922 -0.3768
  145MOL   C21443702   1.698   5.555   0.600  0.6272  0.0516  0.3051
  145MOL   C21543703   1.942   5.544   0.527  0.3167  0.3312 -0.2938
  145MOL   O21643704   1.949   5.666   0.526  0.3849  0.4201 -0.1692
  145MOL   O21743705   2.045   5.459   0.500  0.6829 -0.3405 -0.1314
  145MOL   C21843706   2.156   5.494   0.412  0.0947 -0.3248  0.1744
  145MOL   H21943707   1.773   5.344   0.748  0.0455  0.4869  0.8307
  145MOL   H22043708   1.927   5.303   0.697 -2.3793 -1.5654  0.9243
  145MOL   H22143709   1.615   5.507   0.653  0.4728 -0.2843 -0.2419
  145MOL   H22243710   1.715   5.658   0.632  1.8604  0.3465 -1.2420
  145MOL   H22343711   1.673   5.595   0.502  1.9625 -0.1158 -0.1032
  145MOL   H22443712   2.240   5.426   0.427  0.0247 -1.0579 -2.5141
  145MOL   H22543713   2.189   5.594   0.442  0.2021 -0.2252 -0.2813
  145MOL   H22643714   2.140   5.494   0.305 -2.2847  1.8890  0.4612
  145MOL   C22743715   1.773   5.353   0.470 -0.2311  0.4838  0.6283
  145MOL   C22843716   1.742   5.378   0.317  0.4561  0.5577 -0.0083
  145MOL   C22943717   1.700   5.525   0.278 -0.8137  0.1739 -0.4306
  145MOL   C23043718   1.863   5.346   0.223 -0.1211  0.6140 -0.3312
  145MOL   O23143719   1.969   5.293   0.266 -0.3153 -0.8580 -0.0813
  145MOL   O23243720   1.841   5.356   0.091  0.8898 -0.3789 -0.7398
  145MOL   C23343721   1.942   5.306   0.004  0.0156 -0.2591  0.6627
  145MOL   H23443722   1.681   5.311   0.511 -1.2485  1.3276 -0.7935
  145MOL   H23543723   1.839   5.266   0.478 -0.2402  0.3775 -0.4125
  145MOL   H23643724   1.775   5.600   0.303  0.5847 -2.0211  2.1586
  145MOL   H23743725   1.680   5.527   0.171  1.6318  0.4802 -0.8956
  145MOL   H23843726   1.609   5.565   0.324  0.5035  1.8064  0.8096
  145MOL   H23943727   1.999   5.391   7.846 -3.9311  2.5032  0.5540
  145MOL   H24043728   1.893   5.260   7.795  0.8016  0.5287 -0.2158
  145MOL   H24143729   2.003   5.225   0.043  1.8565  0.2603 -1.0520
  145MOL   C24243730   1.618   5.288   0.284  0.6068 -0.3137 -1.1996
  145MOL   C24343731   1.602   5.131   0.289 -0.7463  1.0211  0.5648
  145MOL   C24443732   1.716   5.067   0.207  0.3630  0.8030 -0.4956
  145MOL   C24543733   1.599   5.081   0.439 -0.0250  0.5096  0.6309
  145MOL   O24643734   1.689   5.008   0.476 -0.0419 -0.3473 -0.0052
  145MOL   O24743735   1.504   5.131   0.526 -0.0684  0.1950  0.1127
  145MOL   C24843736   1.483   5.071   0.651 -0.7131 -0.9057 -0.1038
  145MOL   H24943737   1.603   5.316   0.179 -2.0879  0.6139 -0.5905
  145MOL   H25043738   1.533   5.319   0.344  2.0137  0.0449  0.6517
  145MOL   H25143739   1.726   5.102   0.104  0.2731  0.4337 -0.6283
  145MOL   H25243740   1.820   5.060   0.240  0.1699 -0.0247 -0.0671
  145MOL   H25343741   1.710   4.960   0.225  3.2883  0.8269  0.9538
  145MOL   H25443742   1.387   5.110   0.684 -2.0154 -1.9491 -2.4700
  145MOL   H25543743   1.561   5.088   0.725 -1.4382  2.0592  0.0062
  145MOL   H25643744   1.459   4.966   0.633  1.8571 -1.6223  0.4764
  145MOL   C25743745   1.470   5.096   0.221 -0.8162 -0.1427  0.8822
  145MOL   C25843746   1.380   4.965   0.229  0.3561  0.0467 -1.0249
  145MOL   C25943747   1.476   4.847   0.242 -0.3252  0.0259 -0.2031
  145MOL   C26043748   1.292   4.972   0.357 -0.2574 -0.0008 -0.4460
  145MOL   O26143749   1.279   4.879   0.437  0.4515  0.6914  0.2048
  145MOL   O26243750   1.219   5.087   0.369  0.2612  0.5202 -0.4256
  145MOL   C26343751   1.127   5.093   0.483 -0.2391 -0.0618  0.2748
  145MOL   H26443752   1.486   5.118   0.115 -1.1374  0.7451  1.0163
  145MOL   H26543753   1.396   5.177   0.224 -1.1381 -0.3653 -0.3924
  145MOL   H26643754   1.532   4.836   0.150  0.8574  2.9639  0.1065
  145MOL   H26743755   1.541   4.854   0.329 -1.4186  0.4985  0.6008
  145MOL   H26843756   1.429   4.752   0.266 -0.9874 -0.0264 -1.6685
  145MOL   H26943757   1.189   5.082   0.571 -0.3962 -0.0096  0.3924
  145MOL   H27043758   1.047   5.020   0.481  0.0261 -0.3397 -2.3891
  145MOL   H27143759   1.092   5.195   0.503  0.6213 -0.3648  3.4980
  145MOL   C27243760   1.293   4.955   0.099  0.7462  0.2127 -0.1760
  145MOL   C27343761   1.209   4.827   0.062 -0.4027  0.7139 -0.6086
  145MOL   C27443762   1.123   4.870   7.823  0.0615  0.4090 -0.2534
  145MOL   C27543763   1.307   4.716   0.007 -0.3742 -0.6871 -0.0124
  145MOL   O27643764   1.307   4.602   0.049  0.6959  0.0547 -0.1225
  145MOL   O27743765   1.373   4.759   7.770  0.1081  0.0054  0.2159
  145MOL   C27843766   1.487   4.678   7.728 -0.1708  0.9423  0.0403
  145MOL   H27943767   1.354   4.984   0.013  0.0970 -2.4771 -1.6051
  145MOL   H28043768   1.221   5.036   0.114  1.1988  0.3250  1.4937
  145MOL   H28143769   1.038   4.930   7.854 -0.7634 -1.1130  0.4868
  145MOL   H28243770   1.177   4.932   7.751 -1.0595  0.4290 -1.0849
  145MOL   H28343771   1.092   4.787   7.759  1.2603 -0.5159  0.3506
  145MOL   H28443772   1.581   4.732   7.718  1.6630 -2.3507 -1.0232
  145MOL   H28543773   1.468   4.645   7.626 -2.1605 -0.4902  0.8403
  145MOL   H28643774   1.513   4.595   7.793 -0.5881  1.1360  0.4596
  145MOL   C28743775   1.128   4.768   0.180 -0.1146 -0.0829 -0.4818
  145MOL   C28843776   1.020   4.665   0.137 -0.2489  0.0101  0.3140
  145MOL   C28943777   1.027   4.540   0.236 -0.0521  0.4875  0.4124
  145MOL   C29043778   0.878   4.723   0.136 -0.1912  0.3235 -0.3663
  145MOL   O29143779   0.802   4.736   0.234  0.1667  0.5480 -0.4196
  145MOL   O29243780   0.843   4.751   0.008 -0.0957  0.4706  0.7696
  145MOL   C29343781   0.716   4.806   7.856  0.5961  0.6737  0.2336
  145MOL   H29443782   1.082   4.842   0.245  0.2223  1.3882 -1.8707
  145MOL   H29543783   1.194   4.713   0.247  0.2844  1.9531  0.8442
  145MOL   H29643784   0.956   4.458   0.221 -0.0317  0.5523 -0.0199
  145MOL   H29743785   1.121   4.486   0.239  0.3486  1.2460  2.4291
  145MOL   H29843786   1.001   4.562   0.340  1.2601  1.5628  0.5250
  145MOL   H29943787   0.653   4.757   0.052  0.8185  0.0069 -0.0163
  145MOL   H30043788   0.687   4.800   7.751  0.0748 -0.0375  0.4142
  145MOL   H30143789   0.712   4.912   0.002 -2.2498  0.7119 -0.3301
  145MOL   H30243790   1.034   4.619   0.039 -2.7112  0.2052 -0.1616
  146MOL     C143791   4.729   6.697   4.869 -0.2110  0.0187 -0.2051
  146MOL     C243792   4.751   6.639   4.734 -0.5350 -0.5969  0.0341
  146MOL     C343793   4.721   6.746   4.626  0.2934  0.4006 -0.1810
  146MOL     C443794   4.901   6.607   4.717  0.0769 -0.1448  0.2531
  146MOL     O543795   4.978   6.608   4.812  0.1705  0.0610  0.6801
  146MOL     O643796   4.936   6.574   4.590  0.1416  0.1498  0.4889
  146MOL     C743797   5.071   6.547   4.564 -0.0234  0.5745  0.7566
  146MOL     H843798   4.686   6.642   4.952 -1.1706 -0.4936 -1.0356
  146MOL     H943799   4.811   6.755   4.913  1.0972 -0.5881 -1.7847
  146MOL    H1043800   4.790   6.831   4.624  1.1471 -0.3042 -2.4659
  146MOL    H1143801   4.735   6.703   4.527  2.7249 -1.1863  0.8168
  146MOL    H1243802   4.616   6.775   4.627  0.1697  0.0373 -1.6472
  146MOL    H1343803   5.125   6.482   4.634  2.4817 -0.3415 -1.9155
  146MOL    H1443804   5.126   6.641   4.570 -0.4491  0.8445  0.3885
  146MOL    H1543805   5.091   6.500   4.468  1.5990  0.2651  1.2183
  146MOL    H1643806   4.654   6.775   4.859  0.2975  0.5128 -0.2089
  146MOL    C1743807   4.681   6.497   4.722  0.3062 -0.0649  0.0318
  146MOL    C1843808   4.532   6.473   4.693 -0.4802 -0.2193  0.2953
  146MOL    C1943809   4.445   6.572   4.773 -0.4529  0.3934 -0.1175
  146MOL    C2043810   4.492   6.494   4.544  0.3597  0.4103 -0.0041
  146MOL    O2143811   4.568   6.532   4.456  0.4989  0.6440  0.3758
  146MOL    O2243812   4.369   6.459   4.519 -0.2936 -0.3390 -0.2567
  146MOL    C2343813   4.320   6.493   4.392 -0.1594  0.2483  0.0408
  146MOL    H2443814   4.704   6.450   4.818 -1.9319 -0.0347  0.6175
  146MOL    H2543815   4.726   6.442   4.640  1.2429 -2.0549  1.8393
  146MOL    H2643816   4.350   6.526   4.800 -0.3593 -1.2086 -2.3562
  146MOL    H2743817   4.496   6.597   4.866 -2.0552  1.3526  0.5378
  146MOL    H2843818   4.417   6.666   4.725 -1.9007  0.5058  0.9017
  146MOL    H2943819   4.231   6.431   4.388 -0.9678  1.4715 -1.6291
  146MOL    H3043820   4.378   6.446   4.312 -2.5866  0.2426 -1.7902
  146MOL    H3143821   4.287   6.595   4.373 -2.8502 -0.2965  1.5184
  146MOL    C3243822   4.505   6.322   4.748 -0.0097 -0.4595  0.2197
  146MOL    C3343823   4.583   6.194   4.695 -0.0423  0.9005  0.0459
  146MOL    C3443824   4.577   6.199   4.541  0.1649  0.4933 -0.3797
  146MOL    C3543825   4.733   6.184   4.741 -0.7489 -0.5526 -0.6050
  146MOL    O3643826   4.765   6.226   4.851  0.0332  0.1390  0.2088
  146MOL    O3743827   4.817   6.129   4.644  0.0158 -0.0596 -0.0544
  146MOL    C3843828   4.959   6.141   4.639  0.7961  0.5146  0.7163
  146MOL    H3943829   4.400   6.293   4.744 -0.1701  0.0497  0.7951
  146MOL    H4043830   4.524   6.339   4.854  3.5031  1.6599 -0.6621
  146MOL    H4143831   4.658   6.256   4.495  1.4182 -1.5339 -0.7492
  146MOL    H4243832   4.576   6.095   4.510 -1.1173  0.3161  0.2103
  146MOL    H4343833   4.480   6.238   4.509 -0.4449 -0.0734  0.7420
  146MOL    H4443834   4.992   6.199   4.553 -1.2161  1.7504  0.7340
  146MOL    H4543835   5.010   6.044   4.644 -1.3926 -0.8492 -2.0749
  146MOL    H4643836   4.996   6.199   4.723  3.1976  0.2512 -0.1327
  146MOL    C4743837   4.516   6.059   4.729 -0.1394 -0.3094 -0.1883
  146MOL    C4843838   4.477   6.001   4.873  0.2267  0.8194  0.1774
  146MOL    C4943839   4.605   5.942   4.940  0.0655  0.1013  0.2659
  146MOL    C5043840   4.414   6.104   4.969  0.2031 -0.1498  0.5910
  146MOL    O5143841   4.293   6.135   4.956  0.5422  0.3014 -0.4174
  146MOL    O5243842   4.506   6.157   5.042 -0.3134  0.3184  0.6071
  146MOL    C5343843   4.456   6.249   5.137 -0.0481  0.4688 -0.2944
  146MOL    H5443844   4.576   5.984   4.677  2.0070 -0.9409  3.0697
  146MOL    H5543845   4.423   6.054   4.671  0.7875 -0.2708 -1.7057
  146MOL    H5643846   4.687   6.014   4.936 -0.5043  0.6645 -1.4456
  146MOL    H5743847   4.575   5.908   5.040 -2.1201  1.9372  0.2804
  146MOL    H5843848   4.641   5.858   4.882  1.0444  1.0819 -0.5641
  146MOL    H5943849   4.543   6.293   5.185 -1.0804  2.5404 -0.2898
  146MOL    H6043850   4.400   6.206   5.219 -1.4710  2.8585  0.0326
  146MOL    H6143851   4.403   6.335   5.096 -0.9446  1.2809  2.4892
  146MOL    C6243852   4.377   5.883   4.849 -0.9276 -0.1549 -0.3640
  146MOL    C6343853   4.319   5.768   4.947  0.5115 -0.4335 -0.2423
  146MOL    C6443854   4.432   5.661   4.964 -0.2169 -0.0710 -0.7856
  146MOL    C6543855   4.283   5.818   5.090  0.6541 -0.3658 -0.2205
  146MOL    O6643856   4.338   5.789   5.194 -0.1046  0.1771  0.6489
  146MOL    O6743857   4.174   5.901   5.082 -0.2613 -0.2184  0.1110
  146MOL    C6843858   4.099   5.942   5.191  0.0612  0.0522 -0.1036
  146MOL    H6943859   4.428   5.828   4.770 -0.6589  0.6543 -0.7486
  146MOL    H7043860   4.291   5.931   4.804 -0.1977  2.3934  0.8696
  146MOL    H7143861   4.520   5.691   5.021  0.4420 -1.1638 -1.2013
  146MOL    H7243862   4.393   5.572   5.013 -0.3259  0.5953  0.3522
  146MOL    H7343863   4.470   5.619   4.871 -0.7884 -0.0068 -1.0455
  146MOL    H7443864   4.049   5.856   5.236 -1.6970  1.3977  0.5503
  146MOL    H7543865   4.026   6.015   5.158  0.2509  0.4374  0.3306
  146MOL    H7643866   4.161   5.990   5.266  1.6892 -0.0481 -1.3572
  146MOL    C7743867   4.192   5.708   4.860  0.7351  0.7218  0.1239
  146MOL    C7843868   4.122   5.575   4.898 -0.4232  0.4461 -0.2807
  146MOL    C7943869   3.992   5.564   4.812  0.0636  0.0643 -1.0614
  146MOL    C8043870   4.208   5.445   4.867  0.1219 -0.4432  0.2822
  146MOL    O8143871   4.268   5.375   4.949 -0.4649 -0.4997  0.5169
  146MOL    O8243872   4.214   5.426   4.730  0.5344 -0.3779  0.1754
  146MOL    C8343873   4.287   5.320   4.681  0.0474 -0.0584 -0.2610
  146MOL    H8443874   4.231   5.690   4.760 -1.3013  2.1552 -0.9640
  146MOL    H8543875   4.122   5.790   4.844  1.1746  0.9963 -0.4342
  146MOL    H8643876   3.919   5.642   4.834 -1.6855 -0.7677 -3.6956
  146MOL    H8743877   4.016   5.555   4.706  0.9112 -0.0601 -0.8592
  146MOL    H8843878   3.941   5.471   4.838  0.5258 -0.3095 -1.4934
  146MOL    H8943879   4.273   5.321   4.573 -1.4543  1.8025 -0.0769
  146MOL    H9043880   4.239   5.230   4.720 -1.1218  0.7831  0.2904
  146MOL    H9143881   4.390   5.323   4.718 -0.5300 -0.8699  1.4822
  146MOL    C9243882   4.078   5.574   5.053 -0.6457 -0.5257  0.6603
  146MOL    C9343883   3.978   5.484   5.133 -0.4468  0.0522 -0.5012
  146MOL    C9443884   3.989   5.549   5.274 -0.5717 -0.0067 -0.0561
  146MOL    C9543885   3.833   5.494   5.088 -0.0765  0.2046  0.4050
  146MOL    O9643886   3.777   5.395   5.032 -0.4788 -0.5900 -0.0281
  146MOL    O9743887   3.777   5.617   5.107  0.1419 -0.0783 -0.6480
  146MOL    C9843888   3.650   5.647   5.060 -0.3593  0.2354  0.0676
  146MOL    H9943889   4.030   5.671   5.062  0.7083  0.2453 -0.1283
  146MOL   H10043890   4.167   5.585   5.115  1.0358  0.1096 -1.7915
  146MOL   H10143891   3.927   5.501   5.350  0.3103 -2.2593 -0.7064
  146MOL   H10243892   4.093   5.567   5.301 -0.3482  1.4474 -1.8090
  146MOL   H10343893   3.965   5.655   5.276 -0.0007  0.1126  0.5825
  146MOL   H10443894   3.586   5.687   5.138  1.5030  0.2911  1.5950
  146MOL   H10543895   3.597   5.562   5.016  2.4069 -0.9910 -0.9655
  146MOL   H10643896   3.656   5.717   4.977 -2.0831  1.3325  0.8296
  146MOL   C10743897   4.035   5.345   5.141  0.6105  0.1644  0.0668
  146MOL   C10843898   3.998   5.247   5.266 -0.1983 -0.0293 -0.2026
  146MOL   C10943899   3.846   5.248   5.298  0.3503 -0.5901  0.3365
  146MOL   C11043900   4.029   5.103   5.210  0.8299 -0.8435 -0.9735
  146MOL   O11143901   3.940   5.016   5.195 -0.4061 -0.1089 -0.6013
  146MOL   O11243902   4.161   5.080   5.185 -0.5301  0.7375 -0.0180
  146MOL   C11343903   4.204   4.950   5.158  0.1276 -1.0791 -0.5473
  146MOL   H11443904   4.144   5.346   5.150  0.4430  2.0658  2.3780
  146MOL   H11543905   4.013   5.294   5.047 -0.1002 -1.3055  1.0059
  146MOL   H11643906   3.805   5.168   5.359 -2.3804  1.4998  1.3653
  146MOL   H11743907   3.803   5.333   5.351  0.2844 -0.5625  0.2394
  146MOL   H11843908   3.788   5.222   5.209  0.3529  0.1280  0.1198
  146MOL   H11943909   4.217   4.943   5.050 -0.6091  2.7887 -0.9768
  146MOL   H12043910   4.134   4.874   5.193  0.2115 -0.0605  1.9042
  146MOL   H12143911   4.292   4.922   5.216 -1.0070 -1.7930  0.8329
  146MOL   C12243912   4.098   5.268   5.394  0.2786  0.4924 -0.0104
  146MOL   C12343913   4.062   5.231   5.545 -0.0200 -0.2378 -0.7586
  146MOL   C12443914   3.942   5.315   5.603 -0.1781  0.2651 -0.0860
  146MOL   C12543915   4.021   5.081   5.546  0.2439 -0.3816 -0.3718
  146MOL   O12643916   3.898   5.050   5.572  0.3021 -0.0155  0.2406
  146MOL   O12743917   4.119   4.996   5.509  0.4521  0.7281  0.5505
  146MOL   C12843918   4.086   4.860   5.512  0.0665  0.9117 -0.8613
  146MOL   H12943919   4.108   5.376   5.400 -0.1066  0.6121 -1.2586
  146MOL   H13043920   4.201   5.237   5.378 -0.2871 -2.4713  1.5712
  146MOL   H13143921   3.919   5.302   5.709 -0.1490 -0.0324 -0.1143
  146MOL   H13243922   3.954   5.423   5.593 -1.2427  0.5112  1.1460
  146MOL   H13343923   3.849   5.288   5.552  0.6720  1.3130 -2.2605
  146MOL   H13443924   3.995   4.838   5.457 -0.5972 -1.2325  1.0580
  146MOL   H13543925   4.064   4.830   5.614 -0.4777  0.7229 -1.0335
  146MOL   H13643926   4.169   4.806   5.467  0.7511  2.7567 -1.8603
  146MOL   C13743927   4.196   5.249   5.626 -0.2102 -0.3261  0.7468
  146MOL   C13843928   4.209   5.304   5.768 -0.0401  0.7625 -0.2353
  146MOL   C13943929   4.195   5.459   5.775 -0.2798  0.0397 -0.3150
  146MOL   C14043930   4.114   5.236   5.861  0.4858  0.2058 -0.0303
  146MOL   O14143931   4.043   5.302   5.933  0.0135 -0.0865 -0.6989
  146MOL   O14243932   4.121   5.104   5.858  0.1624 -0.0520  0.4878
  146MOL   C14343933   4.006   5.036   5.922 -0.5990  0.3434  0.0887
  146MOL   H14443934   4.257   5.321   5.572 -0.9761 -0.0131  0.2932
  146MOL   H14543935   4.254   5.158   5.613 -0.2057 -0.0826 -0.9906
  146MOL   H14643936   4.143   5.494   5.686 -1.0115  2.4761  1.0272
  146MOL   H14743937   4.157   5.497   5.870 -0.0779  3.6131 -1.5919
  146MOL   H14843938   4.294   5.506   5.772 -1.2232  2.1094 -0.1255
  146MOL   H14943939   3.909   5.052   5.876 -1.4626  0.2196  1.8165
  146MOL   H15043940   4.003   5.066   6.027  0.8570  2.2301 -0.3793
  146MOL   H15143941   4.020   4.928   5.919 -0.4895  0.3623 -0.0936
  146MOL   C15243942   4.359   5.257   5.804 -0.0160  0.5615  0.1381
  146MOL   C15343943   4.431   5.263   5.946 -0.0728 -0.1586  0.5232
  146MOL   C15443944   4.414   5.406   6.009 -0.2861 -0.3767  0.0540
  146MOL   C15543945   4.376   5.145   6.034 -0.6707  0.2617  0.4780
  146MOL   O15643946   4.304   5.167   6.131 -0.0814  0.1964 -0.0108
  146MOL   O15743947   4.397   5.025   5.985  0.2271  0.1951 -0.5963
  146MOL   C15843948   4.323   4.915   6.045 -0.2129  0.3165 -0.3156
  146MOL   H15943949   4.424   5.303   5.730 -1.0190  2.1688  0.2471
  146MOL   H16043950   4.365   5.151   5.779  1.3407  0.6044  0.2265
  146MOL   H16143951   4.313   5.445   6.021 -0.0838  0.6404 -1.3951
  146MOL   H16243952   4.438   5.405   6.115  0.7554 -0.4500 -0.1844
  146MOL   H16343953   4.457   5.491   5.957  2.3328 -1.1441  0.9111
  146MOL   H16443954   4.219   4.935   6.020 -0.2015  0.0635 -0.5585
  146MOL   H16543955   4.330   4.929   6.153 -1.7688 -0.2821 -0.1331
  146MOL   H16643956   4.355   4.812   6.027  1.7541  0.6394  1.0806
  146MOL   C16743957   4.590   5.243   5.923  0.6739  0.1057  0.5678
  146MOL   C16843958   4.701   5.226   6.034 -0.3116 -0.8855 -0.5369
  146MOL   C16943959   4.835   5.252   5.963 -0.0157  0.2207 -0.4018
  146MOL   C17043960   4.694   5.344   6.137  0.0769  0.3940 -0.2297
  146MOL   O17143961   4.742   5.460   6.120 -0.1103 -0.8088  0.0729
  146MOL   O17243962   4.642   5.301   6.253 -0.2274  0.4171 -0.1157
  146MOL   C17343963   4.672   5.371   6.380 -0.2378 -0.0968  0.0434
  146MOL   H17443964   4.626   5.325   5.860 -0.1590 -1.5339 -2.1017
  146MOL   H17543965   4.602   5.161   5.853  1.9545  2.0549 -1.6042
  146MOL   H17643966   4.867   5.166   5.905  1.6518  1.1779 -0.9533
  146MOL   H17743967   4.838   5.336   5.893  1.3563 -0.7586 -1.5492
  146MOL   H17843968   4.911   5.267   6.039 -2.2183  1.0613  1.6979
  146MOL   H17943969   4.776   5.402   6.379 -0.7026  1.5281  0.3772
  146MOL   H18043970   4.657   5.316   6.473  0.4159  0.5915  0.5600
  146MOL   H18143971   4.611   5.461   6.379 -0.7755 -0.4621 -1.3116
  146MOL   C18243972   4.699   5.082   6.102  0.2384 -0.2075 -0.1198
  146MOL   C18343973   4.822   5.007   6.178 -0.0415  0.2570 -0.5580
  146MOL   C18443974   4.863   5.090   6.291 -0.0106 -0.6163  0.2937
  146MOL   C18543975   4.751   4.884   6.232  0.1356 -0.2002  0.1368
  146MOL   O18643976   4.745   4.779   6.169  0.7139 -0.9190 -0.4173
  146MOL   O18743977   4.685   4.905   6.348  0.2857  0.1148 -0.3503
  146MOL   C18843978   4.606   4.809   6.403 -0.2935  0.0259  0.0482
  146MOL   H18943979   4.673   5.007   6.027  0.8556 -1.0876  0.5460
  146MOL   H19043980   4.603   5.081   6.154  0.7539 -3.3752  0.8646
  146MOL   H19143981   4.921   5.172   6.248  1.3595 -1.1279  1.1398
  146MOL   H19243982   4.789   5.121   6.365  0.2773 -1.7714  1.0598
  146MOL   H19343983   4.929   5.026   6.349  0.8464 -0.3137 -0.3413
  146MOL   H19443984   4.568   4.835   6.502  0.1870  0.4803  0.1134
  146MOL   H19543985   4.653   4.710   6.403  1.5185  0.8754  0.3392
  146MOL   H19643986   4.517   4.799   6.340  0.6659 -2.1241 -1.0081
  146MOL   C19743987   4.939   4.967   6.080 -0.4392 -0.0297  0.1666
  146MOL   C19843988   5.074   4.898   6.136  0.1492  0.1206  0.7710
  146MOL   C19943989   5.049   4.777   6.229  0.1123  0.7718  0.3370
  146MOL   C20043990   5.127   4.843   5.995 -0.2228 -0.3738 -0.0150
  146MOL   O20143991   5.138   4.723   5.980 -0.5046 -0.3636 -0.2359
  146MOL   O20243992   5.152   4.932   5.907 -0.1781 -0.2260 -0.4693
  146MOL   C20343993   5.176   4.893   5.775 -0.3991  0.0392  0.2644
  146MOL   H20443994   4.986   5.051   6.029 -1.0596  0.6236  0.6687
  146MOL   H20543995   4.888   4.918   5.996  1.0422  1.7049 -1.7948
  146MOL   H20643996   4.984   4.700   6.189  0.2330  0.2821  1.0808
  146MOL   H20743997   5.144   4.730   6.256 -0.6283 -1.0540 -0.2034
  146MOL   H20843998   5.006   4.808   6.324  0.6259 -1.0098  1.1696
  146MOL   H20943999   5.260   4.823   5.770 -0.8020 -0.4355  0.0950
  146MOL   H21044000   5.194   4.980   5.713 -2.5357  0.3478  0.0221
  146MOL   H21144001   5.088   4.846   5.731 -1.0122 -1.1410  2.6250
  146MOL   C21244002   5.176   5.001   6.193 -0.0291 -0.2182  0.4640
  146MOL   C21344003   5.304   4.967   6.276 -0.3837  0.5919  0.3210
  146MOL   C21444004   5.266   4.909   6.407  0.6402  0.3745  0.0299
  146MOL   C21544005   5.403   4.876   6.199 -0.5711 -0.0496  0.3403
  146MOL   O21644006   5.418   4.883   6.078  0.5823 -0.0671  0.2054
  146MOL   O21744007   5.464   4.777   6.273  0.1476  0.6277 -0.4015
  146MOL   C21844008   5.565   4.693   6.209 -0.1277  0.2170 -0.2353
  146MOL   H21944009   5.135   5.066   6.270  1.1928 -0.1706  1.0821
  146MOL   H22044010   5.196   5.069   6.110 -2.6692 -1.3593 -1.1898
  146MOL   H22144011   5.173   4.953   6.444  0.6493  1.0548 -0.7510
  146MOL   H22244012   5.253   4.801   6.412 -0.7636  0.5237 -0.1431
  146MOL   H22344013   5.331   4.927   6.493 -0.1395 -0.0620  0.7128
  146MOL   H22444014   5.516   4.605   6.165  0.6622 -0.5736  0.4427
  146MOL   H22544015   5.623   4.661   6.295  0.4676 -3.4504 -1.8988
  146MOL   H22644016   5.630   4.749   6.142  1.7071 -0.4667  0.9429
  146MOL   C22744017   5.381   5.101   6.324 -0.1190 -0.3981 -0.6896
  146MOL   C22844018   5.409   5.233   6.240  0.4066  0.1878  0.1677
  146MOL   C22944019   5.468   5.199   6.100 -0.8531 -0.1664 -0.1255
  146MOL   C23044020   5.267   5.302   6.221 -0.8167  0.9840 -0.0568
  146MOL   O23144021   5.232   5.337   6.117  0.2841  0.2147  0.0911
  146MOL   O23244022   5.209   5.339   6.338 -0.1896 -0.1751  0.5156
  146MOL   C23344023   5.096   5.423   6.335 -0.9164  0.0041  0.1560
  146MOL   H23444024   5.480   5.073   6.361  0.4243  2.1394 -0.1033
  146MOL   H23544025   5.317   5.136   6.405  1.4506  0.9302 -0.0029
  146MOL   H23644026   5.414   5.121   6.047 -0.6058 -1.3494  1.3059
  146MOL   H23744027   5.478   5.272   6.020 -0.2917 -2.0781 -1.8486
  146MOL   H23844028   5.567   5.155   6.119 -0.8055 -0.3819 -0.8506
  146MOL   H23944029   5.045   5.403   6.429 -0.8943  0.3908  0.2535
  146MOL   H24044030   5.037   5.387   6.251 -0.9911 -0.0530  0.2334
  146MOL   H24144031   5.119   5.530   6.327 -2.1031  0.2257 -0.3088
  146MOL   C24244032   5.503   5.318   6.332  0.4377  0.8030  0.3513
  146MOL   C24344033   5.575   5.459   6.294 -0.2144 -0.0301 -0.5138
  146MOL   C24444034   5.484   5.550   6.208  0.4778  0.1583 -0.3268
  146MOL   C24544035   5.607   5.528   6.430  0.3144  0.3626 -0.1069
  146MOL   O24644036   5.625   5.461   6.529  0.2546  0.4884  0.3180
  146MOL   O24744037   5.627   5.666   6.425 -0.0021  0.2095  0.0465
  146MOL   C24844038   5.686   5.729   6.542  0.0153 -0.1447 -0.2064
  146MOL   H24944039   5.586   5.254   6.363  0.3758  0.5634  0.0222
  146MOL   H25044040   5.444   5.333   6.422 -1.7406 -0.8271 -0.7567
  146MOL   H25144041   5.513   5.655   6.203  1.4861 -0.1647 -1.3494
  146MOL   H25244042   5.469   5.503   6.110 -0.4462 -2.0432  0.8302
  146MOL   H25344043   5.383   5.561   6.247  0.4473  1.9971 -0.9015
  146MOL   H25444044   5.712   5.830   6.509 -1.0274  0.2860  0.2711
  146MOL   H25544045   5.783   5.690   6.571  0.7766  0.5544 -1.7353
  146MOL   H25644046   5.627   5.731   6.633  1.7338  0.7937  0.8980
  146MOL   C25744047   5.702   5.413   6.217 -0.2322  0.0468 -1.2836
  146MOL   C25844048   5.809   5.511   6.160 -0.2018  0.4004  0.0834
  146MOL   C25944049   5.744   5.634   6.096  0.0714  0.2026  0.0104
  146MOL   C26044050   5.909   5.555   6.274  0.5811 -0.8189 -0.6975
  146MOL   O26144051   5.912   5.511   6.391  0.1364 -0.1236 -0.3852
  146MOL   O26244052   5.996   5.642   6.222 -0.0973 -0.4388 -0.1282
  146MOL   C26344053   6.088   5.713   6.298 -0.7613 -0.6038  0.7478
  146MOL   H26444054   5.659   5.362   6.131  0.7650 -0.2066 -1.6379
  146MOL   H26544055   5.748   5.328   6.268 -2.2409  0.3508  1.1563
  146MOL   H26644056   5.713   5.711   6.166 -2.2908 -0.9676  0.2991
  146MOL   H26744057   5.808   5.687   6.025  0.7528  0.6864  0.9885
  146MOL   H26844058   5.659   5.609   6.032  1.5894 -0.3409 -1.8411
  146MOL   H26944059   6.053   5.726   6.401  0.0289  1.1803  0.8144
  146MOL   H27044060   6.111   5.801   6.238 -0.0488 -0.4801  1.2081
  146MOL   H27144061   6.182   5.658   6.298 -0.1966  0.3328  1.8843
  146MOL   C27244062   5.893   5.440   6.047 -0.3258 -0.3043  0.7840
  146MOL   C27344063   5.960   5.293   6.051 -1.0295  0.5434  0.8029
  146MOL   C27444064   6.055   5.290   5.931 -0.2642  0.2542 -0.4311
  146MOL   C27544065   6.044   5.276   6.186  0.5473  0.2122  0.0261
  146MOL   O27644066   5.997   5.218   6.285  0.1503  0.2945 -0.5520
  146MOL   O27744067   6.168   5.327   6.178 -0.5847  0.5317  0.4592
  146MOL   C27844068   6.251   5.317   6.292  0.0613  0.3534 -0.6954
  146MOL   H27944069   5.965   5.512   6.009  1.3188 -2.0615  0.5100
  146MOL   H28044070   5.817   5.441   5.968  0.7762 -0.8696 -0.3045
  146MOL   H28144071   6.103   5.193   5.914  0.7249  0.9537 -1.7180
  146MOL   H28244072   6.011   5.325   5.837 -0.0570 -0.4847 -0.8108
  146MOL   H28344073   6.132   5.366   5.944 -0.5818 -0.0057  3.3729
  146MOL   H28444074   6.225   5.226   6.346 -0.0736  0.1708 -1.0588
  146MOL   H28544075   6.234   5.395   6.365 -0.7160 -1.7914  1.4664
  146MOL   H28644076   6.359   5.325   6.278  0.3132 -0.5616  0.6418
  146MOL   C28744077   5.854   5.179   6.033 -1.0816 -0.0958 -1.1202
  146MOL   C28844078   5.914   5.037   6.026 -0.2123 -0.5295  0.8629
  146MOL   C28944079   5.826   4.943   6.108  0.8070  0.9567  0.1265
  146MOL   C29044080   5.921   4.975   5.888 -0.4799 -0.2694 -0.0056
  146MOL   O29144081   5.839   5.001   5.801 -0.5659 -0.1264 -0.2101
  146MOL   O29244082   6.032   4.894   5.863 -0.6544 -0.2791 -0.6320
  146MOL   C29344083   6.034   4.835   5.735 -0.2326  0.4617 -0.1852
  146MOL   H29444084   5.792   5.203   5.947 -0.3333  2.3587 -1.0080
  146MOL   H29544085   5.788   5.174   6.120 -1.3468  0.8053 -1.2702
  146MOL   H29644086   5.842   4.934   6.215  0.5777 -0.8225  0.0328
  146MOL   H29744087   5.717   4.948   6.100  0.7267  0.1283  0.6456
  146MOL   H29844088   5.848   4.842   6.074 -1.2400  1.0711 -1.7212
  146MOL   H29944089   5.945   4.774   5.720  0.2583 -0.5396  0.8849
  146MOL   H30044090   6.117   4.766   5.720  0.1237  1.5692 -3.5648
  146MOL   H30144091   6.052   4.905   5.654 -0.9315  0.5243 -0.2927
  146MOL   H30244092   6.015   5.060   6.061 -0.2465  1.1470 -0.0878
  147MOL     C144093   0.809   0.170   7.195  0.6115  0.0029  0.0426
  147MOL     C244094   0.846   0.308   7.135  0.3060 -0.1779 -0.4107
  147MOL     C344095   0.899   0.391   7.253  0.0683  0.3009 -0.0476
  147MOL     C444096   0.963   0.288   7.043  0.3650 -0.4668  0.8712
  147MOL     O544097   0.967   0.347   6.926 -0.8711  0.8247 -0.0680
  147MOL     O644098   1.064   0.210   7.094  0.1699 -0.0111 -0.0818
  147MOL     C744099   1.194   0.193   7.029  0.5275 -0.5810  0.4177
  147MOL     H844100   0.741   0.120   7.126  2.5799 -1.1562 -1.1238
  147MOL     H944101   0.885   0.092   7.194  0.7521  0.0782  2.4041
  147MOL    H1044102   0.902   0.498   7.230 -1.3027  0.0837 -1.3211
  147MOL    H1144103   0.841   0.390   7.345  0.5318  1.7356  0.2730
  147MOL    H1244104   0.998   0.365   7.292 -0.5571 -1.3289  0.4953
  147MOL    H1344105   1.267   0.151   7.099  1.8962  0.7290 -0.2003
  147MOL    H1444106   1.231   0.287   6.988  0.5970 -0.0760  1.6241
  147MOL    H1544107   1.165   0.129   6.946  0.3811  1.6488 -1.2857
  147MOL    H1644108   0.782   0.167   7.300  0.6973  1.2886  0.1110
  147MOL    C1744109   0.729   0.373   7.045 -0.1399 -0.8705  0.4000
  147MOL    C1844110   0.578   0.402   7.106 -0.0351  0.6984  0.5494
  147MOL    C1944111   0.524   0.278   7.174  0.2394  0.4541  0.2088
  147MOL    C2044112   0.605   0.517   7.202 -0.1223  0.2993  0.1180
  147MOL    O2144113   0.581   0.500   7.320  0.8187 -0.5109 -0.3276
  147MOL    O2244114   0.647   0.631   7.140  0.4626 -0.0323 -0.2763
  147MOL    C2344115   0.698   0.741   7.215  0.3840 -0.4375  0.0108
  147MOL    H2444116   0.715   0.293   6.973  1.1344 -1.0985  0.3986
  147MOL    H2544117   0.764   0.459   6.989  0.2268 -2.5595 -2.0321
  147MOL    H2644118   0.517   0.185   7.118 -1.5003  0.2986  0.6689
  147MOL    H2744119   0.560   0.261   7.276 -1.6917 -3.1477  0.3828
  147MOL    H2844120   0.424   0.317   7.192  0.4590  1.5980 -1.0058
  147MOL    H2944121   0.770   0.695   7.283 -0.7247  0.4803  1.8782
  147MOL    H3044122   0.622   0.793   7.274  1.1376 -1.7608  2.2122
  147MOL    H3144123   0.737   0.805   7.136  0.3288 -2.4640 -1.7009
  147MOL    C3244124   0.469   0.456   7.003  0.4708  0.0397  0.0427
  147MOL    C3344125   0.466   0.461   6.844 -0.6309  0.1075 -0.4303
  147MOL    C3444126   0.586   0.550   6.794 -0.2765  0.4887 -0.1207
  147MOL    C3544127   0.492   0.322   6.786  0.2422  0.5289  0.2511
  147MOL    O3644128   0.499   0.218   6.853 -0.0415 -1.1656 -0.0031
  147MOL    O3744129   0.511   0.332   6.652 -0.4898  0.3178 -0.1355
  147MOL    C3844130   0.492   0.215   6.571  0.0218 -0.2487  0.1924
  147MOL    H3944131   0.430   0.549   7.044 -1.3327 -0.8313  0.3554
  147MOL    H4044132   0.370   0.416   7.022  0.6359  0.2610  1.4118
  147MOL    H4144133   0.609   0.631   6.864 -1.6472  1.8482 -1.2028
  147MOL    H4244134   0.680   0.498   6.779  0.6375  1.7319  1.1655
  147MOL    H4344135   0.568   0.596   6.696  0.3997 -0.3633 -0.6453
  147MOL    H4444136   0.393   0.194   6.532  1.6535 -1.9495 -3.3413
  147MOL    H4544137   0.539   0.131   6.622  1.7966 -1.0122 -2.5833
  147MOL    H4644138   0.553   0.224   6.480  1.0444  0.5454  0.9343
  147MOL    C4744139   0.338   0.528   6.775 -0.0853  0.1236  0.1096
  147MOL    C4844140   0.186   0.460   6.801 -0.7515  0.8773  0.1331
  147MOL    C4944141   0.180   0.312   6.771  0.1878  0.4279  0.2036
  147MOL    C5044142   0.137   0.503   6.941  0.3042 -0.1513  0.5498
  147MOL    O5144143   0.127   0.421   7.037 -0.2578 -0.7167  0.0745
  147MOL    O5244144   0.130   0.635   6.950  0.3717  0.1372  0.5120
  147MOL    C5344145   0.119   0.700   7.079 -0.1387  0.3902 -0.3667
  147MOL    H5444146   0.349   0.520   6.667 -2.0910  1.0750 -0.1951
  147MOL    H5544147   0.341   0.636   6.788  0.0363  0.2333 -0.7667
  147MOL    H5644148   0.219   0.288   6.672  1.1813  1.2338  0.3996
  147MOL    H5744149   0.244   0.255   6.838 -0.5351 -0.6804 -0.0307
  147MOL    H5844150   0.077   0.276   6.782  0.4767 -0.8965 -1.2056
  147MOL    H5944151   0.168   0.797   7.070 -2.4087  1.4473 -1.9076
  147MOL    H6044152   0.172   0.643   7.155 -2.4787  0.5157  1.4105
  147MOL    H6144153   0.013   0.720   7.093 -0.1388 -1.8845  3.5531
  147MOL    C6244154   0.094   0.527   6.689 -0.2711  0.2173 -0.4006
  147MOL    C6344155   7.820   0.492   6.644  0.5603 -0.0006  0.0800
  147MOL    C6444156   7.802   0.360   6.556  0.3706  0.1786  0.3441
  147MOL    C6544157   7.737   0.469   6.772 -0.1553 -0.0316  0.6039
  147MOL    O6644158   7.699   0.364   6.819  0.5102 -0.4309 -0.3980
  147MOL    O6744159   7.717   0.586   6.835 -1.2322  0.0150 -0.0426
  147MOL    C6844160   7.658   0.584   6.961 -0.4092  0.1605 -0.4329
  147MOL    H6944161   0.148   0.523   6.594 -1.8706 -1.2394 -1.2667
  147MOL    H7044162   0.092   0.634   6.711  1.8606  0.1900  0.0977
  147MOL    H7144163   7.849   0.280   6.614  0.8732 -0.4310 -0.9033
  147MOL    H7244164   7.700   0.331   6.534  0.6110 -0.4567  0.0695
  147MOL    H7344165   7.847   0.378   6.459 -1.9883  1.0946 -0.6070
  147MOL    H7444166   7.557   0.544   6.974  0.9941 -2.7444  1.8337
  147MOL    H7544167   7.648   0.689   6.990 -4.5568 -0.5634  1.0808
  147MOL    H7644168   7.723   0.541   7.036 -1.5866  2.1124  1.7696
  147MOL    C7744169   7.776   0.618   6.558 -0.0160  0.0218 -0.1995
  147MOL    C7844170   7.657   0.635   6.457  0.1973  0.2226 -0.7581
  147MOL    C7944171   7.686   0.557   6.327 -0.7096  0.0070 -0.3488
  147MOL    C8044172   7.522   0.579   6.505 -0.5927  0.4879  0.3716
  147MOL    O8144173   7.456   0.490   6.447 -0.5662  0.1139  0.4464
  147MOL    O8244174   7.489   0.637   6.626 -0.3478  0.5584  0.0970
  147MOL    C8344175   7.368   0.617   6.675 -0.4809  0.5448  0.2408
  147MOL    H8444176   7.861   0.637   6.493  1.1757 -3.4857  0.2100
  147MOL    H8544177   7.770   0.708   6.620  1.7330  0.4433 -0.6221
  147MOL    H8644178   7.689   0.450   6.346  1.8421 -0.0518 -0.8638
  147MOL    H8744179   7.612   0.567   6.247  1.0444 -2.3000 -2.3344
  147MOL    H8844180   7.782   0.580   6.281 -1.4260  0.4749 -1.6561
  147MOL    H8944181   7.349   0.511   6.690  0.0949  0.7249  2.4562
  147MOL    H9044182   7.296   0.653   6.602  0.9006 -1.9161 -2.4459
  147MOL    H9144183   7.369   0.666   6.772  0.8520 -0.7277  0.8882
  147MOL    C9244184   7.640   0.792   6.415 -0.0255  0.2662 -0.6194
  147MOL    C9344185   7.598   0.856   6.273  0.3272  0.1450 -0.6186
  147MOL    C9444186   7.707   0.818   6.165  0.4847 -0.0936  0.7702
  147MOL    C9544187   7.461   0.802   6.226  0.7939  0.1705  0.3311
  147MOL    O9644188   7.429   0.771   6.112  0.1641 -0.0427 -0.2038
  147MOL    O9744189   7.368   0.811   6.325  0.2484 -0.1424 -0.3144
  147MOL    C9844190   7.225   0.792   6.313 -0.2107 -0.7042 -0.5162
  147MOL    H9944191   7.734   0.843   6.437 -0.1082  0.2982 -0.3365
  147MOL   H10044192   7.569   0.827   6.491  0.4147  0.1947 -0.1778
  147MOL   H10144193   7.730   0.886   6.083 -2.6227 -0.7989 -0.7817
  147MOL   H10244194   7.803   0.809   6.216  1.6795  2.1286 -1.0062
  147MOL   H10344195   7.695   0.721   6.116 -0.3107  1.1661 -1.6303
  147MOL   H10444196   7.189   0.689   6.310 -2.6597  0.0465  1.2067
  147MOL   H10544197   7.186   0.839   6.223 -1.3713  0.9548  0.8242
  147MOL   H10644198   7.173   0.837   6.397  0.8714 -0.0308 -0.1956
  147MOL   C10744199   7.592   1.012   6.290 -0.1823 -1.1885  0.3113
  147MOL   C10844200   7.537   1.124   6.192 -0.4487  0.1117 -0.7442
  147MOL   C10944201   7.581   1.264   6.241  0.0390  0.2061  0.5198
  147MOL   C11044202   7.596   1.100   6.046 -0.2594 -0.1903  0.0458
  147MOL   O11144203   7.703   1.159   6.018  0.0693 -0.3163 -0.4677
  147MOL   O11244204   7.532   1.015   5.968 -0.1873  0.6920  0.0932
  147MOL   C11344205   7.584   0.961   5.853  1.4936  0.0427  0.4300
  147MOL   H11444206   7.694   1.044   6.309 -0.3876  0.7485 -1.7158
  147MOL   H11544207   7.540   1.036   6.383 -0.6161 -1.3075  0.1027
  147MOL   H11644208   7.572   1.346   6.171 -0.9910 -0.7247 -0.4655
  147MOL   H11744209   7.531   1.288   6.335 -0.2117 -0.6070  0.6053
  147MOL   H11844210   7.687   1.266   6.263  0.4730  0.8120 -1.5740
  147MOL   H11944211   7.503   0.968   5.781 -0.5353  0.0037  2.6561
  147MOL   H12044212   7.609   0.855   5.864  1.7159 -0.0122 -0.5503
  147MOL   H12144213   7.668   1.006   5.801  2.5314 -1.9957  0.2826
  147MOL   C12244214   7.381   1.125   6.184  0.2647 -0.7742  0.2892
  147MOL   C12344215   7.289   1.234   6.117  0.1570 -0.0568  0.0377
  147MOL   C12444216   7.286   1.375   6.183 -0.1983  0.4918 -0.0940
  147MOL   C12544217   7.330   1.247   5.965 -0.2707  0.3177 -0.2112
  147MOL   O12644218   7.386   1.348   5.928  0.4637  0.1582  0.0681
  147MOL   O12744219   7.284   1.148   5.879 -0.3771  0.1772 -0.1268
  147MOL   C12844220   7.290   1.170   5.738  0.0855  0.3147 -0.1009
  147MOL   H12944221   7.351   1.101   6.286  1.5039 -2.8372  0.1993
  147MOL   H13044222   7.361   1.030   6.135 -1.9457  0.7940 -2.0077
  147MOL   H13144223   7.284   1.362   6.292 -1.5976 -1.2846 -0.3089
  147MOL   H13244224   7.378   1.430   6.164 -0.1619  0.6289  0.4561
  147MOL   H13344225   7.195   1.432   6.161  1.3062  3.5371  1.2820
  147MOL   H13444226   7.188   1.185   5.700  0.1143  1.2149  0.1529
  147MOL   H13544227   7.312   1.072   5.696 -1.3285  0.4367 -1.1563
  147MOL   H13644228   7.355   1.253   5.708  0.8195 -0.9250 -1.9909
  147MOL   C13744229   7.133   1.185   6.114 -0.3526 -0.7094  0.4825
  147MOL   C13844230   7.029   1.191   6.235 -0.0166 -0.0771  0.6103
  147MOL   C13944231   7.098   1.151   6.369 -0.5903 -0.5805 -0.0634
  147MOL   C14044232   6.969   1.330   6.251  0.1028  0.3723  0.4736
  147MOL   O14144233   6.976   1.391   6.355  0.6485 -0.0159 -0.3355
  147MOL   O14244234   6.918   1.388   6.146  0.0777 -0.4531  0.5718
  147MOL   C14344235   6.846   1.509   6.154  0.1949  0.3524 -0.5749
  147MOL   H14444236   7.149   1.080   6.090  2.0038 -0.3867  0.5135
  147MOL   H14544237   7.080   1.224   6.028  0.4557  1.6115  1.0172
  147MOL   H14644238   7.160   1.233   6.404 -0.2447 -0.4027 -1.0639
  147MOL   H14744239   7.037   1.138   6.458  0.3846  1.9629  1.0293
  147MOL   H14844240   7.168   1.068   6.359 -2.2782 -2.1303  0.5531
  147MOL   H14944241   6.910   1.588   6.115  1.3860 -1.1874 -1.7853
  147MOL   H15044242   6.839   1.543   6.258  1.2344 -1.0943 -0.0127
  147MOL   H15144243   6.747   1.496   6.111 -0.4390  1.6259  0.4450
  147MOL   C15244244   6.922   1.086   6.195  0.4935 -0.1714 -0.4938
  147MOL   C15344245   6.778   1.070   6.263 -0.4420 -0.1855  0.1173
  147MOL   C15444246   6.708   0.971   6.167 -0.0704  0.5223  0.4209
  147MOL   C15544247   6.802   1.012   6.399  0.1015  0.2935 -1.1470
  147MOL   O15644248   6.812   1.081   6.493  0.5635  1.2425 -0.0389
  147MOL   O15744249   6.808   0.882   6.398 -0.1542 -0.1506 -0.4436
  147MOL   C15844250   6.816   0.821   6.533  0.3902 -0.4023  0.1698
  147MOL   H15944251   6.967   0.990   6.218  0.6393  0.4157  1.8343
  147MOL   H16044252   6.909   1.091   6.087 -0.2170  0.8519 -0.3639
  147MOL   H16144253   6.608   0.943   6.201 -0.1652 -0.3582 -0.5253
  147MOL   H16244254   6.692   1.024   6.073  1.8829 -0.6605 -0.6008
  147MOL   H16344255   6.764   0.882   6.137 -0.7092  0.0531  0.6074
  147MOL   H16444256   6.735   0.860   6.595  0.1263 -1.7327  0.6813
  147MOL   H16544257   6.913   0.827   6.582 -0.5058  0.6561  1.8621
  147MOL   H16644258   6.788   0.716   6.540  0.6603 -0.5599 -1.0332
  147MOL   C16744259   6.682   1.198   6.272  0.4211  0.2322 -0.1136
  147MOL   C16844260   6.524   1.221   6.299  0.0315  0.8186 -0.5471
  147MOL   C16944261   6.504   1.374   6.303  0.2954  0.9208 -0.1101
  147MOL   C17044262   6.437   1.168   6.177 -0.2258  0.5573  0.3479
  147MOL   O17144263   6.332   1.106   6.189  0.0912  0.2430 -0.1137
  147MOL   O17244264   6.482   1.196   6.054 -0.5251 -0.0678  0.2326
  147MOL   C17344265   6.405   1.151   5.942 -0.2664 -0.1558  0.5978
  147MOL   H17444266   6.691   1.250   6.177 -1.2354  1.2816  0.2784
  147MOL   H17544267   6.736   1.260   6.343  1.6590 -0.9190 -0.0406
  147MOL   H17644268   6.399   1.404   6.299  0.5134  1.4313 -2.5178
  147MOL   H17744269   6.547   1.427   6.388  1.5104  2.2957 -1.5668
  147MOL   H17844270   6.538   1.413   6.207 -1.2581 -1.2913 -1.6138
  147MOL   H17944271   6.406   1.042   5.938 -1.7420 -0.2208  1.4209
  147MOL   H18044272   6.464   1.179   5.855  0.7281 -2.5516  0.4587
  147MOL   H18144273   6.304   1.190   5.936 -1.2662 -2.6078  1.0785
  147MOL   C18244274   6.474   1.156   6.437 -0.4850 -0.4842  0.1232
  147MOL   C18344275   6.360   1.208   6.532  0.0089 -0.4361 -0.0537
  147MOL   C18444276   6.360   1.105   6.643 -0.1059  0.5187  0.1767
  147MOL   C18544277   6.407   1.342   6.593  0.7355 -0.6213 -0.1720
  147MOL   O18644278   6.356   1.445   6.565  0.6563 -0.2545  0.5579
  147MOL   O18744279   6.519   1.323   6.664 -0.1381  0.2351  0.5786
  147MOL   C18844280   6.593   1.433   6.720 -0.0219 -0.0919  0.4228
  147MOL   H18944281   6.567   1.167   6.492  0.0614 -0.9682 -0.6909
  147MOL   H19044282   6.449   1.050   6.430  1.8999 -1.0193 -0.8313
  147MOL   H19144283   6.307   1.012   6.622 -0.1407  0.3496  0.9811
  147MOL   H19244284   6.459   1.068   6.672 -1.2802 -1.5244  1.7113
  147MOL   H19344285   6.309   1.152   6.727  0.2648  1.4156 -0.1001
  147MOL   H19444286   6.639   1.479   6.633 -0.2330 -1.2306 -0.3081
  147MOL   H19544287   6.673   1.389   6.781  0.0576 -1.4784 -0.6583
  147MOL   H19644288   6.527   1.503   6.770 -0.4514 -0.4094  0.3023
  147MOL   C19744289   6.220   1.205   6.455 -0.7384  0.0542  0.2662
  147MOL   C19844290   6.076   1.227   6.523 -0.0695 -0.1486  0.6820
  147MOL   C19944291   6.080   1.349   6.603 -0.2116 -0.0391  0.4107
  147MOL   C20044292   5.970   1.243   6.411  0.3298 -0.0667  0.0166
  147MOL   O20144293   5.882   1.329   6.411  0.3237  0.0154  0.0267
  147MOL   O20244294   5.966   1.143   6.324 -0.1649  0.2428 -0.2019
  147MOL   C20344295   5.862   1.139   6.224 -0.0171  0.2606 -0.1979
  147MOL   H20444296   6.220   1.110   6.403 -0.8182 -0.2712  0.8516
  147MOL   H20544297   6.232   1.277   6.375 -1.2771 -0.6701 -0.4691
  147MOL   H20644298   5.980   1.381   6.631 -0.1892 -0.2310  0.7129
  147MOL   H20744299   6.141   1.347   6.694 -1.7283  0.2634  1.4550
  147MOL   H20844300   6.113   1.436   6.545 -2.3475  0.2881 -0.3617
  147MOL   H20944301   5.764   1.168   6.261  0.6208  1.3290  0.7221
  147MOL   H21044302   5.860   1.043   6.173 -1.8015  0.4953 -0.5841
  147MOL   H21144303   5.902   1.209   6.150  0.5051 -0.9995 -1.1346
  147MOL   C21244304   6.046   1.102   6.613  0.7027  0.2219 -0.5040
  147MOL   C21344305   5.911   1.070   6.693  0.0405  1.3809 -0.1914
  147MOL   C21444306   5.878   1.195   6.783 -0.1800 -0.7328  0.8991
  147MOL   C21544307   5.790   1.049   6.594 -0.2379 -0.7378 -0.5102
  147MOL   O21644308   5.685   1.106   6.596  0.5090  0.0883  0.5565
  147MOL   O21744309   5.808   0.944   6.515 -0.7707 -0.1394  0.5007
  147MOL   C21844310   5.706   0.899   6.433 -0.3786  0.0262 -0.4804
  147MOL   H21944311   6.115   1.119   6.695  0.2725 -0.5025  0.0010
  147MOL   H22044312   6.093   1.017   6.564 -0.6130 -1.0571  0.4276
  147MOL   H22144313   5.795   1.159   6.843 -0.9228 -1.5363 -0.5886
  147MOL   H22244314   5.963   1.227   6.844  1.7465 -0.5555 -1.8255
  147MOL   H22344315   5.837   1.286   6.740  0.5380 -0.0583  1.6167
  147MOL   H22444316   5.607   0.918   6.474  0.0477  0.0850  0.5158
  147MOL   H22544317   5.708   0.792   6.411  0.1654 -0.0281 -0.1749
  147MOL   H22644318   5.715   0.953   6.339  0.1491 -0.0936 -0.5010
  147MOL   C22744319   5.948   0.941   6.777 -0.7165 -0.1070  0.0411
  147MOL   C22844320   5.872   0.886   6.901  0.2328  0.4693 -0.4649
  147MOL   C22944321   5.936   0.950   7.021  0.3487 -0.1258  0.2517
  147MOL   C23044322   5.716   0.911   6.906 -0.9098 -0.1228 -0.2439
  147MOL   O23144323   5.666   0.985   6.992  0.3024 -0.7780 -0.6677
  147MOL   O23244324   5.645   0.842   6.818  0.2440  0.8027 -0.2978
  147MOL   C23344325   5.501   0.860   6.804  0.0584 -0.2405 -0.2679
  147MOL   H23444326   6.052   0.951   6.809  0.1062 -1.0371 -2.2092
  147MOL   H23544327   5.967   0.861   6.705  1.4860  0.4128  0.0074
  147MOL   H23644328   6.036   0.909   7.039  0.3773  0.2557  0.9829
  147MOL   H23744329   5.973   1.051   7.003 -0.1994 -0.4215 -2.8322
  147MOL   H23844330   5.871   0.941   7.108 -0.0634 -0.1427 -0.0559
  147MOL   H23944331   5.454   0.764   6.782  3.4085 -2.4381  1.7643
  147MOL   H24044332   5.496   0.938   6.729 -1.0684  0.8329  0.8929
  147MOL   H24144333   5.453   0.899   6.894  0.9612  1.2122 -0.4073
  147MOL   C24244334   5.890   0.734   6.905  0.4106  0.0636 -0.6060
  147MOL   C24344335   5.856   0.619   7.014 -0.5549 -0.0784 -0.3196
  147MOL   C24444336   5.966   0.631   7.122  0.4301 -0.4907 -0.2597
  147MOL   C24544337   5.716   0.643   7.077 -0.1950  0.2912 -0.2757
  147MOL   O24644338   5.613   0.601   7.025 -0.2136 -0.2706  0.4265
  147MOL   O24744339   5.712   0.720   7.189  0.5771  0.6478  0.2320
  147MOL   C24844340   5.577   0.759   7.228 -0.5733  0.0109  0.1114
  147MOL   H24944341   5.995   0.721   6.881  0.5349 -3.1289  1.2976
  147MOL   H25044342   5.844   0.686   6.818 -1.4357 -0.2321  0.5008
  147MOL   H25144343   5.946   0.575   7.213 -2.3427  2.6383  1.1849
  147MOL   H25244344   6.064   0.604   7.083 -0.1388 -1.1877 -1.2288
  147MOL   H25344345   5.982   0.735   7.153 -3.9320  0.5893 -1.3150
  147MOL   H25444346   5.579   0.838   7.304 -1.9345  0.4628 -0.3021
  147MOL   H25544347   5.516   0.677   7.265 -2.1481  1.0034 -0.2363
  147MOL   H25644348   5.516   0.785   7.142  1.2860  2.6291 -0.4921
  147MOL   C25744349   5.869   0.479   6.947  0.1440  0.6391 -0.4797
  147MOL   C25844350   5.882   0.338   7.021 -0.1420 -0.4368  0.5604
  147MOL   C25944351   6.031   0.320   7.068  0.2383  0.5918  0.4539
  147MOL   C26044352   5.782   0.304   7.135  0.7540  0.3553  1.1626
  147MOL   O26144353   5.826   0.262   7.246  0.9118 -0.2157 -0.3772
  147MOL   O26244354   5.647   0.308   7.103  0.8959 -0.2466  0.7540
  147MOL   C26344355   5.558   0.255   7.191  0.1868 -1.0438  0.5138
  147MOL   H26444356   5.947   0.488   6.872  0.1403  1.2707 -0.4112
  147MOL   H26544357   5.774   0.475   6.892 -0.4245  1.0260  0.4545
  147MOL   H26644358   6.047   0.386   7.153 -2.1386  0.0712  1.3552
  147MOL   H26744359   6.051   0.219   7.103  0.0798  0.1482 -0.7055
  147MOL   H26844360   6.099   0.348   6.987  0.0523  0.0262  0.0966
  147MOL   H26944361   5.457   0.293   7.177  0.3916  0.3143  2.4917
  147MOL   H27044362   5.579   0.269   7.297 -0.3379  0.2420  0.4549
  147MOL   H27144363   5.553   0.146   7.185  1.7199 -1.2133  2.0218
  147MOL   C27244364   5.855   0.237   6.900  0.0787 -0.2880  0.0116
  147MOL   C27344365   5.885   0.081   6.888  0.1220 -0.0661 -0.0592
  147MOL   C27444366   5.818   0.035   6.757  0.2448 -0.4079  0.1120
  147MOL   C27544367   6.029   0.045   6.881  0.4957 -0.2775  0.7371
  147MOL   O27644368   6.083   7.852   6.962  0.4011  0.0000 -0.3610
  147MOL   O27744369   6.096   0.112   6.786 -1.1132  0.0295  0.1510
  147MOL   C27844370   6.237   0.109   6.772  1.0114  1.3427 -0.1116
  147MOL   H27944371   5.893   0.287   6.811  1.9857 -0.3896  0.7494
  147MOL   H28044372   5.749   0.251   6.877  0.2779  2.4798  0.6644
  147MOL   H28144373   5.830   0.100   6.671 -0.5543  0.8508  0.9396
  147MOL   H28244374   5.844   7.807   6.742  2.8931 -0.4441  4.0532
  147MOL   H28344375   5.711   0.027   6.776 -0.0212  0.2433 -1.0967
  147MOL   H28444376   6.256   0.015   6.721 -0.5123  1.2572 -0.5424
  147MOL   H28544377   6.285   0.107   6.870  0.8225 -0.6650 -0.0317
  147MOL   H28644378   6.266   0.193   6.709 -3.3812  3.0734 -0.0070
  147MOL   C28744379   5.811   0.006   7.011 -0.6105  0.1984  0.1374
  147MOL   C28844380   5.796   7.728   7.012 -0.3443 -0.1287 -0.7557
  147MOL   C28944381   5.851   7.654   7.139 -0.1151  0.9833 -0.2271
  147MOL   C29044382   5.662   7.668   6.965  0.2645 -0.3701 -0.1871
  147MOL   O29144383   5.642   7.628   6.849  0.2104  0.1908 -0.5187
  147MOL   O29244384   5.561   7.683   7.056 -0.3674  0.6923  0.1735
  147MOL   C29344385   5.442   7.623   7.023  1.3602  0.4457  0.2232
  147MOL   H29444386   5.714   0.053   7.028 -0.6141 -0.0666  0.8443
  147MOL   H29544387   5.874   0.033   7.095  2.0377  0.3246 -1.8165
  147MOL   H29644388   5.944   7.696   7.176 -1.0088  2.1604  0.7405
  147MOL   H29744389   5.781   7.652   7.222 -0.3713 -1.7309 -0.4739
  147MOL   H29844390   5.866   7.548   7.123 -0.3532  1.0158 -0.6959
  147MOL   H29944391   5.404   7.593   7.121  1.0304  0.0598 -0.0254
  147MOL   H30044392   5.458   7.538   6.957  2.4906  1.8587 -1.3606
  147MOL   H30144393   5.370   7.693   6.980 -1.9365 -1.6005  2.2141
  147MOL   H30244394   5.874   7.703   6.941  1.5651 -0.2897  1.3529
  148MOL     C144395   1.668   5.431   7.652 -0.2847 -0.2455  0.2668
  148MOL     C244396   1.702   5.577   7.620  0.3411 -0.0130  0.4695
  148MOL     C344397   1.843   5.594   7.558  0.5032 -0.0636  0.1909
  148MOL     C444398   1.592   5.626   7.523  0.7121  0.5728 -0.1361
  148MOL     O544399   1.490   5.675   7.566  0.2336  0.6462 -0.0286
  148MOL     O644400   1.621   5.600   7.397  0.0912 -0.1697  0.2285
  148MOL     C744401   1.550   5.669   7.304 -0.5049  0.1207 -0.3320
  148MOL     H844402   1.660   5.373   7.560 -1.7871  0.1968  0.1113
  148MOL     H944403   1.750   5.388   7.710 -0.3524 -3.3722 -1.8298
  148MOL    H1044404   1.918   5.539   7.615 -0.0494 -1.9913 -0.9069
  148MOL    H1144405   1.854   5.544   7.462  3.7023  0.0843  0.4387
  148MOL    H1244406   1.871   5.698   7.548  2.7302 -0.5917  0.6466
  148MOL    H1344407   1.552   5.773   7.336 -1.3818  1.0961 -3.2955
  148MOL    H1444408   1.446   5.637   7.310 -0.2513 -0.3839  2.2667
  148MOL    H1544409   1.587   5.658   7.203 -1.8732 -0.9347 -0.7271
  148MOL    H1644410   1.576   5.428   7.710 -0.4450  0.2892  0.0462
  148MOL    C1744411   1.685   5.648   7.760 -0.0977 -0.5421  0.7900
  148MOL    C1844412   1.732   5.800   7.789 -0.1712 -0.1259  0.4101
  148MOL    C1944413   1.654   5.848   0.038  0.5239  0.0890 -0.0262
  148MOL    C2044414   1.883   5.800   7.820 -0.2227 -0.1568  0.6308
  148MOL    O2144415   1.971   5.843   7.749  0.6404 -0.0490  0.3448
  148MOL    O2244416   1.913   5.735   0.055  0.0310 -0.2715 -0.2390
  148MOL    C2344417   2.043   5.752   0.113 -0.1450  0.1279 -0.1947
  148MOL    H2444418   1.743   5.588   7.830  3.6350  1.3856 -0.5388
  148MOL    H2544419   1.584   5.627   7.796 -0.6221 -1.9751 -1.3857
  148MOL    H2644420   1.551   5.876   0.016  0.5555  1.0364  0.9815
  148MOL    H2744421   1.643   5.768   0.111  1.8938 -0.2027 -0.1314
  148MOL    H2844422   1.703   5.935   0.082 -0.6769  0.2545  1.0222
  148MOL    H2944423   2.120   5.720   0.042  0.9263 -0.9786  1.4292
  148MOL    H3044424   2.054   5.692   0.204  0.7143  0.8713  0.2066
  148MOL    H3144425   2.052   5.857   0.143  1.1413 -0.3194  1.0938
  148MOL    C3244426   1.689   5.909   7.682  0.6670  0.5189  0.3035
  148MOL    C3344427   1.692   6.065   7.680  0.1282  0.6038 -0.4806
  148MOL    C3444428   1.684   6.096   7.523  1.0368  0.7888 -0.1005
  148MOL    C3544429   1.564   6.130   7.742 -0.3464  0.0924  0.2668
  148MOL    O3644430   1.483   6.190   7.676 -0.2033  0.5182 -0.3858
  148MOL    O3744431   1.555   6.119   0.003 -0.3640  0.1111  0.1241
  148MOL    C3844432   1.456   6.182   0.064  0.2156  0.0912  0.1004
  148MOL    H3944433   1.587   5.877   7.660  0.8797 -0.1009  0.2314
  148MOL    H4044434   1.753   5.888   7.596  1.0463 -1.7291  1.1138
  148MOL    H4144435   1.600   6.047   7.473  2.6401 -0.1835 -1.9090
  148MOL    H4244436   1.679   6.200   7.488  1.4988  0.9049  0.1880
  148MOL    H4344437   1.764   6.058   7.460  0.2953 -1.0268  0.0234
  148MOL    H4444438   1.465   6.289   0.046  0.1177 -0.3733 -2.8746
  148MOL    H4544439   1.455   6.167   0.172  1.5365 -1.2005 -0.0506
  148MOL    H4644440   1.355   6.148   0.041 -0.2334  2.7896 -2.1525
  148MOL    C4744441   1.829   6.123   7.734 -0.3612 -0.2252  0.8783
  148MOL    C4844442   1.871   6.277   7.751  0.6212 -0.6854 -0.2323
  148MOL    C4944443   1.833   6.359   7.626 -0.2141 -0.3350 -0.2109
  148MOL    C5044444   1.801   6.337   7.876  0.3791  0.0059 -0.1720
  148MOL    O5144445   1.731   6.443   7.872  0.2456 -0.2534  0.6698
  148MOL    O5244446   1.818   6.260   0.110  0.0634  0.0170  0.6338
  148MOL    C5344447   1.770   6.309   0.234  0.9392 -0.4282 -0.2490
  148MOL    H5444448   1.904   6.077   7.669 -1.2252 -0.3068 -0.0742
  148MOL    H5544449   1.850   6.082   7.832 -0.1779  0.2707  1.0508
  148MOL    H5644450   1.725   6.366   7.617 -0.1851  1.2185  0.4385
  148MOL    H5744451   1.856   6.465   7.640 -1.0595 -0.2171  0.3341
  148MOL    H5844452   1.877   6.332   7.531 -0.8043  0.1361 -0.6194
  148MOL    H5944453   1.680   6.370   0.244  1.2362 -0.4736  3.4529
  148MOL    H6044454   1.858   6.351   0.283  0.2990  0.3356  0.2543
  148MOL    H6144455   1.765   6.214   0.288  2.2118 -0.8778 -0.8867
  148MOL    C6244456   2.026   6.275   7.769 -0.1557 -0.9851 -0.0757
  148MOL    C6344457   2.120   6.401   7.764 -0.1492 -0.1428  0.0478
  148MOL    C6444458   2.257   6.348   7.821  0.7661  1.0028  0.5282
  148MOL    C6544459   2.144   6.443   7.616 -0.7826 -0.8845  0.1589
  148MOL    O6644460   2.089   6.543   7.567  0.0247 -0.0796  0.2886
  148MOL    O6744461   2.219   6.364   7.542 -0.3328 -0.0591  0.1780
  148MOL    C6844462   2.239   6.386   7.402 -0.8754 -0.2947 -0.4653
  148MOL    H6944463   2.063   6.217   7.685  2.4080 -1.4868  1.3421
  148MOL    H7044464   2.046   6.214   7.857 -3.1236 -0.8120  0.7612
  148MOL    H7144465   2.275   6.346   0.051  2.1339 -3.5691  0.3047
  148MOL    H7244466   2.263   6.240   7.808 -1.8194  1.1547 -2.4399
  148MOL    H7344467   2.346   6.392   7.778 -0.1256  1.9717 -0.3681
  148MOL    H7444468   2.346   6.383   7.379 -0.9840  1.1769 -1.2035
  148MOL    H7544469   2.207   6.471   7.342  0.4760 -0.3910 -1.3236
  148MOL    H7644470   2.196   6.304   7.345 -1.6399 -1.0885  1.1970
  148MOL    C7744471   2.076   6.517   7.863  0.1663 -0.0837  0.5535
  148MOL    C7844472   2.155   6.657   0.007 -0.0042  0.0717  0.0911
  148MOL    C7944473   2.303   6.650   7.865 -0.6443 -0.1482 -0.1089
  148MOL    C8044474   2.096   6.753   7.779  0.1756 -0.2236 -0.8999
  148MOL    O8144475   2.165   6.814   7.694  0.0143 -0.9115 -0.2983
  148MOL    O8244476   1.964   6.765   7.791  0.0873  0.4191  0.1829
  148MOL    C8344477   1.901   6.866   7.723 -0.5744  0.4824  0.4120
  148MOL    H8444478   2.069   6.467   0.082  2.3423 -1.3295  0.1087
  148MOL    H8544479   1.973   6.541   7.838  0.5763  1.3909  0.1918
  148MOL    H8644480   2.325   6.610   7.766 -1.0916  0.6457 -0.5320
  148MOL    H8744481   2.354   6.745   7.877 -0.9734  0.2333 -1.6299
  148MOL    H8844482   2.353   6.583   0.057 -0.5938 -0.7278 -0.7010
  148MOL    H8944483   1.937   6.969   7.731 -0.6663  0.6692 -1.2608
  148MOL    H9044484   1.799   6.855   7.759  0.1617 -1.1054  2.0669
  148MOL    H9144485   1.901   6.834   7.618 -1.1758 -0.1536  0.6053
  148MOL    C9244486   2.133   6.706   0.156 -0.3670 -0.8675 -0.0823
  148MOL    C9344487   2.180   6.845   0.217  0.4429  0.6656  0.5387
  148MOL    C9444488   2.177   6.965   0.119  1.0279  0.0614 -0.0286
  148MOL    C9544489   2.080   6.864   0.338  0.4972  0.0494  1.0204
  148MOL    O9644490   2.007   6.963   0.353 -0.0965  0.7382 -0.2798
  148MOL    O9744491   2.075   6.761   0.424 -0.8214 -0.1072  0.7007
  148MOL    C9844492   2.005   6.777   0.548  0.1059  0.0351  0.2099
  148MOL    H9944493   2.186   6.635   0.221 -0.2947 -0.5368  0.2198
  148MOL   H10044494   2.027   6.691   0.176 -0.2903  0.5499  1.4225
  148MOL   H10144495   2.244   6.946   0.035 -1.7634 -1.9470 -1.9077
  148MOL   H10244496   2.075   6.963   0.082  1.1028 -0.9690 -0.2094
  148MOL   H10344497   2.195   7.061   0.168  1.9231 -0.1626  0.0967
  148MOL   H10444498   1.916   6.840   0.546  1.2119  1.6210  0.0107
  148MOL   H10544499   2.070   6.811   0.629 -0.5292  2.5287 -0.2873
  148MOL   H10644500   1.965   6.678   0.571  0.9944 -0.5250 -0.6271
  148MOL   C10744501   2.329   6.831   0.280 -0.2059  0.0164  0.2222
  148MOL   C10844502   2.421   6.960   0.311  0.1192 -0.1950  0.3704
  148MOL   C10944503   2.487   7.012   0.184 -0.0572  0.1049  0.1204
  148MOL   C11044504   2.349   7.078   0.374 -0.3127  0.2963  0.1603
  148MOL   O11144505   2.346   7.188   0.320  0.0398 -0.0980  0.4930
  148MOL   O11244506   2.295   7.047   0.499  0.2345  0.3403  0.4822
  148MOL   C11344507   2.200   7.145   0.544 -0.2764  0.1158  0.1530
  148MOL   H11444508   2.385   6.757   0.222  0.9642  1.7157 -0.8587
  148MOL   H11544509   2.313   6.776   0.373 -0.8162  1.9452  1.2795
  148MOL   H11644510   2.556   6.936   0.146 -0.2459  1.3472 -2.8336
  148MOL   H11744511   2.421   7.047   0.104 -0.1027 -0.4711 -0.0961
  148MOL   H11844512   2.547   7.102   0.196  0.7221 -0.5450  1.1231
  148MOL   H11944513   2.114   7.154   0.478 -0.5347 -1.1330  0.2974
  148MOL   H12044514   2.251   7.240   0.561 -0.4113 -0.1138  1.9891
  148MOL   H12144515   2.156   7.121   0.641  2.9456 -0.8827  1.4448
  148MOL   C12244516   2.526   6.911   0.408  0.0384 -0.2715 -0.4203
  148MOL   C12344517   2.651   7.002   0.452 -0.3301  0.0734  0.2530
  148MOL   C12444518   2.726   6.909   0.554  0.1955 -0.2608 -0.2714
  148MOL   C12544519   2.748   7.009   0.329 -0.8026  0.2243  0.3660
  148MOL   O12644520   2.794   7.114   0.287  0.2213  0.6566  1.2284
  148MOL   O12744521   2.780   6.886   0.279  0.6387  0.0351 -0.0419
  148MOL   C12844522   2.889   6.875   0.196 -0.3509 -0.0106 -0.2888
  148MOL   H12944523   2.543   6.808   0.375 -1.6162 -0.5406 -0.5086
  148MOL   H13044524   2.469   6.885   0.498 -1.3786  1.5821 -0.7417
  148MOL   H13144525   2.731   6.805   0.520 -1.8743 -0.3768 -0.3158
  148MOL   H13244526   2.831   6.935   0.567 -0.0196  0.3907  0.1681
  148MOL   H13344527   2.675   6.901   0.650  0.8480 -0.2331  0.0828
  148MOL   H13444528   2.983   6.894   0.248 -0.2254  0.6886 -0.7614
  148MOL   H13544529   2.878   6.929   0.102  3.2282  2.1513  0.4008
  148MOL   H13644530   2.899   6.772   0.164 -0.7877 -0.6097  1.4591
  148MOL   C13744531   2.623   7.137   0.520 -0.1793 -0.5859 -0.2101
  148MOL   C13844532   2.720   7.230   0.596  0.3908  0.1359 -0.4054
  148MOL   C13944533   2.652   7.236   0.737  0.0265  0.3387  0.1612
  148MOL   C14044534   2.861   7.186   0.629  0.0289 -0.5740 -0.5005
  148MOL   O14144535   2.904   7.177   0.746  0.2812 -0.5553  0.1665
  148MOL   O14244536   2.951   7.171   0.527  0.1351 -0.1982 -0.0712
  148MOL   C14344537   3.082   7.144   0.542 -0.6213 -0.0387 -0.2822
  148MOL   H14444538   2.542   7.103   0.584 -0.4630 -0.3769 -0.4570
  148MOL   H14544539   2.583   7.190   0.434  1.2440 -2.0014 -1.7766
  148MOL   H14644540   2.546   7.262   0.732 -0.3739 -1.6129 -2.6228
  148MOL   H14744541   2.657   7.141   0.791  0.7713 -0.0881 -0.6552
  148MOL   H14844542   2.693   7.313   0.803  1.0342  0.6469 -0.8172
  148MOL   H14944543   3.103   7.046   0.585 -0.2158  0.4248  0.5850
  148MOL   H15044544   3.123   7.229   0.596  1.4750 -2.3914  1.9769
  148MOL   H15144545   3.127   7.147   0.443 -0.4214  0.9486 -0.1657
  148MOL   C15244546   2.710   7.375   0.531  0.1543 -0.1709  0.1281
  148MOL   C15344547   2.785   7.512   0.562  0.2170  1.4740  0.5578
  148MOL   C15444548   2.739   7.564   0.696 -0.3560  0.1003 -0.1644
  148MOL   C15544549   2.939   7.508   0.541  0.3062  0.4287 -0.3188
  148MOL   O15644550   3.018   7.533   0.637  0.4339  0.0635 -0.2497
  148MOL   O15744551   2.978   7.474   0.414  0.1010 -0.4942 -0.2533
  148MOL   C15844552   3.117   7.460   0.387 -0.2445 -0.4893  0.0955
  148MOL   H15944553   2.605   7.399   0.512  0.6027 -0.3302 -2.7803
  148MOL   H16044554   2.741   7.347   0.430 -0.4693  1.4328 -0.5270
  148MOL   H16144555   2.631   7.549   0.704 -0.6800  2.1330 -0.5729
  148MOL   H16244556   2.781   7.503   0.776 -1.8299 -3.1748 -1.7759
  148MOL   H16344557   2.759   7.669   0.716 -1.2125  0.3196 -0.4311
  148MOL   H16444558   3.175   7.437   0.477  1.2540 -0.6181 -0.8926
  148MOL   H16544559   3.150   7.556   0.346 -0.9183  0.3336  1.4119
  148MOL   H16644560   3.144   7.385   0.313 -1.4864 -0.8188 -0.0254
  148MOL   C16744561   2.716   7.598   0.447 -0.2662  0.2971  0.3468
  148MOL   C16844562   2.727   7.760   0.447  0.4015  0.3482  0.0500
  148MOL   C16944563   2.867   7.803   0.500 -0.5053  0.1113 -0.1044
  148MOL   C17044564   2.722   7.810   0.291 -0.6498  0.0465 -0.0358
  148MOL   O17144565   2.622   7.851   0.228  0.2723  0.2551 -0.2511
  148MOL   O17244566   2.834   7.782   0.234 -0.0185  0.1400 -0.0074
  148MOL   C17344567   2.848   7.767   0.097 -1.0138  0.6297  0.1038
  148MOL   H17444568   2.608   7.589   0.462 -0.0929  0.9885  2.0846
  148MOL   H17544569   2.744   7.558   0.350  0.8920  0.1314  0.7480
  148MOL   H17644570   2.952   7.761   0.446 -2.2547 -2.8597 -0.6494
  148MOL   H17744571   2.874   0.034   0.486 -3.1478  0.4210  0.8195
  148MOL   H17844572   2.870   7.780   0.606  0.9335 -2.5575 -0.6947
  148MOL   H17944573   2.950   7.751   0.063 -1.1342 -1.5297  0.6602
  148MOL   H18044574   2.809   7.857   0.049 -0.8803 -0.3495 -1.9052
  148MOL   H18144575   2.792   7.677   0.070 -0.9474 -0.5096  3.5279
  148MOL   C18244576   2.601   7.816   0.531  0.1016 -0.4841  0.0673
  148MOL   C18344577   2.589   0.083   0.592 -0.2283 -0.1145  0.2874
  148MOL   C18444578   2.436   0.102   0.628 -0.3678 -0.0960 -0.2795
  148MOL   C18544579   2.674   0.086   0.723  0.4321 -0.5908 -0.5927
  148MOL   O18644580   2.769   0.163   0.727 -0.3846 -0.1664 -0.0315
  148MOL   O18744581   2.634   7.876   0.822 -0.2567 -0.2747  0.6299
  148MOL   C18844582   2.711   7.853   0.939  0.2029  0.6459  0.1085
  148MOL   H18944583   2.565   7.743   0.605 -0.0313 -0.5259 -0.0391
  148MOL   H19044584   2.518   7.802   0.462  0.0451 -2.4530  0.4795
  148MOL   H19144585   2.428   0.183   0.700  2.4876  1.7781 -1.9977
  148MOL   H19244586   2.380   0.133   0.540  0.6432  0.9255 -0.5669
  148MOL   H19344587   2.403   0.009   0.674  1.5327 -1.3332 -1.3341
  148MOL   H19444588   2.730   0.069   0.992  0.8687  1.1285 -0.9780
  148MOL   H19544589   2.794   7.791   0.907 -0.5250  0.1345 -0.8113
  148MOL   H19644590   2.654   7.796   1.012 -1.7242  1.7326 -0.5124
  148MOL   C19744591   2.637   0.191   0.486  0.6167  0.0806 -0.3678
  148MOL   C19844592   2.616   0.342   0.478 -0.3070 -0.5207  0.5623
  148MOL   C19944593   2.677   0.381   0.340 -0.1484  0.2572 -0.3101
  148MOL   C20044594   2.466   0.379   0.468 -0.1828 -0.1372  0.3197
  148MOL   O20144595   2.412   0.393   0.360  0.0301  0.0454  0.9179
  148MOL   O20244596   2.403   0.397   0.580  0.0801 -0.2639 -0.3840
  148MOL   C20344597   2.272   0.454   0.579  0.7805  0.0282  0.0711
  148MOL   H20444598   2.588   0.155   0.395 -0.1463  1.6459 -0.6067
  148MOL   H20544599   2.745   0.188   0.475  0.6420  1.7120 -0.7061
  148MOL   H20644600   2.640   0.322   0.256  1.9653 -0.8312 -0.5110
  148MOL   H20744601   2.664   0.485   0.310  0.7478  0.1925 -0.9348
  148MOL   H20844602   2.784   0.365   0.325  0.2268  1.9122  0.4391
  148MOL   H20944603   2.277   0.559   0.549 -0.8233  0.0936  0.0164
  148MOL   H21044604   2.232   0.437   0.678 -1.1683  0.5941 -0.6006
  148MOL   H21144605   2.197   0.419   0.509  1.1136  1.7372 -1.1832
  148MOL   C21244606   2.690   0.412   0.597 -0.1930  0.3067  0.3926
  148MOL   C21344607   2.692   0.573   0.600 -0.0497 -0.1853  0.0984
  148MOL   C21444608   2.576   0.653   0.532 -0.3998  0.1148 -0.0672
  148MOL   C21544609   2.692   0.608   0.757 -0.1581  0.1847  0.0723
  148MOL   O21644610   2.599   0.681   0.801 -0.3516  0.2071  0.0759
  148MOL   O21744611   2.795   0.570   0.833  0.3760  0.7384 -0.1490
  148MOL   C21844612   2.765   0.569   0.974 -0.1020  0.7840  0.5462
  148MOL   H21944613   2.785   0.359   0.604 -0.6980 -0.7840 -0.9663
  148MOL   H22044614   2.634   0.378   0.684  0.7369  0.9652  1.2644
  148MOL   H22144615   2.596   0.757   0.559  0.4286 -0.4488  1.5062
  148MOL   H22244616   2.575   0.654   0.423  1.4628 -0.6737 -0.1008
  148MOL   H22344617   2.473   0.650   0.569 -0.2365  1.0878  0.5080
  148MOL   H22444618   2.749   0.667   1.017  0.3024  0.3045  1.8194
  148MOL   H22544619   2.849   0.529   1.030 -1.4593 -0.6023  1.6386
  148MOL   H22644620   2.677   0.507   0.994  0.0638  1.0422  2.1003
  148MOL   C22744621   2.824   0.615   0.522  1.2157  1.0330 -0.6105
  148MOL   C22844622   2.894   0.760   0.509  0.5957 -0.3810  0.5134
  148MOL   C22944623   2.839   0.820   0.372 -0.0463  0.6598  0.6001
  148MOL   C23044624   2.843   0.851   0.620 -0.1152 -0.2859 -0.8218
  148MOL   O23144625   2.744   0.921   0.609 -0.3040 -0.3732 -0.2550
  148MOL   O23244626   2.911   0.834   0.732 -0.0946 -0.1503  0.6985
  148MOL   C23344627   2.869   0.899   0.841  0.6268  0.8395  0.1390
  148MOL   H23444628   2.808   0.576   0.421 -2.0729 -0.3014  0.3566
  148MOL   H23544629   2.902   0.557   0.572  0.3331  0.4375  0.0778
  148MOL   H23644630   2.730   0.822   0.380 -0.1683 -0.2588 -0.7808
  148MOL   H23744631   2.887   0.917   0.359  0.5526  0.5067  1.6065
  148MOL   H23844632   2.872   0.755   0.292  2.3418  0.4236  1.7381
  148MOL   H23944633   2.914   0.861   0.933  0.0300  1.8818  0.8825
  148MOL   H24044634   2.764   0.893   0.871  0.8638 -1.3528  0.5998
  148MOL   H24144635   2.906   1.001   0.843  3.4875 -0.1689  0.6453
  148MOL   C24244636   3.049   0.752   0.510  0.4077 -0.1883 -0.8075
  148MOL   C24344637   3.149   0.680   0.409 -0.9291  0.1739 -0.0186
  148MOL   C24444638   3.097   0.537   0.367  0.1815 -0.7784  0.1623
  148MOL   C24544639   3.172   0.755   0.272  0.6030 -0.2575 -0.7810
  148MOL   O24644640   3.213   0.695   0.170 -0.0840 -0.5572 -0.0021
  148MOL   O24744641   3.137   0.886   0.282 -0.3528 -0.3962 -0.1807
  148MOL   C24844642   3.136   0.958   0.160  0.0583  0.2222 -0.0706
  148MOL   H24944643   3.058   0.692   0.600 -0.2948 -1.6479 -1.6869
  148MOL   H25044644   3.093   0.849   0.532  0.7164 -0.3328 -0.7966
  148MOL   H25144645   3.163   0.498   0.290  0.7644 -1.5957  1.0671
  148MOL   H25244646   3.074   0.468   0.448 -2.9991  0.9000  0.7806
  148MOL   H25344647   3.012   0.549   0.300  0.9579  0.1275 -0.6685
  148MOL   H25444648   3.090   1.056   0.171  0.4245  0.5611 -1.3998
  148MOL   H25544649   3.089   0.901   0.079  1.9090  1.3172 -1.9873
  148MOL   H25644650   3.235   0.983   0.123  0.0788 -1.7271 -1.4500
  148MOL   C25744651   3.291   0.639   0.489 -0.4530  0.0275  0.5430
  148MOL   C25844652   3.386   0.748   0.555  0.1445 -0.0508  0.0260
  148MOL   C25944653   3.408   0.878   0.468 -0.0848 -0.3731  0.2143
  148MOL   C26044654   3.333   0.803   0.692  0.0458  0.1846 -0.4508
  148MOL   O26144655   3.250   0.748   0.766 -0.3085 -0.2285 -0.2176
  148MOL   O26244656   3.397   0.919   0.722  0.0820  0.3272 -0.2900
  148MOL   C26344657   3.363   0.997   0.839 -0.1198 -0.6604 -0.2057
  148MOL   H26444658   3.348   0.576   0.421 -2.0908  2.2769 -3.0226
  148MOL   H26544659   3.271   0.575   0.575 -0.6010 -1.9480 -0.9338
  148MOL   H26644660   3.412   0.865   0.360 -0.0591 -1.6150  0.3628
  148MOL   H26744661   3.335   0.960   0.469  1.5258  1.1063 -0.9711
  148MOL   H26844662   3.499   0.934   0.488 -0.8869  1.8941 -2.0720
  148MOL   H26944663   3.430   1.083   0.836 -1.9849  0.7608 -2.4337
  148MOL   H27044664   3.368   0.941   0.933 -0.4688  0.5730  0.5503
  148MOL   H27144665   3.260   1.033   0.846  0.7381  1.2349  5.3017
  148MOL   C27244666   3.510   0.669   0.602  0.3262  0.2965 -0.1608
  148MOL   C27344667   3.659   0.700   0.550 -0.8823 -0.0954  0.5665
  148MOL   C27444668   3.746   0.578   0.588  0.1170 -0.7240  0.0779
  148MOL   C27544669   3.651   0.710   0.392 -0.0903 -0.4208 -0.6220
  148MOL   O27644670   3.671   0.814   0.330 -0.3505 -1.0582  0.0808
  148MOL   O27744671   3.605   0.600   0.336 -0.9899  0.1594 -0.6790
  148MOL   C27844672   3.570   0.605   0.203 -0.1994 -0.2885 -0.0024
  148MOL   H27944673   3.494   0.561   0.596 -1.0127  0.4862 -0.1214
  148MOL   H28044674   3.519   0.658   0.710 -0.9886 -0.8114 -0.1441
  148MOL   H28144675   3.708   0.488   0.540 -1.3040 -0.4662  0.6691
  148MOL   H28244676   3.845   0.587   0.543  0.8102  0.3245  1.7559
  148MOL   H28344677   3.751   0.564   0.696 -0.0115 -0.7179  0.0854
  148MOL   H28444678   3.637   0.538   0.148 -0.2767 -1.6145  1.4870
  148MOL   H28544679   3.572   0.709   0.170 -1.8931  0.4480  2.1404
  148MOL   H28644680   3.472   0.561   0.186 -0.3634  0.4203 -0.9407
  148MOL   C28744681   3.711   0.829   0.625  0.1337 -0.5537  0.1514
  148MOL   C28844682   3.844   0.896   0.583 -0.8382  0.5262  0.6963
  148MOL   C28944683   3.847   1.037   0.644 -0.0249 -0.4199 -0.0569
  148MOL   C29044684   3.975   0.816   0.608 -0.3907  0.8281 -0.4652
  148MOL   O29144685   3.998   0.765   0.714  0.0911 -0.3655  0.2025
  148MOL   O29244686   4.066   0.827   0.509  0.4394  0.1094  0.2160
  148MOL   C29344687   4.177   0.751   0.509 -0.4971  0.5755  0.5283
  148MOL   H29444688   3.735   0.810   0.730  3.7970  1.4483 -0.2501
  148MOL   H29544689   3.636   0.908   0.624  0.7712  0.0408 -0.6472
  148MOL   H29644690   3.937   1.095   0.624  0.0351  0.3649  2.3036
  148MOL   H29744691   3.780   1.099   0.584 -0.5781  0.6016  1.5706
  148MOL   H29844692   3.835   1.036   0.752  0.0097  0.9134 -0.0362
  148MOL   H29944693   4.154   0.646   0.492 -0.0277  0.4921  0.3992
  148MOL   H30044694   4.227   0.762   0.605  0.3322  2.3537 -0.0820
  148MOL   H30144695   4.242   0.778   0.426 -1.4591  0.5824 -0.2255
  148MOL   H30244696   3.858   0.902   0.475 -2.8004  0.4732  0.4169
  149MOL     C144697   1.831   2.133   7.445  0.2097 -0.0756  1.3821
  149MOL     C244698   1.846   2.039   7.324 -0.3965 -0.4427 -0.0970
  149MOL     C344699   1.834   1.895   7.384  0.4927 -0.0552 -0.1571
  149MOL     C444700   1.723   2.057   7.234  0.1578  0.0611  0.5942
  149MOL     O544701   1.729   2.054   7.107  0.1598  0.4363  0.9212
  149MOL     O644702   1.608   2.075   7.308  0.1783 -0.7329  0.3863
  149MOL     C744703   1.478   2.067   7.248  0.1507  0.3442  0.0360
  149MOL     H844704   1.815   2.234   7.409 -0.2647  0.3355  2.7386
  149MOL     H944705   1.752   2.095   7.509  0.6882 -2.0673  0.8341
  149MOL    H1044706   1.899   1.878   7.469 -0.9652 -1.2209  0.7517
  149MOL    H1144707   1.736   1.859   7.414  1.4319 -3.0835 -0.5196
  149MOL    H1244708   1.857   1.831   7.298 -0.2810 -0.9385  0.2880
  149MOL    H1344709   1.410   2.086   7.331 -0.1716  0.2741 -0.2127
  149MOL    H1444710   1.474   1.963   7.215  2.8347 -0.2582  1.4326
  149MOL    H1544711   1.474   2.135   7.163 -1.0280 -0.5542 -0.6335
  149MOL    H1644712   1.913   2.136   7.517  0.5480 -0.7755  1.0398
  149MOL    C1744713   1.988   2.044   7.254  0.9570  0.4141  0.0873
  149MOL    C1844714   2.068   2.184   7.238 -0.5719  0.4572  0.4793
  149MOL    C1944715   1.981   2.294   7.159  0.2176  0.4793 -0.5017
  149MOL    C2044716   2.120   2.235   7.375 -0.1108  0.3716  0.1518
  149MOL    O2144717   2.100   2.348   7.419 -0.6231 -0.1872 -0.0426
  149MOL    O2244718   2.190   2.148   7.442 -0.5918 -0.2309  0.1929
  149MOL    C2344719   2.256   2.184   7.567 -0.2299 -0.1936  0.7045
  149MOL    H2444720   1.964   1.996   7.159 -0.2652  1.2415 -0.0416
  149MOL    H2544721   2.056   1.968   7.292 -2.0367 -2.8978 -0.9810
  149MOL    H2644722   1.883   2.307   7.204 -0.5829 -1.1664 -1.7524
  149MOL    H2744723   2.024   2.394   7.160  0.3062  0.4427  0.4242
  149MOL    H2844724   1.970   2.267   7.054 -0.7852 -0.0556 -0.2643
  149MOL    H2944725   2.185   2.232   7.633 -3.0674 -0.4639 -2.0311
  149MOL    H3044726   2.332   2.261   7.550  0.1246 -0.4466  1.1329
  149MOL    H3144727   2.312   2.097   7.601  2.1421  1.6317  1.5874
  149MOL    C3244728   2.184   2.145   7.134 -0.3775 -0.1149  0.0715
  149MOL    C3344729   2.314   2.233   7.103 -0.1291 -0.0192  0.2027
  149MOL    C3444730   2.271   2.371   7.060  0.4132 -0.6021  0.5129
  149MOL    C3544731   2.417   2.244   7.217  0.1130  0.2069 -0.0050
  149MOL    O3644732   2.472   2.351   7.251 -0.3264 -0.7145  0.4279
  149MOL    O3744733   2.452   2.123   7.269  0.2475  0.4519  0.0129
  149MOL    C3844734   2.546   2.121   7.372 -0.4445 -0.0025  0.4561
  149MOL    H3944735   2.131   2.122   7.042 -1.9313 -1.6987  1.3363
  149MOL    H4044736   2.215   2.045   7.163  0.0612 -0.7014 -2.3099
  149MOL    H4144737   2.340   2.424   6.995 -1.9940  0.7840 -0.9950
  149MOL    H4244738   2.185   2.371   6.994 -0.9175 -0.4945  2.1984
  149MOL    H4344739   2.251   2.429   7.150 -0.9549 -0.3510  0.0566
  149MOL    H4444740   2.538   2.030   7.431  1.6832 -0.8298 -0.4805
  149MOL    H4544741   2.540   2.207   7.439  0.1318  0.5436 -0.1784
  149MOL    H4644742   2.642   2.128   7.322 -0.6402  2.0433  0.3222
  149MOL    C4744743   2.377   2.149   6.977  0.1295 -0.0331  0.1858
  149MOL    C4844744   2.525   2.170   6.919  0.7131 -0.0998 -0.1583
  149MOL    C4944745   2.555   2.318   6.892 -0.0869 -0.4088 -0.2156
  149MOL    C5044746   2.627   2.115   7.019 -0.2450  1.2583  0.3867
  149MOL    O5144747   2.720   2.177   7.062 -0.2802  0.0922  0.4495
  149MOL    O5244748   2.609   1.982   7.052 -0.2032  0.1260 -0.5404
  149MOL    C5344749   2.690   1.917   7.142  0.2984 -0.1631  1.0770
  149MOL    H5444750   2.297   2.159   6.903 -1.3034 -0.9359  1.5825
  149MOL    H5544751   2.364   2.044   7.002 -2.1590  0.4807  1.3260
  149MOL    H5644752   2.547   2.389   6.975 -0.6879 -0.3073 -0.3566
  149MOL    H5744753   2.646   2.342   6.837 -0.4910 -1.4648 -1.3559
  149MOL    H5844754   2.474   2.361   6.833  1.9396  0.5929 -2.3407
  149MOL    H5944755   2.642   1.832   7.190 -1.2675 -0.4001 -0.8865
  149MOL    H6044756   2.707   1.996   7.216  0.8360 -0.2076  1.0011
  149MOL    H6144757   2.786   1.899   7.093 -1.8948 -2.0532 -2.7037
  149MOL    C6244758   2.521   2.088   6.785  0.3100  0.0912 -0.6574
  149MOL    C6344759   2.649   2.036   6.702  0.3378 -0.3338  0.4158
  149MOL    C6444760   2.592   1.997   6.557 -0.1885  0.1983  0.9169
  149MOL    C6544761   2.746   2.149   6.674 -0.2290 -0.2877 -0.1811
  149MOL    O6644762   2.856   2.151   6.728  0.4812  0.0826 -0.0698
  149MOL    O6744763   2.696   2.251   6.603 -0.5676  0.1433  0.1431
  149MOL    C6844764   2.786   2.351   6.565  0.6133  0.5220 -0.2306
  149MOL    H6944765   2.455   2.137   6.714  0.7198 -2.5329 -2.9002
  149MOL    H7044766   2.472   1.994   6.811 -0.1038  0.7510  1.0671
  149MOL    H7144767   2.533   1.906   6.571  1.4983 -0.3397  5.5831
  149MOL    H7244768   2.533   2.084   6.529 -0.2401 -0.1274 -0.0089
  149MOL    H7344769   2.669   1.987   6.480 -0.6234 -2.4689  0.7639
  149MOL    H7444770   2.868   2.310   6.506  0.4053  0.6637 -0.6175
  149MOL    H7544771   2.841   2.409   6.639 -0.0154  1.6680 -0.6418
  149MOL    H7644772   2.718   2.419   6.513  0.5372  0.6265  0.0043
  149MOL    C7744773   2.721   1.914   6.764 -0.4334 -0.1157  0.1577
  149MOL    C7844774   2.816   1.805   6.696  0.2217  0.5807  0.0106
  149MOL    C7944775   2.721   1.693   6.646  0.6350 -0.2159 -0.1547
  149MOL    C8044776   2.911   1.856   6.583 -0.0790  0.0849  0.4076
  149MOL    O8144777   2.897   1.822   6.463  0.3423  0.1225  0.6021
  149MOL    O8244778   3.015   1.944   6.624  0.3858  0.5290  0.2400
  149MOL    C8344779   3.104   2.000   6.529 -0.0754 -0.8102  0.5524
  149MOL    H8444780   2.648   1.853   6.817  0.0992 -2.2142 -1.4261
  149MOL    H8544781   2.768   1.959   6.851  0.3767 -1.7259  0.5765
  149MOL    H8644782   2.648   1.732   6.575  0.1870 -1.3528 -0.3339
  149MOL    H8744783   2.776   1.629   6.577  1.1931  1.4574 -1.2927
  149MOL    H8844784   2.665   1.634   6.718 -0.2774 -0.3393 -0.9451
  149MOL    H8944785   3.065   2.085   6.473 -1.1117 -0.5329  1.6950
  149MOL    H9044786   3.130   1.915   6.466 -0.7667  0.6816 -1.8268
  149MOL    H9144787   3.196   2.037   6.576  0.8218 -3.0987  0.6705
  149MOL    C9244788   2.916   1.748   6.812 -0.0020 -0.1743  0.0858
  149MOL    C9344789   3.030   1.633   6.805 -0.3000  0.2551 -0.0532
  149MOL    C9444790   2.986   1.518   6.716 -0.0059  0.3171  0.0222
  149MOL    C9544791   3.159   1.700   6.749  0.3521  0.0006 -0.9586
  149MOL    O9644792   3.207   1.664   6.642 -0.1671 -0.0356  0.4783
  149MOL    O9744793   3.213   1.787   6.830  0.0255 -0.3263  0.0565
  149MOL    C9844794   3.337   1.851   6.800  0.5316  0.2020  0.0732
  149MOL    H9944795   2.841   1.709   6.881  0.0273 -0.9106 -0.2946
  149MOL   H10044796   2.958   1.838   6.856 -0.5401  0.0501  0.1419
  149MOL   H10144797   3.056   1.435   6.703 -0.2476  0.4474 -2.4116
  149MOL   H10244798   2.900   1.461   6.752 -0.6801  1.1556 -0.2578
  149MOL   H10344799   2.979   1.551   6.613  3.1712  2.8744  0.5454
  149MOL   H10444800   3.310   1.946   6.754  0.3154 -0.3583 -0.9755
  149MOL   H10544801   3.406   1.801   6.732  2.3045  2.5307  0.1107
  149MOL   H10644802   3.395   1.876   6.889  0.0811  1.6573 -0.0396
  149MOL   C10744803   3.055   1.587   6.955 -0.1020  1.0861 -0.1572
  149MOL   C10844804   3.116   1.446   6.992  0.2275 -0.2678  0.3750
  149MOL   C10944805   3.013   1.335   6.967 -0.6530  0.1519 -0.9010
  149MOL   C11044806   3.246   1.406   6.915 -0.3942 -0.5393 -0.0685
  149MOL   O11144807   3.317   1.487   6.861  0.2479  0.2016 -0.1141
  149MOL   O11244808   3.277   1.279   6.925  0.1737 -0.0818  0.2044
  149MOL   C11344809   3.398   1.232   6.866  0.2722 -0.0507  0.2060
  149MOL   H11444810   2.959   1.595   7.006 -0.4025  2.4523 -0.9024
  149MOL   H11544811   3.121   1.657   7.004  0.2924  0.9656 -0.5139
  149MOL   H11644812   3.036   1.247   7.028  2.4430  1.4056 -0.1219
  149MOL   H11744813   2.910   1.367   6.982 -0.4273  0.3870  0.2206
  149MOL   H11844814   3.025   1.289   6.869 -1.3828  0.6149 -1.2046
  149MOL   H11944815   3.396   1.170   6.777  1.2110 -1.7008  1.3185
  149MOL   H12044816   3.430   1.162   6.943 -0.4031  1.6175  2.0781
  149MOL   H12144817   3.471   1.313   6.862 -1.9730  1.9785 -1.3976
  149MOL   C12244818   3.138   1.434   7.149 -0.5862 -0.0263 -0.1106
  149MOL   C12344819   3.222   1.538   7.239  0.0398 -0.6169 -0.1121
  149MOL   C12444820   3.157   1.675   7.260  0.1069 -0.3945  0.3582
  149MOL   C12544821   3.218   1.463   7.373 -0.5337  0.0371  0.1892
  149MOL   O12644822   3.143   1.497   7.463  0.5317  0.9628  0.6254
  149MOL   O12744823   3.289   1.346   7.376  0.7920 -0.3734  0.6231
  149MOL   C12844824   3.264   1.265   7.494  0.5061 -0.4595 -0.3491
  149MOL   H12944825   3.176   1.333   7.166 -0.4317 -0.0278 -0.4601
  149MOL   H13044826   3.036   1.435   7.185 -0.4383  0.1690  0.3055
  149MOL   H13144827   3.049   1.666   7.276 -0.3713  2.6105 -0.8702
  149MOL   H13244828   3.192   1.734   7.345 -0.1599 -1.5268  1.2653
  149MOL   H13344829   3.163   1.738   7.172 -1.0913 -1.9215 -0.8561
  149MOL   H13444830   3.286   1.315   7.589  0.9000  0.7278 -1.0506
  149MOL   H13544831   3.315   1.169   7.499  0.9558 -0.1565  1.5179
  149MOL   H13644832   3.158   1.240   7.495  0.5013 -0.4364 -0.2219
  149MOL   C13744833   3.364   1.550   7.176 -0.3135  0.0222  0.5347
  149MOL   C13844834   3.494   1.602   7.250  0.0799 -0.2690 -0.2866
  149MOL   C13944835   3.466   1.736   7.319  0.0816 -0.3626 -0.3868
  149MOL   C14044836   3.552   1.493   7.344  0.4948 -0.5937  0.4879
  149MOL   O14144837   3.586   1.512   7.459 -0.0768 -0.5215  0.0236
  149MOL   O14244838   3.559   1.375   7.282 -0.5281 -0.3156 -0.4511
  149MOL   C14344839   3.619   1.263   7.346 -0.4674 -0.7238  0.0195
  149MOL   H14444840   3.338   1.616   7.094  1.5080  1.6202  1.2108
  149MOL   H14544841   3.401   1.463   7.123  1.7451  1.2770 -0.1365
  149MOL   H14644842   3.413   1.805   7.253  0.9589  3.0909  2.3715
  149MOL   H14744843   3.400   1.717   7.404 -1.1264  0.4977 -1.1177
  149MOL   H14844844   3.553   1.783   7.365 -0.7320  1.3091 -0.4834
  149MOL   H14944845   3.626   1.190   7.266  2.5219 -1.0128  0.4672
  149MOL   H15044846   3.569   1.224   7.435 -0.8588  0.2228  0.2237
  149MOL   H15144847   3.725   1.273   7.371 -0.8673 -0.1719  1.5937
  149MOL   C15244848   3.597   1.647   7.138 -0.5841  0.2006 -0.5129
  149MOL   C15344849   3.754   1.653   7.156  0.8993 -0.3529 -0.6004
  149MOL   C15444850   3.800   1.731   7.281  0.7829  0.0607 -0.0201
  149MOL   C15544851   3.812   1.505   7.166 -0.0019  0.0114 -0.4327
  149MOL   O15644852   3.871   1.462   7.269 -1.2140 -0.0642  0.2172
  149MOL   O15744853   3.782   1.424   7.062  0.5552  0.1685  0.0680
  149MOL   C15844854   3.834   1.290   7.059  0.0483  0.5993 -0.0111
  149MOL   H15944855   3.568   1.746   7.102  0.0021  0.1578 -1.1156
  149MOL   H16044856   3.581   1.582   7.052  0.0988  0.7498 -1.0700
  149MOL   H16144857   3.767   1.835   7.284 -0.8366 -0.4258 -0.2871
  149MOL   H16244858   3.766   1.684   7.373 -2.5003 -0.5676 -1.4698
  149MOL   H16344859   3.909   1.738   7.283  0.7693 -0.0027  1.1431
  149MOL   H16444860   3.885   1.269   7.153 -0.3336  1.6230  0.4320
  149MOL   H16544861   3.906   1.296   6.977 -0.7138  0.2267 -0.7141
  149MOL   H16644862   3.747   1.228   7.038 -0.4356  1.2439  0.0666
  149MOL   C16744863   3.808   1.726   7.024 -0.6493 -0.1349 -0.4617
  149MOL   C16844864   3.960   1.762   6.981 -0.5529 -0.0627  0.4519
  149MOL   C16944865   3.988   1.904   7.039  0.0020  0.6393 -0.1056
  149MOL   C17044866   4.058   1.656   7.037  0.3560 -0.0108  0.5253
  149MOL   O17144867   4.077   1.550   6.971  0.1951 -0.7290  0.0180
  149MOL   O17244868   4.117   1.693   7.153  0.2962  0.4037 -0.0072
  149MOL   C17344869   4.205   1.590   7.214  0.3500  0.3948  0.6633
  149MOL   H17444870   3.748   1.817   7.024 -1.2699 -0.5344 -2.0806
  149MOL   H17544871   3.765   1.665   6.945  1.0421 -0.1259 -1.4089
  149MOL   H17644872   4.077   1.953   6.998  0.7533 -3.9767 -4.5054
  149MOL   H17744873   3.912   1.976   7.010 -0.1292  0.1709 -0.9378
  149MOL   H17844874   3.993   1.899   7.147 -0.4695 -1.0288 -0.1416
  149MOL   H17944875   4.311   1.613   7.223  0.2434  0.8283  0.8272
  149MOL   H18044876   4.208   1.498   7.154  2.3156  1.1663 -0.4752
  149MOL   H18144877   4.157   1.565   7.308 -1.4110 -0.9374 -0.5517
  149MOL   C18244878   3.963   1.755   6.820 -0.0982  0.1128 -0.7315
  149MOL   C18344879   4.073   1.831   6.730  0.3263 -0.2775  0.6840
  149MOL   C18444880   4.051   1.763   6.593  1.1613  0.0322 -0.2828
  149MOL   C18544881   4.033   1.980   6.708  0.0466  0.5094 -0.6469
  149MOL   O18644882   4.098   2.073   6.748 -0.0458  0.3617  0.3003
  149MOL   O18744883   3.916   1.993   6.648  0.0783 -0.8407 -0.4310
  149MOL   C18844884   3.876   2.116   6.591 -0.7223  0.2878  0.6701
  149MOL   H18944885   3.872   1.794   6.773  0.2821  3.1344  0.8979
  149MOL   H19044886   3.954   1.649   6.796  1.6519 -0.6408  1.7648
  149MOL   H19144887   3.949   1.762   6.554  1.6518  0.1134 -1.5999
  149MOL   H19244888   4.094   1.813   6.506  0.3371  0.4788 -0.4446
  149MOL   H19344889   4.100   1.666   6.605  1.3250  0.1423 -0.0635
  149MOL   H19444890   3.906   2.202   6.651 -0.1543  0.1466  0.5859
  149MOL   H19544891   3.767   2.113   6.602 -0.6653 -1.3183  0.8446
  149MOL   H19644892   3.902   2.139   6.488 -0.9333 -0.8447  0.3545
  149MOL   C19744893   4.215   1.811   6.790 -0.0583 -0.1811 -0.4911
  149MOL   C19844894   4.354   1.844   6.719 -0.5311  0.7416 -0.1580
  149MOL   C19944895   4.409   1.722   6.638  0.4425 -0.3814 -0.1184
  149MOL   C20044896   4.349   1.958   6.612  0.2365 -0.4566  0.5207
  149MOL   O20144897   4.405   2.068   6.632  0.0053 -0.3149  0.8257
  149MOL   O20244898   4.282   1.934   6.495 -0.2970  0.3555  0.1221
  149MOL   C20344899   4.290   2.017   6.389 -0.0381  0.0462 -0.4513
  149MOL   H20444900   4.219   1.704   6.813 -1.6319 -0.0075  0.6259
  149MOL   H20544901   4.220   1.871   6.881  0.7892  1.1141 -1.3732
  149MOL   H20644902   4.431   1.630   6.694 -1.8284 -0.2234  1.0721
  149MOL   H20744903   4.337   1.685   6.565 -0.0605  0.8260 -0.2440
  149MOL   H20844904   4.503   1.739   6.585 -0.8934  1.4137 -1.9804
  149MOL   H20944905   4.205   1.995   6.324  2.4694 -1.6040 -3.2791
  149MOL   H21044906   4.383   1.999   6.335  1.1215  0.4758  1.3713
  149MOL   H21144907   4.284   2.123   6.414 -2.6439 -0.1005 -0.2587
  149MOL   C21244908   4.462   1.895   6.827 -0.1921 -0.5774 -0.0785
  149MOL   C21344909   4.517   1.818   6.949  0.2881  0.0403  0.0390
  149MOL   C21444910   4.413   1.782   7.055 -0.7750  0.4670  1.0906
  149MOL   C21544911   4.595   1.689   6.906  0.2400  0.6403 -0.3709
  149MOL   O21644912   4.649   1.683   6.793  0.3207  0.4180  0.7569
  149MOL   O21744913   4.606   1.583   6.991 -0.2295  0.9291  0.5488
  149MOL   C21844914   4.653   1.459   6.936  0.3369 -0.0808  0.5252
  149MOL   H21944915   4.421   1.989   6.865 -1.9283 -0.8201 -1.2882
  149MOL   H22044916   4.551   1.922   6.770  0.3259 -0.4226  0.7888
  149MOL   H22144917   4.350   1.706   7.007  0.8364  0.2328 -0.7154
  149MOL   H22244918   4.453   1.738   7.146  1.1861  1.5317  0.7664
  149MOL   H22344919   4.340   1.860   7.076 -0.1310  0.8077  2.0732
  149MOL   H22444920   4.648   1.381   7.012  1.5198  0.0339  0.7306
  149MOL   H22544921   4.758   1.461   6.905  0.2806 -0.9066  0.2578
  149MOL   H22644922   4.590   1.437   6.850  0.5410 -1.9600  0.8311
  149MOL   C22744923   4.623   1.909   7.038  0.8020 -0.1744  0.6247
  149MOL   C22844924   4.734   2.009   6.979  0.0037 -0.2309 -0.1744
  149MOL   C22944925   4.821   1.933   6.881 -0.1650  0.6244 -0.4346
  149MOL   C23044926   4.668   2.124   6.894  0.0417  0.7609 -0.1532
  149MOL   O23144927   4.708   2.141   6.780 -0.4649 -0.1942  0.3807
  149MOL   O23244928   4.580   2.208   6.958 -0.6209 -0.2566 -0.2404
  149MOL   C23344929   4.499   2.300   6.891 -0.3176 -0.2780 -0.9545
  149MOL   H23444930   4.672   1.839   7.106 -1.9949 -2.7408  0.0824
  149MOL   H23544931   4.561   1.979   7.094  0.7556 -1.3747  2.1049
  149MOL   H23644932   4.775   1.896   6.789  0.9047 -2.2029  0.1164
  149MOL   H23744933   4.899   1.994   6.833 -0.6694  0.7789 -1.0646
  149MOL   H23844934   4.861   1.843   6.927 -1.0526  1.5244  2.1711
  149MOL   H23944935   4.559   2.357   6.820  0.2328 -0.8111 -0.9170
  149MOL   H24044936   4.467   2.367   6.971  0.2919 -0.1265 -0.8356
  149MOL   H24144937   4.415   2.254   6.839 -1.0029  1.5913 -1.5439
  149MOL   C24244938   4.813   2.060   7.109  0.3113  0.1567  0.1044
  149MOL   C24344939   4.949   2.138   7.112  0.3543  0.5963  0.9940
  149MOL   C24444940   5.059   2.032   7.087  0.0296 -0.2259 -0.0892
  149MOL   C24544941   4.952   2.241   6.991 -0.2620  0.1879 -0.4469
  149MOL   O24644942   5.041   2.232   6.904 -0.1426  0.1150 -0.3823
  149MOL   O24744943   4.858   2.341   6.993  0.1913 -0.3928  0.2340
  149MOL   C24844944   4.864   2.432   6.882  0.5361 -0.4578 -0.4108
  149MOL   H24944945   4.830   1.977   7.178 -0.8339 -0.8026 -0.7685
  149MOL   H25044946   4.746   2.125   7.165  1.9809  3.0715 -1.1698
  149MOL   H25144947   5.037   1.942   7.145  0.3492  0.8298  1.7169
  149MOL   H25244948   5.064   2.003   6.982  0.3932 -0.9941  0.1328
  149MOL   H25344949   5.162   2.059   7.110 -0.2072  3.0981 -2.6384
  149MOL   H25444950   4.797   2.515   6.904 -1.1252 -2.6421  3.2825
  149MOL   H25544951   4.828   2.382   6.793 -0.2541 -0.5546 -0.0422
  149MOL   H25644952   4.957   2.487   6.865  0.8498 -1.1666 -0.9847
  149MOL   C25744953   4.953   2.224   7.249  0.1259  0.2338 -0.5981
  149MOL   C25844954   5.084   2.294   7.294  0.1545 -0.0791 -0.5938
  149MOL   C25944955   5.047   2.392   7.411 -0.2602 -0.1982  0.6024
  149MOL   C26044956   5.177   2.182   7.347  0.0754  0.2651 -0.6036
  149MOL   O26144957   5.280   2.147   7.293  0.1322  0.3663 -0.0434
  149MOL   O26244958   5.120   2.119   7.456 -0.0643 -0.3634 -0.1515
  149MOL   C26344959   5.179   2.007   7.513 -0.4717 -0.1046 -0.2176
  149MOL   H26444960   4.919   2.157   7.328 -0.4080 -1.4277 -2.1869
  149MOL   H26544961   4.882   2.306   7.236  1.2051  1.1698 -0.6347
  149MOL   H26644962   4.986   2.348   7.490 -0.2633 -0.3315  0.5247
  149MOL   H26744963   5.132   2.443   7.457 -2.0790  2.6895  0.9342
  149MOL   H26844964   4.989   2.473   7.366  0.8708 -0.4847 -1.4329
  149MOL   H26944965   5.274   1.978   7.467 -0.9576 -1.2300 -0.5364
  149MOL   H27044966   5.117   1.917   7.513 -0.0061 -0.4332  1.0022
  149MOL   H27144967   5.211   2.032   7.614  2.5018  1.8334 -1.5701
  149MOL   C27244968   5.155   2.390   7.177 -0.0395  0.1457  0.8342
  149MOL   C27344969   5.267   2.496   7.189  0.3313 -0.0112  0.0065
  149MOL   C27444970   5.300   2.541   7.037  0.3638 -0.0754 -0.1336
  149MOL   C27544971   5.221   2.623   7.274  0.3208 -0.3184  0.1879
  149MOL   O27644972   5.278   2.664   7.372 -0.0227  0.1925  0.3330
  149MOL   O27744973   5.117   2.680   7.220  0.0891  0.3261 -0.2761
  149MOL   C27844974   5.053   2.786   7.282  0.4959 -0.6245  0.6021
  149MOL   H27944975   5.071   2.446   7.137  0.4104  0.5095  0.3971
  149MOL   H28044976   5.189   2.325   7.096 -0.2915 -0.2048  1.0047
  149MOL   H28144977   5.353   2.455   6.998  0.0839 -0.1820 -0.2816
  149MOL   H28244978   5.218   2.578   6.976  1.7220  2.3614 -0.5343
  149MOL   H28344979   5.362   2.631   7.039 -1.3825  1.1698 -0.2809
  149MOL   H28444980   5.118   2.867   7.315 -0.5266  0.2626  0.4454
  149MOL   H28544981   4.997   2.747   7.367 -1.2900  0.7508  0.0871
  149MOL   H28644982   4.995   2.823   7.197 -2.1359 -1.8428  1.8377
  149MOL   C28744983   5.395   2.435   7.260  0.3762  0.2063 -0.5018
  149MOL   C28844984   5.521   2.519   7.260 -0.1137 -0.4169  0.1898
  149MOL   C28944985   5.584   2.535   7.400 -0.7034  0.8263 -0.0923
  149MOL   C29044986   5.621   2.487   7.147  0.7156  0.1895 -0.3873
  149MOL   O29144987   5.664   2.571   7.071  0.3596 -0.6031  0.4461
  149MOL   O29244988   5.657   2.361   7.147 -0.4773 -0.8125  0.5902
  149MOL   C29344989   5.750   2.316   7.055 -0.9654  0.0893 -0.4304
  149MOL   H29444990   5.418   2.341   7.210 -0.2283  0.1368 -0.6599
  149MOL   H29544991   5.375   2.398   7.360 -1.0060  2.5890  0.1563
  149MOL   H29644992   5.510   2.511   7.476  0.4437 -0.6835  0.5692
  149MOL   H29744993   5.677   2.481   7.419 -2.0274 -0.5877  2.5638
  149MOL   H29844994   5.601   2.641   7.416 -1.7011  0.8641  0.7740
  149MOL   H29944995   5.849   2.362   7.063 -1.2134  0.7454 -1.0160
  149MOL   H30044996   5.711   2.343   6.957 -1.3885  0.3848 -0.1808
  149MOL   H30144997   5.766   2.208   7.060 -0.7978  0.1896  1.4053
  149MOL   H30244998   5.493   2.623   7.248  1.3337  0.4111  3.5065
  150MOL     C144999   2.264   6.107   6.837 -0.3145 -0.1084  0.3896
  150MOL     C245000   2.203   6.241   6.793 -0.9489  0.4453  0.5388
  150MOL     C345001   2.176   6.208   6.642  0.5389 -0.4411 -0.4188
  150MOL     C445002   2.067   6.269   6.868 -0.0265  1.0025  0.5366
  150MOL     O545003   2.039   6.209   6.972  0.8206 -0.3405 -0.3756
  150MOL     O645004   1.996   6.369   6.808  0.1032 -0.0966 -0.4335
  150MOL     C745005   1.876   6.423   6.865 -0.1535 -0.6576  0.3080
  150MOL     H845006   2.197   6.032   6.796  0.5313 -0.6889  0.0691
  150MOL     H945007   2.357   6.098   6.781  0.1326  1.8134  0.7675
  150MOL    H1045008   2.087   6.147   6.627 -0.7405  0.7620  1.9358
  150MOL    H1145009   2.163   6.301   6.586 -2.2869 -0.6297 -0.1272
  150MOL    H1245010   2.269   6.176   6.595  1.0440  0.1583  0.1658
  150MOL    H1345011   1.841   6.359   6.945 -0.1741  0.5144  1.2494
  150MOL    H1445012   1.817   6.412   6.774 -0.3528 -0.7277  0.4469
  150MOL    H1545013   1.869   6.530   6.886  1.4309 -0.3167 -0.8044
  150MOL    H1645014   2.274   6.084   6.943  1.2545  0.3625  0.3675
  150MOL    C1745015   2.300   6.360   6.792  0.5001 -0.5820  0.9841
  150MOL    C1845016   2.387   6.403   6.921 -0.2344 -0.4086 -0.4485
  150MOL    C1945017   2.296   6.428   7.042 -0.1749 -0.0351 -0.2624
  150MOL    C2045018   2.498   6.298   6.966 -0.0917  0.8058  0.1513
  150MOL    O2145019   2.494   6.255   7.079 -0.3068  0.2765  0.2574
  150MOL    O2245020   2.567   6.251   6.870  0.2295 -0.0764 -0.3444
  150MOL    C2345021   2.697   6.195   6.904  0.0453  0.0258 -1.0622
  150MOL    H2445022   2.237   6.449   6.780  1.2270  0.2052  2.8433
  150MOL    H2545023   2.375   6.355   6.713 -1.2816 -0.1838 -0.7660
  150MOL    H2645024   2.354   6.468   7.125 -2.1019 -0.3714  1.2870
  150MOL    H2745025   2.224   6.504   7.013  0.5134 -0.1378 -2.2909
  150MOL    H2845026   2.233   6.350   7.085 -0.3537  0.1724 -0.1415
  150MOL    H2945027   2.771   6.275   6.905 -0.4477  0.4821 -0.8856
  150MOL    H3045028   2.724   6.125   6.825 -1.1274 -1.0684 -0.5275
  150MOL    H3145029   2.677   6.139   6.996 -1.3840  2.3326  0.0960
  150MOL    C3245030   2.470   6.532   6.873 -0.1723  0.2749  0.2372
  150MOL    C3345031   2.556   6.633   6.960 -0.5928 -0.2872 -0.0289
  150MOL    C3445032   2.464   6.745   7.007 -0.5832 -0.4093 -0.0527
  150MOL    C3545033   2.620   6.563   7.085  0.6684 -0.7430 -0.0375
  150MOL    O3645034   2.572   6.575   7.203 -0.4477  0.1155 -0.1967
  150MOL    O3745035   2.727   6.488   7.058 -0.2492 -0.1946  0.6426
  150MOL    C3845036   2.799   6.428   7.160 -0.6360 -0.5182 -0.4474
  150MOL    H3945037   2.410   6.604   6.818  2.2615  0.7538 -1.8711
  150MOL    H4045038   2.540   6.486   6.804  0.3461  1.4958 -0.0595
  150MOL    H4145039   2.369   6.715   7.052  0.6027 -1.0420  2.0999
  150MOL    H4245040   2.503   6.784   7.101 -1.5681  0.4014  0.0273
  150MOL    H4345041   2.444   6.827   6.939  0.4421  1.4942  1.9096
  150MOL    H4445042   2.833   6.499   7.235  1.1506 -0.0584 -1.6419
  150MOL    H4545043   2.892   6.380   7.131  0.9177  1.5557  0.9390
  150MOL    H4645044   2.742   6.357   7.219 -1.0820 -0.9930 -1.4393
  150MOL    C4745045   2.661   6.707   6.867 -0.8622 -0.3526 -0.8561
  150MOL    C4845046   2.771   6.801   6.928 -0.9821 -0.5809 -0.3327
  150MOL    C4945047   2.723   6.895   7.042  0.1534  0.5893 -0.3241
  150MOL    C5045048   2.901   6.722   6.974  0.0882 -0.0230  0.1113
  150MOL    O5145049   2.943   6.733   7.086  0.2689 -0.4976  0.6464
  150MOL    O5245050   2.955   6.638   6.884 -0.1195  0.2361  0.2222
  150MOL    C5345051   3.051   6.539   6.914 -0.4213  0.2372  0.3445
  150MOL    H5445052   2.609   6.743   6.778 -0.5398 -0.8810 -1.2695
  150MOL    H5545053   2.717   6.624   6.823  0.5769 -0.1447  0.5343
  150MOL    H5645054   2.800   6.970   7.060  2.2840 -1.1231 -1.9995
  150MOL    H5745055   2.635   6.955   7.019 -1.0845 -1.3188 -0.6604
  150MOL    H5845056   2.704   6.854   7.141 -1.0490  0.5009 -0.5943
  150MOL    H5945057   3.110   6.573   6.999 -0.5831 -0.1521  0.6144
  150MOL    H6045058   3.122   6.531   6.832 -0.7577  1.4794 -0.0693
  150MOL    H6145059   2.996   6.445   6.927 -2.4753  1.1609 -1.4454
  150MOL    C6245060   2.793   6.901   6.803  0.2422 -0.1500 -0.3285
  150MOL    C6345061   2.920   6.994   6.781  0.5432  0.1221  0.0404
  150MOL    C6445062   2.972   7.077   6.903  0.5711  0.0930  0.0965
  150MOL    C6545063   3.029   6.901   6.719  0.2042  0.0410  0.6704
  150MOL    O6645064   3.019   6.855   6.608  0.3938  0.2462 -0.0409
  150MOL    O6745065   3.129   6.871   6.806 -0.4773 -0.4228  0.4331
  150MOL    C6845066   3.244   6.802   6.757 -0.1075  0.1559 -0.2555
  150MOL    H6945067   2.708   6.966   6.817 -0.4701 -0.5386 -2.6370
  150MOL    H7045068   2.763   6.862   6.706  1.3463  1.6860 -1.4312
  150MOL    H7145069   3.074   7.111   6.890 -0.2954  2.2517 -1.3188
  150MOL    H7245070   2.904   7.158   6.926  0.0812 -0.3539  0.2439
  150MOL    H7345071   2.997   7.013   6.987 -1.4033 -2.4867 -1.1829
  150MOL    H7445072   3.329   6.814   6.824  1.6159  0.7602 -2.5043
  150MOL    H7545073   3.277   6.842   6.661 -1.3426  1.0795 -0.3053
  150MOL    H7645074   3.230   6.694   6.747 -0.5812  0.3753 -2.2547
  150MOL    C7745075   2.873   7.099   6.665 -0.2927  0.4972  0.8646
  150MOL    C7845076   2.962   7.210   6.594 -1.2505 -0.9675 -0.1007
  150MOL    C7945077   2.877   7.341   6.598 -0.9305 -0.0538 -0.4587
  150MOL    C8045078   3.102   7.227   6.662  0.2044 -0.5415  0.2106
  150MOL    O8145079   3.117   7.328   6.734  0.1098  0.3746  0.0232
  150MOL    O8245080   3.192   7.130   6.634 -0.1147 -0.1709  0.3394
  150MOL    C8345081   3.320   7.142   6.701  0.1936 -0.6820 -0.4723
  150MOL    H8445082   2.791   7.155   6.712  0.9018  0.1613  3.4523
  150MOL    H8545083   2.822   7.046   6.585  2.8075 -1.6162  0.1904
  150MOL    H8645084   2.783   7.331   6.545 -0.5698  0.0717 -1.1312
  150MOL    H8745085   2.869   7.376   6.701 -0.4822 -0.9657 -0.1090
  150MOL    H8845086   2.925   7.421   6.541 -0.3173 -1.3860 -1.8350
  150MOL    H8945087   3.384   7.207   6.641  0.7209 -0.7784 -0.0135
  150MOL    H9045088   3.361   7.042   6.713  0.4243 -0.9105 -2.8812
  150MOL    H9145089   3.304   7.179   6.802  0.3507  1.9741 -1.3728
  150MOL    C9245090   2.979   7.165   6.441  0.3702 -0.5544  0.0859
  150MOL    C9345091   3.054   7.253   6.325 -0.1380 -0.2330  0.2749
  150MOL    C9445092   2.957   7.369   6.280 -1.5741  0.1583  0.3009
  150MOL    C9545093   3.194   7.310   6.361  0.1317  0.3717 -0.2191
  150MOL    O9645094   3.287   7.230   6.372  0.2850 -0.4901 -0.1468
  150MOL    O9745095   3.198   7.447   6.376 -0.2236  0.3648 -0.2540
  150MOL    C9845096   3.323   7.507   6.416 -0.2245  0.0813 -0.3947
  150MOL    H9945097   2.881   7.130   6.410 -0.4571 -0.4805  2.4903
  150MOL   H10045098   3.039   7.073   6.440 -1.4211 -1.7371 -0.8552
  150MOL   H10145099   2.851   7.342   6.277 -1.8407  1.2740 -0.7677
  150MOL   H10245100   2.957   7.457   6.344 -1.0229  0.8871 -0.6969
  150MOL   H10345101   2.968   7.407   6.178 -0.8195  2.0939  1.0853
  150MOL   H10445102   3.316   7.614   6.398  1.8682  0.3091  0.1109
  150MOL   H10545103   3.403   7.467   6.354  0.4346  0.6648  0.0712
  150MOL   H10645104   3.345   7.496   6.522  0.0546  0.6498 -0.3917
  150MOL   C10745105   3.085   7.146   6.207 -0.0056 -1.3769  0.8063
  150MOL   C10845106   3.105   7.183   6.055 -0.1890  0.0163 -0.0805
  150MOL   C10945107   3.171   7.064   5.986  0.5411 -0.1365  0.2754
  150MOL   C11045108   2.961   7.192   5.997 -0.4364 -0.8782  0.1678
  150MOL   O11145109   2.896   7.292   5.976 -0.0853 -0.0904 -0.0038
  150MOL   O11245110   2.899   7.069   5.979  0.5161 -0.2639  0.3727
  150MOL   C11345111   2.796   7.054   5.879  0.4796  0.3760  0.2581
  150MOL   H11445112   2.996   7.084   6.209 -2.1849  1.5634 -0.3448
  150MOL   H11545113   3.163   7.077   6.236  0.8919  0.0016  1.7674
  150MOL   H11645114   3.161   7.070   5.878  1.5659  0.4383  0.2041
  150MOL   H11745115   3.278   7.062   6.009  0.3425 -1.0135  1.2125
  150MOL   H11845116   3.129   6.970   6.023 -1.1936 -0.6284 -2.8347
  150MOL   H11945117   2.819   7.107   5.786  2.0104  1.6002  1.2997
  150MOL   H12045118   2.699   7.075   5.923  0.6468 -0.0670  0.8444
  150MOL   H12145119   2.790   6.948   5.855 -0.5479  0.2743  0.9484
  150MOL   C12245120   3.204   7.307   6.033 -0.2208  0.1165  1.0021
  150MOL   C12345121   3.256   7.378   5.896  0.3674 -0.2484 -0.0632
  150MOL   C12445122   3.137   7.405   5.806 -0.2938  0.2576  0.0780
  150MOL   C12545123   3.324   7.515   5.938 -0.0978  0.6217  0.1668
  150MOL   O12645124   3.313   7.618   5.869  0.3457  0.1912  0.3011
  150MOL   O12745125   3.402   7.510   6.047  0.2815  0.0903 -0.3695
  150MOL   C12845126   3.464   7.628   6.094  0.1444 -0.3906  0.4785
  150MOL   H12945127   3.299   7.279   6.080 -0.2284 -1.4725  0.1142
  150MOL   H13045128   3.159   7.383   6.096 -4.3262 -0.6052 -0.8814
  150MOL   H13145129   3.054   7.457   5.852 -0.8138 -1.3791  1.0183
  150MOL   H13245130   3.172   7.455   5.715 -2.4664 -0.0779 -0.9904
  150MOL   H13345131   3.105   7.306   5.773 -0.5595  0.7619 -1.2167
  150MOL   H13445132   3.506   7.622   6.195 -1.8534  1.7668  1.4830
  150MOL   H13545133   3.387   7.705   6.105  0.4551 -0.2291  1.6437
  150MOL   H13645134   3.543   7.659   6.026  0.8558 -1.8671  0.6066
  150MOL   C13745135   3.364   7.284   5.823  0.2696 -0.2110  0.0296
  150MOL   C13845136   3.458   7.318   5.699  0.4784  0.3885  0.7297
  150MOL   C13945137   3.470   7.175   5.631  0.3542 -0.2605  0.3296
  150MOL   C14045138   3.389   7.404   5.587 -0.0661 -0.1902  1.2089
  150MOL   O14145139   3.347   7.358   5.478  0.0873  0.3342 -0.6190
  150MOL   O14245140   3.397   7.533   5.609 -0.4304 -0.8168  0.4803
  150MOL   C14345141   3.339   7.630   5.518  0.1912  0.7767 -0.2944
  150MOL   H14445142   3.293   7.208   5.791  0.3594 -0.9450  1.5276
  150MOL   H14545143   3.429   7.236   5.897 -0.2240 -0.2552  0.4367
  150MOL   H14645144   3.525   7.181   5.537 -1.9823  2.1001 -0.9554
  150MOL   H14745145   3.511   7.103   5.702 -1.3214 -1.7234 -0.1645
  150MOL   H14845146   3.373   7.134   5.606  0.9296  0.3314 -3.1943
  150MOL   H14945147   3.372   7.621   5.415 -0.3028  1.7694 -0.5372
  150MOL   H15045148   3.358   7.731   5.554  1.0515  1.7412 -3.3161
  150MOL   H15145149   3.232   7.608   5.522 -0.3500  3.5806  1.8569
  150MOL   C15245150   3.593   7.385   5.751 -0.5543 -0.5246 -0.5108
  150MOL   C15345151   3.725   7.388   5.656 -0.0213 -0.2502 -0.2729
  150MOL   C15445152   3.828   7.475   5.742 -0.6258 -0.3126  0.5937
  150MOL   C15545153   3.784   7.250   5.639  0.0140  0.6165  0.2783
  150MOL   O15645154   3.777   7.184   5.533 -0.4049 -0.2142 -0.3726
  150MOL   O15745155   3.822   7.195   5.761 -0.2421 -0.1567  0.2298
  150MOL   C15845156   3.895   7.068   5.763 -0.5732  0.6622 -0.0160
  150MOL   H15945157   3.621   7.348   5.849 -0.3018  0.0275 -0.3774
  150MOL   H16045158   3.573   7.489   5.777 -0.4629 -0.5468 -0.3533
  150MOL   H16145159   3.930   7.436   5.744 -0.8094 -0.7909  0.8558
  150MOL   H16245160   3.837   7.577   5.705  0.3666 -0.6344 -0.0613
  150MOL   H16345161   3.808   7.490   5.849  2.3998  0.0068  1.1555
  150MOL   H16445162   3.951   7.031   5.676 -1.0745  0.8120 -0.4028
  150MOL   H16545163   3.813   7.001   5.784  0.0401 -0.5017 -1.2691
  150MOL   H16645164   3.964   7.079   5.846  0.4981 -0.2641 -0.7629
  150MOL   C16745165   3.696   7.444   5.513  1.0367 -0.6723 -0.7768
  150MOL   C16845166   3.804   7.501   5.417  0.1394  0.4973 -0.7903
  150MOL   C16945167   3.947   7.435   5.427 -0.5626  0.1097 -0.5688
  150MOL   C17045168   3.751   7.469   5.273  0.1798 -0.4036  0.0325
  150MOL   O17145169   3.831   7.451   5.185 -0.5698 -0.2186 -0.1806
  150MOL   O17245170   3.614   7.494   5.254  0.0493  0.2132  0.1091
  150MOL   C17345171   3.557   7.455   5.125  0.6298  0.6574  0.1922
  150MOL   H17445172   3.634   7.527   5.547  0.9156 -0.8889 -0.4630
  150MOL   H17545173   3.621   7.384   5.462 -1.9690  0.6424  1.9158
  150MOL   H17645174   3.983   7.438   5.530 -1.8141 -0.1594 -0.1032
  150MOL   H17745175   3.937   7.331   5.395 -0.2315 -0.5972  1.5446
  150MOL   H17845176   4.031   7.457   5.362  0.8690  0.0147  1.2097
  150MOL   H17945177   3.455   7.486   5.103 -0.4336 -2.6720  0.1518
  150MOL   H18045178   3.553   7.346   5.124  1.6721  0.6135  0.1885
  150MOL   H18145179   3.627   7.490   5.049  1.2072 -0.7633  0.0499
  150MOL   C18245180   3.812   7.657   5.436  0.1714 -0.4690 -0.1072
  150MOL   C18345181   3.925   7.753   5.386 -1.2095  0.3094  0.0734
  150MOL   C18445182   3.886   0.018   5.426 -0.0480  0.7013  0.2755
  150MOL   C18545183   4.053   7.718   5.465 -0.1135  0.6741 -0.7377
  150MOL   O18645184   4.151   7.686   5.408  0.0259  0.4195 -0.1177
  150MOL   O18745185   4.036   7.731   5.602 -0.2024 -0.1207  0.0762
  150MOL   C18845186   4.130   7.670   5.684 -0.4035  0.0484  0.0274
  150MOL   H18945187   3.791   7.686   5.539  0.4702  1.5070 -0.5891
  150MOL   H19045188   3.720   7.686   5.386  1.2839 -0.3872 -2.1685
  150MOL   H19145189   3.808   0.060   5.362  1.3650  0.8544 -1.3482
  150MOL   H19245190   3.863   0.024   5.533  0.6985  1.7936  0.3816
  150MOL   H19345191   3.972   0.084   5.420  1.0606 -0.7681 -0.0714
  150MOL   H19445192   4.068   7.616   5.756 -1.8743  1.5999 -0.0260
  150MOL   H19545193   4.186   7.748   5.735  1.0809  1.5687 -3.7654
  150MOL   H19645194   4.194   7.601   5.630  1.3257  0.8940  0.9669
  150MOL   C19745195   3.940   7.740   5.224 -0.2055  0.1455  0.3708
  150MOL   C19845196   4.004   7.846   5.124 -0.1302 -0.1475 -0.6898
  150MOL   C19945197   4.045   7.767   4.991  0.1524  0.2365 -0.0269
  150MOL   C20045198   3.893   0.075   5.084 -0.1845 -0.7256 -0.9982
  150MOL   O20145199   3.859   0.170   5.159 -0.2970  0.1674 -0.3958
  150MOL   O20245200   3.836   0.052   4.965 -0.0132  0.2424 -0.6206
  150MOL   C20345201   3.731   0.141   4.916  0.3259 -0.1380  0.1642
  150MOL   H20445202   3.844   7.699   5.191  1.5614 -2.9903 -1.0926
  150MOL   H20545203   3.998   7.649   5.207 -0.5626 -0.2288  1.1118
  150MOL   H20645204   4.064   7.832   4.906  0.9909 -0.6151 -0.4944
  150MOL   H20745205   4.134   7.708   5.013  0.7392  1.2306  0.2740
  150MOL   H20845206   3.966   7.698   4.962 -0.8002  0.8067  1.1367
  150MOL   H20945207   3.627   0.132   4.949  0.3472 -2.9277 -0.4375
  150MOL   H21045208   3.712   0.136   4.809  1.5506 -2.5559  0.0372
  150MOL   H21145209   3.761   0.245   4.931  2.8965 -0.9023  0.4388
  150MOL   C21245210   4.138   0.026   5.181  0.0659  0.2084 -0.2507
  150MOL   C21345211   4.216   0.154   5.126 -0.1233  0.1413  0.0713
  150MOL   C21445212   4.227   0.148   4.969  0.3059  0.6040 -0.1373
  150MOL   C21545213   4.142   0.276   5.175  0.4708  0.4405 -0.0243
  150MOL   O21645214   4.117   0.367   5.102  0.3099 -0.0712 -0.1130
  150MOL   O21745215   4.120   0.277   5.308  0.4673  0.6634  0.1699
  150MOL   C21845216   4.061   0.381   5.375  0.3824  0.0968 -0.6064
  150MOL   H21945217   4.203   7.817   5.166 -0.3120 -0.2359  0.6454
  150MOL   H22045218   4.131   0.032   5.290 -1.9469 -3.7711 -0.0592
  150MOL   H22145219   4.265   0.053   4.929  0.8716  1.3856 -1.4993
  150MOL   H22245220   4.127   0.167   4.930  0.0630 -0.8082 -0.2441
  150MOL   H22345221   4.283   0.227   4.920  1.0553  0.2041  0.0590
  150MOL   H22445222   4.140   0.425   5.436 -0.0644 -1.8494  1.4130
  150MOL   H22545223   3.983   0.335   5.435  0.8829 -3.0811 -2.3326
  150MOL   H22645224   4.030   0.465   5.312  0.6139  2.2322  2.0215
  150MOL   C22745225   4.361   0.135   5.191 -0.7464  0.1331  0.0743
  150MOL   C22845226   4.488   0.232   5.161 -0.9110 -0.1981  0.6456
  150MOL   C22945227   4.528   0.214   5.009  0.3565  0.1042 -0.4466
  150MOL   C23045228   4.452   0.379   5.184 -0.1302  0.5902  0.2475
  150MOL   O23145229   4.454   0.462   5.095  0.1484  0.2734 -0.6002
  150MOL   O23245230   4.420   0.405   5.313 -0.0330 -0.0378 -0.4095
  150MOL   C23345231   4.396   0.537   5.353  0.2720  0.5386  0.0642
  150MOL   H23445232   4.393   0.032   5.171  1.2156  0.4799  1.3081
  150MOL   H23545233   4.351   0.152   5.298 -0.9067 -0.0232  0.0836
  150MOL   H23645234   4.505   0.112   4.980 -1.0511  0.4816 -0.7094
  150MOL   H23745235   4.477   0.287   4.946  2.1995  0.5958 -1.3966
  150MOL   H23845236   4.633   0.237   4.993 -0.1869  1.5525 -1.9961
  150MOL   H23945237   4.323   0.591   5.293  1.2491 -1.1609 -2.7818
  150MOL   H24045238   4.492   0.587   5.346  0.6079 -0.0473  0.4682
  150MOL   H24145239   4.371   0.537   5.459 -2.2484  3.6974 -0.4383
  150MOL   C24245240   4.610   0.212   5.262  0.0792 -0.0697  0.4214
  150MOL   C24345241   4.664   0.061   5.287  0.0253 -0.5560 -0.3727
  150MOL   C24445242   4.791   0.080   5.371  0.1376  0.0387 -0.0658
  150MOL   C24545243   4.565   7.863   5.379  0.3949  0.3239  0.5524
  150MOL   O24645244   4.507   7.763   5.340  0.4459 -0.3738  0.1280
  150MOL   O24745245   4.545   0.043   5.499 -0.6761  0.0020  0.3878
  150MOL   C24845246   4.442   7.867   5.585  0.2921 -0.1972 -0.2663
  150MOL   H24945247   4.594   0.255   5.361 -0.3072  0.4958  0.1179
  150MOL   H25045248   4.686   0.276   5.217  0.3462 -2.0678 -2.0720
  150MOL   H25145249   4.785   0.151   5.453  2.4674 -1.0306  1.0683
  150MOL   H25245250   4.822   7.862   5.412 -0.2409  0.2993  0.8471
  150MOL   H25345251   4.878   0.123   5.320  1.0083 -0.3283  1.1026
  150MOL   H25445252   4.465   0.016   5.688  0.9845 -0.8221 -0.2541
  150MOL   H25545253   4.420   7.761   5.585 -1.2880  0.1103  0.2624
  150MOL   H25645254   4.349   0.045   5.568 -1.6656 -2.4159  2.7562
  150MOL   C25745255   4.689   7.855   5.152 -0.0990  0.0969 -0.5677
  150MOL   C25845256   4.807   7.753   5.125 -0.2660  0.8594 -0.8727
  150MOL   C25945257   4.796   7.626   5.211 -0.6118  0.1156 -0.6597
  150MOL   C26045258   4.779   7.700   4.981  0.2391  0.1894  0.2173
  150MOL   O26145259   4.703   7.760   4.909 -0.1526  0.0349  0.5735
  150MOL   O26245260   4.851   7.591   4.945 -0.7604  0.2655 -0.2103
  150MOL   C26345261   4.832   7.534   4.818 -0.2561  0.4045 -0.1628
  150MOL   H26445262   4.714   0.062   5.088  0.6969  0.9429  0.8438
  150MOL   H26545263   4.593   7.823   5.112 -0.2642 -0.2039  0.0673
  150MOL   H26645264   4.696   7.584   5.209 -1.5128  2.1600 -0.0646
  150MOL   H26745265   4.873   7.551   5.188 -1.4086 -2.2055  3.5855
  150MOL   H26845266   4.824   7.650   5.314  1.1865  1.5621 -1.4541
  150MOL   H26945267   4.725   7.525   4.798 -0.1020 -0.3976 -0.6364
  150MOL   H27045268   4.881   7.437   4.806  0.2547  0.9362 -2.6646
  150MOL   H27145269   4.871   7.595   4.737 -0.2504 -1.3956 -1.5548
  150MOL   C27245270   4.954   7.801   5.117 -0.1557  0.2252  0.3459
  150MOL   C27345271   5.022   0.024   5.012  0.8965 -0.0453 -0.2752
  150MOL   C27445272   5.165   0.057   5.060 -0.1420  0.4750  0.0516
  150MOL   C27545273   5.045   7.842   4.875 -0.0746 -0.6427 -0.6696
  150MOL   O27645274   4.986   0.011   4.772 -0.2671  0.0816  0.5013
  150MOL   O27745275   5.138   7.740   4.877 -0.4339 -0.5909  0.1903
  150MOL   C27845276   5.171   7.682   4.752  0.4873  0.4628  0.6302
  150MOL   H27945277   5.013   7.710   5.114 -0.0439  0.3329 -1.2872
  150MOL   H28045278   4.983   7.831   5.218  1.6957 -0.8715  0.1563
  150MOL   H28145279   5.219   7.846   5.093  1.0486  1.2805  0.2865
  150MOL   H28245280   5.226   0.100   4.981 -2.2242 -0.0791 -1.9333
  150MOL   H28345281   5.154   0.134   5.136  0.0592 -0.4589  1.0419
  150MOL   H28445282   5.226   7.591   4.775 -0.1149  0.0892  0.6198
  150MOL   H28545283   5.220   7.760   4.693 -0.7316 -1.2540 -2.8017
  150MOL   H28645284   5.076   7.661   4.702  1.7032 -1.1408 -1.0746
  150MOL   C28745285   4.937   0.153   5.006  0.4045 -0.0903 -0.4124
  150MOL   C28845286   4.977   0.291   4.953 -0.8679  0.0685 -0.4973
  150MOL   C28945287   4.867   0.374   4.895  0.0553  0.1688  0.1841
  150MOL   C29045288   5.049   0.375   5.066 -0.3915  0.2062  0.2987
  150MOL   O29145289   5.174   0.379   5.075 -0.0946 -0.3503 -0.1896
  150MOL   O29245290   4.958   0.430   5.147  0.0609  0.3051 -0.0733
  150MOL   C29345291   5.009   0.507   5.252 -1.2365 -0.5195 -0.0310
  150MOL   H29445292   4.884   0.175   5.099 -0.5834 -2.2543 -0.4152
  150MOL   H29545293   4.854   0.126   4.940 -0.2182 -0.0327  0.3299
  150MOL   H29645294   4.907   0.456   4.835 -1.4197  0.9946  0.2858
  150MOL   H29745295   4.822   0.318   4.814  3.2994  0.3706 -1.8177
  150MOL   H29845296   4.778   0.402   4.952 -0.1952 -0.7670  0.2645
  150MOL   H29945297   4.937   0.509   5.334 -1.9263  0.2568 -0.6376
  150MOL   H30045298   5.026   0.608   5.215 -0.7229 -0.8428 -0.6805
  150MOL   H30145299   5.101   0.458   5.284 -0.9009 -1.7436 -2.7986
  150MOL   H30245300   5.046   0.261   4.874 -0.0850  3.4174 -1.1484
  151MOL     C145301   4.458   3.091   1.792  0.0097 -0.5103  0.0809
  151MOL     C245302   4.352   2.974   1.795 -0.0723 -0.4355 -0.9459
  151MOL     C345303   4.236   3.019   1.711 -0.0313  0.6098  0.5371
  151MOL     C445304   4.426   2.863   1.715  0.3055 -0.1252 -0.0210
  151MOL     O545305   4.406   2.833   1.596  0.7089 -0.2493  0.0062
  151MOL     O645306   4.529   2.808   1.788  0.6232  0.1464 -0.1256
  151MOL     C745307   4.622   2.722   1.721 -0.0985 -0.8623 -0.5002
  151MOL     H845308   4.476   3.139   1.695 -1.1876  0.8914  0.5247
  151MOL     H945309   4.423   3.171   1.857 -0.9897  0.7214 -1.9031
  151MOL    H1045310   4.160   2.941   1.703  0.7549  0.0271 -1.4299
  151MOL    H1145311   4.187   3.110   1.748  0.4921  0.2898  2.0313
  151MOL    H1245312   4.269   3.052   1.613 -2.1847  2.0488  0.2562
  151MOL    H1345313   4.709   2.714   1.787  0.9926  0.8700 -1.6805
  151MOL    H1445314   4.653   2.754   1.621  2.1266 -0.2929  0.3358
  151MOL    H1545315   4.573   2.625   1.714 -0.0398 -1.1147  2.0919
  151MOL    H1645316   4.557   3.065   1.830  0.7139  1.5005 -0.3252
  151MOL    C1745317   4.317   2.927   1.942 -0.1019 -0.2601  0.7202
  151MOL    C1845318   4.207   2.985   2.036 -0.2976 -0.4128 -0.1108
  151MOL    C1945319   4.235   3.132   2.058  0.5887  0.2806  0.4690
  151MOL    C2045320   4.071   2.969   1.970 -0.2393  0.4101  0.1933
  151MOL    O2145321   4.001   3.067   1.940 -0.2675 -0.4454  0.0759
  151MOL    O2245322   4.040   2.841   1.952  0.5085  0.0352  0.4763
  151MOL    C2345323   3.921   2.802   1.896 -0.0449 -0.2018  0.1421
  151MOL    H2445324   4.403   2.897   2.001  0.6245 -0.8404 -0.6203
  151MOL    H2545325   4.281   2.824   1.935  0.8447 -0.5348 -0.1771
  151MOL    H2645326   4.338   3.151   2.086  0.8761 -0.3146 -0.1892
  151MOL    H2745327   4.199   3.198   1.978 -0.8806 -1.7578 -0.6071
  151MOL    H2845328   4.182   3.160   2.149  1.1218  0.5515  0.6970
  151MOL    H2945329   3.924   2.825   1.789 -0.1390 -1.1287 -0.0576
  151MOL    H3045330   3.835   2.844   1.947  0.0333  0.4843 -0.2745
  151MOL    H3145331   3.920   2.695   1.915  1.3123 -0.2272  0.1067
  151MOL    C3245332   4.206   2.903   2.177  0.3840 -0.2336 -0.5677
  151MOL    C3345333   4.095   2.894   2.285 -0.3760 -0.3632  0.7034
  151MOL    C3445334   4.025   3.029   2.296  0.3407 -0.2321  0.0540
  151MOL    C3545335   3.978   2.793   2.242 -0.0250  0.0343  0.0660
  151MOL    O3645336   3.860   2.830   2.232  0.3729 -0.1229  0.5527
  151MOL    O3745337   4.018   2.671   2.212  0.6620 -0.0464 -0.6776
  151MOL    C3845338   3.914   2.572   2.195  0.2559 -0.2143  0.0121
  151MOL    H3945339   4.292   2.941   2.232 -1.3724 -0.0009  2.1394
  151MOL    H4045340   4.237   2.799   2.165 -1.0773 -0.8401  0.7127
  151MOL    H4145341   4.078   3.111   2.345 -0.4950 -0.2801  1.0578
  151MOL    H4245342   4.001   3.070   2.198 -2.5190 -1.7439  0.0596
  151MOL    H4345343   3.936   3.031   2.359 -0.4937  0.2892 -1.1250
  151MOL    H4445344   3.868   2.588   2.097 -0.3152 -1.5094  0.0559
  151MOL    H4545345   3.837   2.578   2.273  1.1880 -0.0686  0.9275
  151MOL    H4645346   3.963   2.476   2.187 -1.3783 -1.0271 -0.4968
  151MOL    C4745347   4.164   2.862   2.422 -0.2488  0.2554  0.1869
  151MOL    C4845348   4.110   2.767   2.534 -0.0575 -0.7073  0.2213
  151MOL    C4945349   3.966   2.806   2.580 -0.4515 -0.4632 -0.3948
  151MOL    C5045350   4.130   2.623   2.486 -0.0757 -0.1525 -0.0365
  151MOL    O5145351   4.040   2.542   2.487  0.1867  0.3971  0.3668
  151MOL    O5245352   4.259   2.590   2.449 -0.1295  0.1989  0.5176
  151MOL    C5345353   4.274   2.465   2.373  0.0033 -0.4329 -0.2456
  151MOL    H5445354   4.176   2.960   2.469  0.8187  0.4782 -0.5588
  151MOL    H5545355   4.269   2.837   2.412 -0.3343  0.1034 -0.2912
  151MOL    H5645356   3.966   2.899   2.636  1.1254  0.7906 -2.3890
  151MOL    H5745357   3.904   2.802   2.490 -0.3939 -1.9376 -0.3903
  151MOL    H5845358   3.928   2.721   2.636 -1.2921  0.2803  0.1685
  151MOL    H5945359   4.190   2.453   2.305 -1.2872 -0.2652  1.2814
  151MOL    H6045360   4.280   2.380   2.442  0.5040 -0.8367 -0.7827
  151MOL    H6145361   4.372   2.461   2.325  1.2048 -0.3484  2.0753
  151MOL    C6245362   4.215   2.786   2.646  0.5185 -0.4896  0.4282
  151MOL    C6345363   4.182   2.757   2.793  0.3078 -0.6155  0.1231
  151MOL    C6445364   4.115   2.879   2.863 -0.1499 -0.0478  0.3302
  151MOL    C6545365   4.088   2.631   2.816  0.0032 -0.8650 -0.2463
  151MOL    O6645366   3.990   2.634   2.879 -0.1600  0.5495  0.4572
  151MOL    O6745367   4.134   2.519   2.754 -0.5694  0.5253  0.2973
  151MOL    C6845368   4.069   2.395   2.775 -0.7780 -0.5432  0.7518
  151MOL    H6945369   4.231   2.894   2.643  1.7452 -0.5941  2.1146
  151MOL    H7045370   4.307   2.734   2.620 -0.5350 -2.2647  0.1988
  151MOL    H7145371   4.168   2.972   2.843 -1.0050  0.0706 -1.4479
  151MOL    H7245372   4.011   2.900   2.838  0.2385  1.6190  0.0493
  151MOL    H7345373   4.107   2.859   2.970  0.2614 -1.6996  0.0711
  151MOL    H7445374   4.060   2.380   2.883 -1.8823 -1.6642  0.5096
  151MOL    H7545375   4.127   2.314   2.731 -0.9533 -0.1638 -0.1871
  151MOL    H7645376   3.973   2.396   2.724 -0.5881  0.3241  0.4103
  151MOL    C7745377   4.325   2.714   2.857  0.4585 -0.0747 -0.4223
  151MOL    C7845378   4.451   2.812   2.874  0.0874  0.1890 -1.2767
  151MOL    C7945379   4.532   2.847   2.747 -0.6610  0.2077 -0.4036
  151MOL    C8045380   4.413   2.945   2.939 -0.5281  0.2156  0.3015
  151MOL    O8145381   4.450   3.051   2.891 -0.0428 -0.0996 -0.0624
  151MOL    O8245382   4.346   2.920   3.051  0.2795  0.5928  0.5527
  151MOL    C8345383   4.299   3.029   3.132 -0.3158 -0.2698 -0.0287
  151MOL    H8445384   4.360   2.631   2.796  0.2826 -0.9076  0.5880
  151MOL    H8545385   4.301   2.665   2.952 -0.7303  0.2695 -0.5290
  151MOL    H8645386   4.522   2.767   2.673 -1.3576  0.1009 -0.1954
  151MOL    H8745387   4.506   2.941   2.696 -0.5524 -0.9976 -2.7791
  151MOL    H8845388   4.638   2.856   2.768  0.0953 -0.6457 -3.5020
  151MOL    H8945389   4.390   3.076   3.168  0.4498  1.0484 -3.5002
  151MOL    H9045390   4.251   2.983   3.219  0.2641 -1.6784 -0.4294
  151MOL    H9145391   4.240   3.103   3.079  0.0039 -0.5719 -0.8121
  151MOL    C9245392   4.546   2.735   2.979 -0.7069  0.0339  0.3530
  151MOL    C9345393   4.619   2.603   2.967  0.7772  0.2897 -0.2351
  151MOL    C9445394   4.663   2.567   3.109  0.5066  0.8907 -0.6152
  151MOL    C9545395   4.528   2.487   2.923  0.3080  0.7453 -0.1311
  151MOL    O9645396   4.451   2.425   3.000  0.2149  0.4013 -0.7198
  151MOL    O9745397   4.537   2.476   2.793  0.1381  0.1529  0.2799
  151MOL    C9845398   4.479   2.354   2.740 -0.4825  0.5587 -0.0268
  151MOL    H9945399   4.491   2.719   3.072 -0.8063  1.5683  0.5702
  151MOL   H10045400   4.629   2.803   3.001  0.5074 -1.6511  1.0621
  151MOL   H10145401   4.695   2.464   3.121  1.1564  0.6414 -4.0295
  151MOL   H10245402   4.732   2.641   3.150 -1.5938  1.3873  2.2112
  151MOL   H10345403   4.572   2.573   3.170  0.0560 -1.3412 -1.0292
  151MOL   H10445404   4.371   2.359   2.724 -0.6054 -1.0210  0.2528
  151MOL   H10545405   4.503   2.276   2.811 -1.0921  1.2254  0.9225
  151MOL   H10645406   4.519   2.311   2.648 -2.4220 -1.5151  0.0382
  151MOL   C10745407   4.748   2.614   2.878 -0.4172 -0.8555  0.1288
  151MOL   C10845408   4.857   2.508   2.844  0.3973  0.5128 -0.9018
  151MOL   C10945409   4.829   2.470   2.697  0.3095 -0.4598 -0.5213
  151MOL   C11045410   4.993   2.578   2.862  0.1488 -0.2833  0.4323
  151MOL   O11145411   5.046   2.569   2.970  0.4093 -0.3129 -0.5920
  151MOL   O11245412   5.030   2.653   2.765 -0.8879  0.3576  0.1718
  151MOL   C11345413   5.158   2.710   2.766 -0.1418  0.5048 -0.0438
  151MOL   H11445414   4.798   2.700   2.922 -1.5728  0.2138 -0.5897
  151MOL   H11545415   4.718   2.665   2.786 -0.0967  1.3581  1.2112
  151MOL   H11645416   4.770   2.544   2.643 -1.4895 -1.7796 -0.3888
  151MOL   H11745417   4.920   2.460   2.637  0.2822 -0.2744 -0.5930
  151MOL   H11845418   4.768   2.381   2.683  0.9190 -0.7713 -1.2282
  151MOL   H11945419   5.233   2.631   2.775 -2.2062 -1.5701 -0.3789
  151MOL   H12045420   5.171   2.794   2.834  0.6601  1.9327 -1.9333
  151MOL   H12145421   5.180   2.736   2.662  4.1654 -0.0782  0.6120
  151MOL   C12245422   4.857   2.379   2.932 -0.2744  0.3078 -0.5899
  151MOL   C12345423   4.941   2.241   2.914  0.1247 -0.1348  0.5127
  151MOL   C12445424   4.851   2.124   2.874 -0.6866 -0.0937  0.9235
  151MOL   C12545425   5.041   2.249   2.791  0.0070 -0.4067 -0.1571
  151MOL   O12645426   5.018   2.210   2.676 -0.2917 -0.1231 -0.3914
  151MOL   O12745427   5.149   2.313   2.827  0.0236 -0.1986 -0.2061
  151MOL   C12845428   5.238   2.345   2.720  0.7854 -0.2548  0.4898
  151MOL   H12945429   4.755   2.343   2.939  1.1903 -3.8647  0.9810
  151MOL   H13045430   4.872   2.400   3.038 -2.1566 -0.3082 -0.1899
  151MOL   H13145431   4.777   2.102   2.951 -2.1134 -2.4446 -1.0452
  151MOL   H13245432   4.778   2.159   2.801  1.6322  0.2994 -1.2727
  151MOL   H13345433   4.913   2.038   2.847 -1.0922 -0.3899  0.9414
  151MOL   H13445434   5.177   2.394   2.643  0.1550 -0.0590  1.1119
  151MOL   H13545435   5.285   2.260   2.670  0.8267  0.5528 -0.8781
  151MOL   H13645436   5.317   2.410   2.758 -1.2901  1.3480  2.1591
  151MOL   C13745437   5.030   2.221   3.046 -0.4356 -0.1515 -0.0452
  151MOL   C13845438   4.975   2.143   3.177 -0.3722  0.1032 -0.0741
  151MOL   C13945439   4.864   2.229   3.246 -0.0376 -0.3078 -0.1390
  151MOL   C14045440   4.932   1.998   3.145 -0.5151 -0.1461  0.3477
  151MOL   O14145441   5.003   1.936   3.063  0.3508 -0.0810 -0.0589
  151MOL   O14245442   4.815   1.958   3.207  0.0447 -0.3791 -0.1000
  151MOL   C14345443   4.743   1.846   3.148 -0.3669 -0.5529 -0.0928
  151MOL   H14445444   5.068   2.316   3.084 -1.1799  0.4755 -0.8429
  151MOL   H14545445   5.117   2.161   3.019 -0.3033  0.1120 -0.2192
  151MOL   H14645446   4.838   2.190   3.345  0.8953 -0.8805 -0.1137
  151MOL   H14745447   4.899   2.332   3.255  0.5685 -0.7242  2.7166
  151MOL   H14845448   4.773   2.237   3.187  0.7814  0.4485 -1.3194
  151MOL   H14945449   4.780   1.821   3.048 -0.7352  0.2179 -0.4243
  151MOL   H15045450   4.646   1.891   3.128  0.1809  0.2018 -1.0917
  151MOL   H15145451   4.733   1.756   3.208 -1.3744 -0.2327  0.2170
  151MOL   C15245452   5.104   2.134   3.274  0.2919 -0.2098  0.7859
  151MOL   C15345453   5.113   2.120   3.433 -0.3460 -0.3708 -0.2081
  151MOL   C15445454   5.084   2.261   3.505 -0.5698 -0.4354 -0.1297
  151MOL   C15545455   5.010   2.018   3.495 -0.1446  0.1527  0.3004
  151MOL   O15645456   4.909   2.053   3.559  0.3242 -0.0432 -0.0671
  151MOL   O15745457   5.040   1.893   3.459  0.1524 -0.3690  0.1766
  151MOL   C15845458   4.972   1.780   3.509 -0.3899 -0.1111  0.1381
  151MOL   H15945459   5.173   2.215   3.247 -0.1463  0.5611  1.9246
  151MOL   H16045460   5.165   2.053   3.234  2.3133  0.8605  1.5997
  151MOL   H16145461   5.087   2.264   3.614  2.5585 -0.5991 -0.1437
  151MOL   H16245462   5.139   2.346   3.464  1.3073 -1.3632  0.4002
  151MOL   H16345463   4.981   2.288   3.483 -0.5733 -1.1460 -1.0531
  151MOL   H16445464   4.867   1.789   3.483 -0.0258 -0.9793 -1.7272
  151MOL   H16545465   4.972   1.777   3.618 -1.3297  0.0879  0.1431
  151MOL   H16645466   5.010   1.688   3.464  0.9186 -0.7803  2.5021
  151MOL   C16745467   5.265   2.065   3.459  0.1220  1.1361 -0.3217
  151MOL   C16845468   5.333   2.082   3.598 -0.0458  0.0744 -0.7187
  151MOL   C16945469   5.247   2.022   3.712 -0.1597 -0.4326 -0.0340
  151MOL   C17045470   5.467   1.999   3.579  0.0469 -0.3889 -0.5124
  151MOL   O17145471   5.504   1.923   3.670  0.0711 -0.0551 -0.8090
  151MOL   O17245472   5.529   2.013   3.461 -0.7945  0.0968  0.5213
  151MOL   C17345473   5.643   1.937   3.440  0.3988 -0.2583  0.1577
  151MOL   H17445474   5.337   2.107   3.388 -0.1227  1.2762 -0.4859
  151MOL   H17545475   5.268   1.956   3.448 -0.4050  0.9309  1.4533
  151MOL   H17645476   5.284   2.034   3.814 -1.7680 -1.0816  0.6455
  151MOL   H17745477   5.150   2.073   3.716 -0.3970 -0.3134 -4.5086
  151MOL   H17845478   5.210   1.919   3.708 -1.0501 -0.1130 -0.1524
  151MOL   H17945479   5.613   1.833   3.439  1.7682 -0.6606  0.7074
  151MOL   H18045480   5.720   1.962   3.513  0.6029 -0.5109  0.0306
  151MOL   H18145481   5.675   1.973   3.342 -0.8775 -1.0537 -0.5637
  151MOL   C18245482   5.366   2.237   3.635 -0.0794  0.1396  0.3081
  151MOL   C18345483   5.502   2.282   3.706 -0.7983  0.2688  0.3178
  151MOL   C18445484   5.534   2.203   3.837  0.9212  0.4801  0.0282
  151MOL   C18545485   5.628   2.268   3.614  0.1788 -0.5877 -0.5563
  151MOL   O18645486   5.730   2.210   3.648 -0.0845  0.1994  0.1887
  151MOL   O18745487   5.612   2.330   3.498 -0.1417 -0.3315 -0.7503
  151MOL   C18845488   5.720   2.329   3.401  0.1150 -0.8476  0.4451
  151MOL   H18945489   5.284   2.258   3.704 -2.7090 -0.1985 -2.5858
  151MOL   H19045490   5.346   2.297   3.546 -0.4297  0.5005  0.6273
  151MOL   H19145491   5.435   2.175   3.875  1.2946 -2.0886 -0.7610
  151MOL   H19245492   5.600   2.118   3.823 -1.2099 -1.4160  1.0666
  151MOL   H19345493   5.572   2.272   3.911 -0.4191  1.1015  0.1658
  151MOL   H19445494   5.816   2.317   3.450  0.8057  0.5276 -0.5506
  151MOL   H19545495   5.708   2.420   3.343  1.2869 -1.1972 -0.3412
  151MOL   H19645496   5.716   2.240   3.339 -0.5421 -0.6283  0.1679
  151MOL   C19745497   5.475   2.431   3.753 -0.5354 -0.6135 -0.2860
  151MOL   C19845498   5.593   2.542   3.798 -0.5520  0.8992 -0.3667
  151MOL   C19945499   5.696   2.480   3.897 -0.8510  0.5790  0.1125
  151MOL   C20045500   5.666   2.595   3.669  0.2330 -0.6829 -0.1456
  151MOL   O20145501   5.600   2.642   3.574  0.1558  0.0452  0.4305
  151MOL   O20245502   5.797   2.591   3.675 -0.2056 -0.6962 -0.0147
  151MOL   C20345503   5.878   2.641   3.572 -0.7527 -0.2696 -0.3025
  151MOL   H20445504   5.388   2.430   3.818 -0.2953  0.0269  0.0539
  151MOL   H20545505   5.423   2.476   3.667  0.2593 -2.5286 -1.7995
  151MOL   H20645506   5.748   2.391   3.863 -0.6500 -0.5718  3.2676
  151MOL   H20745507   5.779   2.545   3.924 -0.5635  0.3691 -0.2717
  151MOL   H20845508   5.653   2.454   3.994 -2.3785  1.4175 -0.3160
  151MOL   H20945509   5.858   2.748   3.565  1.0322  0.2291  1.8918
  151MOL   H21045510   5.867   2.597   3.473  1.5041 -0.7013 -0.3936
  151MOL   H21145511   5.981   2.620   3.599 -0.2740  0.6868 -1.3256
  151MOL   C21245512   5.512   2.654   3.863  0.0753 -0.0031 -0.3460
  151MOL   C21345513   5.571   2.794   3.915  0.4779  0.5840 -0.1377
  151MOL   C21445514   5.693   2.768   4.008 -0.2359  0.6377  0.2072
  151MOL   C21545515   5.612   2.888   3.795 -0.9758  0.2309 -0.0727
  151MOL   O21645516   5.721   2.944   3.797  0.2972  0.0961 -0.1109
  151MOL   O21745517   5.523   2.898   3.704 -0.1254  0.2572 -0.3632
  151MOL   C21845518   5.545   2.987   3.592  0.1080 -0.8663 -0.5021
  151MOL   H21945519   5.460   2.606   3.945 -1.6882 -0.9035 -1.9637
  151MOL   H22045520   5.436   2.676   3.788  0.5412 -0.7549 -1.0456
  151MOL   H22145521   5.782   2.734   3.955  0.2571 -0.2193  1.5520
  151MOL   H22245522   5.715   2.862   4.060  1.2067  0.9028 -0.8594
  151MOL   H22345523   5.671   2.696   4.087  2.9593 -1.8679 -1.1085
  151MOL   H22445524   5.460   2.979   3.525 -1.2821  0.3231  1.0628
  151MOL   H22545525   5.637   2.981   3.533 -0.1598  0.5217 -1.0855
  151MOL   H22645526   5.536   3.091   3.624 -2.0978 -1.4690  0.9604
  151MOL   C22745527   5.451   2.866   3.991 -0.1070  0.7447 -0.2601
  151MOL   C22845528   5.449   3.024   4.026  0.5367 -0.0290 -1.1177
  151MOL   C22945529   5.592   3.079   4.075 -0.4040  0.1238 -0.1465
  151MOL   C23045530   5.397   3.105   3.907  0.0071 -0.1069 -0.3289
  151MOL   O23145531   5.460   3.198   3.854  0.0626  0.0515 -0.3903
  151MOL   O23245532   5.282   3.059   3.858  0.1722 -0.7569 -0.0798
  151MOL   C23345533   5.227   3.136   3.748 -0.4765  0.1964  0.4653
  151MOL   H23445534   5.432   2.827   4.091  3.3505 -1.2435 -0.3134
  151MOL   H23545535   5.360   2.843   3.935 -1.1453  2.3733  0.7462
  151MOL   H23645536   5.663   3.088   3.993 -0.2496  1.9304  0.1773
  151MOL   H23745537   5.575   3.174   4.125 -2.2351 -0.5767  0.6110
  151MOL   H23845538   5.639   3.013   4.148  3.7456  0.0674 -2.7389
  151MOL   H23945539   5.298   3.148   3.665 -1.5406 -2.0989 -0.8084
  151MOL   H24045540   5.191   3.232   3.784 -1.3365 -0.3886  1.1831
  151MOL   H24145541   5.140   3.078   3.716 -0.8382  0.7753  0.3974
  151MOL   C24245542   5.337   3.052   4.139 -0.5684  0.0979 -0.3600
  151MOL   C24345543   5.358   3.029   4.293  0.3336  0.3304  0.5018
  151MOL   C24445544   5.432   2.901   4.329 -0.4317 -0.4889 -0.5792
  151MOL   C24545545   5.440   3.151   4.356  0.4861 -0.6362  0.1109
  151MOL   O24645546   5.540   3.134   4.426 -0.3762 -0.6576 -0.1401
  151MOL   O24745547   5.391   3.271   4.327 -0.6753  0.1184  0.2657
  151MOL   C24845548   5.454   3.390   4.379 -0.2524 -0.7147 -0.1404
  151MOL   H24945549   5.250   2.995   4.108 -1.4588  1.4880 -0.4747
  151MOL   H25045550   5.294   3.150   4.118  2.4710  1.5103 -0.3124
  151MOL   H25145551   5.479   2.898   4.427 -0.5206  1.7998 -0.4477
  151MOL   H25245552   5.359   2.821   4.312 -1.0371  0.0415 -0.4543
  151MOL   H25345553   5.519   2.877   4.268 -1.1897 -3.3776 -0.6478
  151MOL   H25445554   5.562   3.396   4.365 -0.1167  0.4694  1.2239
  151MOL   H25545555   5.442   3.394   4.487  2.7070  0.7631  0.1961
  151MOL   H25645556   5.410   3.480   4.336  1.1426 -0.4587 -1.0565
  151MOL   C25745557   5.213   3.029   4.358  0.0635 -0.0071  0.4561
  151MOL   C25845558   5.178   2.985   4.505 -0.2319  0.9285 -0.4443
  151MOL   C25945559   5.159   2.830   4.508  0.2401  0.6017  0.2125
  151MOL   C26045560   5.287   3.025   4.608 -0.0186 -0.9034  0.8835
  151MOL   O26145561   5.350   2.938   4.664 -0.6403 -0.3767  0.8851
  151MOL   O26245562   5.303   3.158   4.627 -0.4835  0.3239 -0.1792
  151MOL   C26345563   5.392   3.203   4.735  0.0035 -0.3741 -0.0598
  151MOL   H26445564   5.144   2.978   4.290  0.6878 -2.8308  1.8506
  151MOL   H26545565   5.178   3.132   4.351 -0.0361 -0.1404 -1.3911
  151MOL   H26645566   5.134   2.808   4.612  0.5871  2.4678  0.7218
  151MOL   H26745567   5.083   2.805   4.435 -0.9993  0.9163  1.3744
  151MOL   H26845568   5.252   2.776   4.488 -0.8478 -0.4705 -2.0693
  151MOL   H26945569   5.349   3.300   4.762  0.8530  1.2202 -4.0333
  151MOL   H27045570   5.493   3.208   4.695 -0.1236 -1.2703 -0.5024
  151MOL   H27145571   5.392   3.139   4.823  1.0714 -1.3396 -0.7519
  151MOL   C27245572   5.038   3.053   4.534 -0.0835  0.6380 -0.2475
  151MOL   C27345573   4.920   3.006   4.633 -0.4553  0.1218  0.2995
  151MOL   C27445574   4.826   2.901   4.563 -0.8225 -1.0494 -0.2684
  151MOL   C27545575   4.972   2.959   4.773 -0.3429  0.1029 -0.7043
  151MOL   O27645576   4.972   2.835   4.806  0.3728 -0.0264  0.1441
  151MOL   O27745577   5.026   3.056   4.853 -0.3108 -0.1250  0.5355
  151MOL   C27845578   5.107   3.017   4.963  0.0322 -0.6617 -0.2518
  151MOL   H27945579   4.988   3.060   4.438  0.9446  0.5945 -0.7865
  151MOL   H28045580   5.059   3.152   4.573 -0.5374  0.3210  0.8228
  151MOL   H28145581   4.867   2.856   4.473 -1.6829 -1.6230 -0.3803
  151MOL   H28245582   4.808   2.812   4.624 -1.9033 -0.3081  0.5131
  151MOL   H28345583   4.736   2.949   4.525 -1.6722 -1.2781  1.3893
  151MOL   H28445584   5.156   3.104   5.007 -1.4459  0.1712 -0.2124
  151MOL   H28545585   5.186   2.950   4.931  2.9880  1.4215  2.3794
  151MOL   H28645586   5.044   2.968   5.038  0.1988  1.6972  1.5132
  151MOL   C28745587   4.834   3.134   4.662  0.0597 -0.8060 -0.1794
  151MOL   C28845588   4.707   3.111   4.747 -0.4169  0.4186  0.4909
  151MOL   C28945589   4.708   3.192   4.881 -0.6032 -0.2032  0.2596
  151MOL   C29045590   4.578   3.146   4.673 -0.5209  0.2437 -0.5831
  151MOL   O29145591   4.588   3.221   4.575  0.5083  0.3529 -0.2408
  151MOL   O29245592   4.468   3.099   4.728 -0.3453  0.6650 -0.0157
  151MOL   C29345593   4.349   3.121   4.647  0.3447 -0.1867  0.4499
  151MOL   H29445594   4.800   3.171   4.565 -3.5512 -1.6519  0.6917
  151MOL   H29545595   4.895   3.211   4.709 -0.2708 -0.4374 -0.3495
  151MOL   H29645596   4.782   3.149   4.948  0.7052  3.5804  1.3767
  151MOL   H29745597   4.739   3.293   4.855 -1.0435 -0.0876  0.1807
  151MOL   H29845598   4.610   3.182   4.929 -0.8026  0.9839  0.1212
  151MOL   H29945599   4.340   3.229   4.634 -2.5609 -0.5579 -0.9251
  151MOL   H30045600   4.255   3.085   4.689 -0.0295 -1.0670 -1.1280
  151MOL   H30145601   4.358   3.078   4.548 -1.4312  0.4227  0.0142
  151MOL   H30245602   4.697   3.004   4.764 -1.0100  0.3945 -0.0055
  152MOL     C145603   7.259   4.261   3.665  0.3525 -0.0365 -0.3688
  152MOL     C245604   7.286   4.410   3.634  0.1007  0.4350 -0.2520
  152MOL     C345605   7.442   4.424   3.654  0.4891 -0.7126  0.0174
  152MOL     C445606   7.236   4.438   3.497 -0.6477 -0.6038  0.7674
  152MOL     O545607   7.189   4.353   3.422 -0.2485  0.0684  0.0113
  152MOL     O645608   7.263   4.564   3.460 -0.0411  0.2111  0.0963
  152MOL     C745609   7.238   4.607   3.321  0.2210  0.6330  0.2538
  152MOL     H845610   7.314   4.196   3.597 -1.2504 -0.7111 -1.0409
  152MOL     H945611   7.293   4.227   3.763  1.3925  0.5864 -0.5126
  152MOL    H1045612   7.473   4.380   3.748 -0.1480 -0.9237  0.1329
  152MOL    H1145613   7.500   4.387   3.569 -0.1222  0.0695 -0.7644
  152MOL    H1245614   7.459   4.532   3.661  0.3691 -0.6839 -0.1200
  152MOL    H1345615   7.254   4.713   3.304  0.8020  0.5755  0.3998
  152MOL    H1445616   7.133   4.585   3.305  0.0816  0.0868  1.7659
  152MOL    H1545617   7.301   4.558   3.247  0.5033  2.0066 -0.4263
  152MOL    H1645618   7.152   4.245   3.650  0.6217 -0.4757 -1.8796
  152MOL    C1745619   7.227   4.514   3.740 -0.7689  1.3804  0.0397
  152MOL    C1845620   7.086   4.526   3.795 -0.3791  0.0500 -0.3913
  152MOL    C1945621   6.991   4.563   3.671 -0.7305  0.2589  0.2990
  152MOL    C2045622   7.032   4.389   3.853 -0.3693 -0.0294 -0.1500
  152MOL    O2145623   6.915   4.356   3.838 -0.4354 -0.2652 -0.0229
  152MOL    O2245624   7.112   4.334   3.946  0.4464 -0.0362  0.8762
  152MOL    C2345625   7.083   4.206   3.996 -0.0176 -0.3494 -0.0901
  152MOL    H2445626   7.248   4.613   3.698  1.0050  1.3384  0.7911
  152MOL    H2545627   7.300   4.509   3.820  0.5588 -1.3783 -1.2932
  152MOL    H2645628   6.958   4.478   3.611 -0.5307  0.6767 -0.4041
  152MOL    H2745629   6.905   4.617   3.710 -0.8873  0.3461 -0.1617
  152MOL    H2845630   7.055   4.624   3.607  0.6316  1.2544  2.5748
  152MOL    H2945631   6.989   4.206   4.052  0.4804 -2.2459  0.7845
  152MOL    H3045632   7.164   4.162   4.053  0.5656  0.9080  0.0725
  152MOL    H3145633   7.069   4.134   3.915  2.8974 -1.3853  0.2962
  152MOL    C3245634   7.070   4.637   3.908  0.1771 -0.3129 -0.3447
  152MOL    C3345635   7.131   4.781   3.900 -0.0098  0.0930 -0.6993
  152MOL    C3445636   7.283   4.778   3.918 -0.8178 -0.3802 -0.4515
  152MOL    C3545637   7.092   4.850   3.763  0.4635 -0.9772 -0.9262
  152MOL    O3645638   7.169   4.880   3.677  0.1902  0.5524 -0.0863
  152MOL    O3745639   6.957   4.862   3.743 -0.3408 -0.1879  0.1327
  152MOL    C3845640   6.924   4.957   3.634 -0.3119 -0.4949 -0.1755
  152MOL    H3945641   7.103   4.593   4.002  0.5287 -1.1829 -0.8629
  152MOL    H4045642   6.961   4.648   3.905  0.0914 -1.4154 -2.6845
  152MOL    H4145643   7.330   4.875   3.936 -1.1278 -0.4692  0.9040
  152MOL    H4245644   7.324   4.714   3.996 -0.5833 -1.7251 -1.6497
  152MOL    H4345645   7.337   4.751   3.827 -1.1158  0.6991 -0.9457
  152MOL    H4445646   6.824   4.997   3.643 -0.9227 -2.0056 -0.0091
  152MOL    H4545647   6.909   4.916   3.533 -0.1692 -2.2958  0.5094
  152MOL    H4645648   6.991   5.043   3.632 -2.3905  1.1355  0.0819
  152MOL    C4745649   7.065   4.863   4.019 -0.5430  0.4945 -0.8311
  152MOL    C4845650   7.064   4.834   4.172  0.1044  0.5891 -0.0877
  152MOL    C4945651   6.957   4.725   4.211 -0.4235  0.2267 -0.6798
  152MOL    C5045652   7.209   4.800   4.221  0.2261 -0.3379  0.2767
  152MOL    O5145653   7.225   4.696   4.278  0.2480  0.5090  0.2803
  152MOL    O5245654   7.300   4.893   4.209  0.1918 -0.2983 -0.0326
  152MOL    C5345655   7.432   4.882   4.272 -0.2059  0.1643  0.2975
  152MOL    H5445656   6.960   4.872   3.995 -0.9180 -1.3198  0.0846
  152MOL    H5545657   7.116   4.958   4.004  1.7289 -0.2951  1.5214
  152MOL    H5645658   6.976   4.700   4.316 -0.5085  0.7415 -0.5371
  152MOL    H5745659   6.855   4.761   4.200 -2.4766 -5.0010 -0.2764
  152MOL    H5845660   6.965   4.627   4.164  1.0222 -0.9766  1.9357
  152MOL    H5945661   7.498   4.963   4.243 -0.1289 -0.3414 -0.9642
  152MOL    H6045662   7.478   4.793   4.231  0.4111  0.1247  1.0721
  152MOL    H6145663   7.424   4.882   4.381  0.9778  4.2790  0.4677
  152MOL    C6245664   7.016   4.976   4.233 -0.4168 -0.1372  0.7070
  152MOL    C6345665   6.987   5.000   4.382  0.3231  0.3885 -1.5422
  152MOL    C6445666   7.099   4.931   4.473 -0.3257  0.6803 -0.4530
  152MOL    C6545667   6.998   5.154   4.407 -0.2790 -0.5611 -0.7086
  152MOL    O6645668   7.096   5.204   4.457  0.0579 -0.1322 -0.0257
  152MOL    O6745669   6.898   5.226   4.357 -0.0089 -0.7590  0.7790
  152MOL    C6845670   6.890   5.370   4.364  0.2043  0.4063 -0.3551
  152MOL    H6945671   6.930   5.000   4.171  1.4295  2.9710 -0.8374
  152MOL    H7045672   7.087   5.051   4.197 -1.6895  0.9766  0.4450
  152MOL    H7145673   7.201   4.950   4.438 -0.2855  0.5279 -0.4196
  152MOL    H7245674   7.091   4.963   4.577  0.0672 -0.2255 -0.1332
  152MOL    H7345675   7.080   4.824   4.460  1.2519  0.3507 -0.1565
  152MOL    H7445676   6.983   5.416   4.331  0.1110  0.6031 -0.3444
  152MOL    H7545677   6.862   5.406   4.463 -2.0421 -0.1789 -0.7382
  152MOL    H7645678   6.804   5.406   4.308 -1.2015 -1.1013  0.7900
  152MOL    C7745679   6.838   4.961   4.420 -0.2329  0.1389  0.5957
  152MOL    C7845680   6.765   4.965   4.555 -0.6083  0.2085 -0.4302
  152MOL    C7945681   6.648   4.863   4.527 -0.3621  0.7304 -0.3059
  152MOL    C8045682   6.859   4.908   4.666 -0.3272 -0.7576 -0.6872
  152MOL    O8145683   6.918   4.983   4.747  0.2301  0.3092  0.1316
  152MOL    O8245684   6.875   4.773   4.661  0.5147  0.0239 -0.2892
  152MOL    C8345685   6.966   4.710   4.747  0.0463  0.5904 -0.3842
  152MOL    H8445686   6.834   4.861   4.378 -1.0172  0.3200  0.2183
  152MOL    H8545687   6.769   5.005   4.347 -0.6304 -0.8820  0.3540
  152MOL    H8645688   6.686   4.763   4.505 -0.6014  1.0198 -2.1639
  152MOL    H8745689   6.591   4.859   4.619 -0.0607  2.4828 -0.0338
  152MOL    H8845690   6.588   4.903   4.445 -1.4252  0.3725  0.2882
  152MOL    H8945691   7.069   4.724   4.713  0.3806 -0.6362  0.0751
  152MOL    H9045692   6.941   4.606   4.767 -0.4526  0.8852  0.5104
  152MOL    H9145693   6.965   4.753   4.847  1.4423 -3.7991  1.6854
  152MOL    C9245694   6.710   5.116   4.590 -0.6078  0.4524  0.0540
  152MOL    C9345695   6.593   5.161   4.688 -0.3039  0.3537  0.2588
  152MOL    C9445696   6.460   5.114   4.621  0.4533  0.0570 -0.0171
  152MOL    C9545697   6.615   5.092   4.830  0.1684  0.5056  0.5753
  152MOL    O9645698   6.538   5.006   4.883 -0.9710 -1.0855 -0.3233
  152MOL    O9745699   6.727   5.135   4.897  0.4606  0.1945 -0.5832
  152MOL    C9845700   6.764   5.080   5.027 -0.8203 -0.2146 -0.6125
  152MOL    H9945701   6.685   5.175   4.502 -1.2300  1.6715  1.0418
  152MOL   H10045702   6.798   5.166   4.630  0.5628 -0.8574 -0.8111
  152MOL   H10145703   6.449   5.005   4.611  0.9691  0.3165 -4.5028
  152MOL   H10245704   6.383   5.149   4.690 -0.2559 -0.7509 -0.3845
  152MOL   H10345705   6.446   5.142   4.517 -0.0704  2.5767  0.7062
  152MOL   H10445706   6.691   5.094   5.107  0.5907 -1.8415  1.0182
  152MOL   H10545707   6.859   5.130   5.052 -0.8190 -1.0975  1.2417
  152MOL   H10645708   6.776   4.972   5.018 -2.0779 -0.3590 -0.6366
  152MOL   C10745709   6.611   5.318   4.713  0.5971  0.6848 -0.1362
  152MOL   C10845710   6.492   5.408   4.765  0.2235 -0.2854 -0.9032
  152MOL   C10945711   6.393   5.437   4.648 -0.0232 -0.1843  0.2598
  152MOL   C11045712   6.423   5.342   4.886 -0.3766  0.4822 -0.4951
  152MOL   O11145713   6.303   5.315   4.876 -0.3950  0.2146  0.1587
  152MOL   O11245714   6.502   5.327   4.989  0.2545  0.0767  0.0635
  152MOL   C11345715   6.442   5.298   5.116  0.0387 -0.2962 -0.3078
  152MOL   H11445716   6.663   5.369   4.631  0.8971  0.3476 -0.1544
  152MOL   H11545717   6.693   5.336   4.782  0.6922 -1.9778  0.4842
  152MOL   H11645718   6.289   5.447   4.679  0.5559  2.2862  1.5372
  152MOL   H11745719   6.423   5.530   4.598 -1.5634  1.0574  1.5955
  152MOL   H11845720   6.400   5.357   4.575 -2.7613  0.2846 -0.5563
  152MOL   H11945721   6.351   5.238   5.113 -0.2317 -0.1151  2.5658
  152MOL   H12045722   6.412   5.392   5.161 -0.0194 -0.1837 -0.5859
  152MOL   H12145723   6.515   5.256   5.185  0.2688  0.7440  0.0911
  152MOL   C12245724   6.561   5.549   4.802  0.5489  0.2885 -0.4156
  152MOL   C12345725   6.492   5.661   4.880  0.9407 -0.0067 -0.5783
  152MOL   C12445726   6.344   5.687   4.837 -0.1128 -0.4815  0.3551
  152MOL   C12545727   6.504   5.648   5.029  0.3880 -0.3241 -0.1375
  152MOL   O12645728   6.593   5.581   5.081 -0.3744  0.3603  0.1988
  152MOL   O12745729   6.409   5.712   5.095 -0.3995  0.1961  0.0073
  152MOL   C12845730   6.408   5.722   5.243 -1.0228 -0.4444 -0.2561
  152MOL   H12945731   6.591   5.586   4.704 -0.6369  0.9206 -0.5452
  152MOL   H13045732   6.653   5.522   4.854 -1.2028 -2.1909  1.5322
  152MOL   H13145733   6.337   5.700   4.729 -1.2571  1.5802  0.6428
  152MOL   H13245734   6.279   5.605   4.868 -2.1936  1.0923  0.2966
  152MOL   H13345735   6.302   5.777   4.883 -0.9107 -1.0830  0.8148
  152MOL   H13445736   6.440   5.630   5.293  1.2915  1.1812  1.3405
  152MOL   H13545737   6.303   5.738   5.269 -1.2245 -2.0180 -0.0390
  152MOL   H13645738   6.453   5.812   5.283 -0.5971  0.8442 -3.5033
  152MOL   C13745739   6.563   5.795   4.844  0.2515 -0.5048  0.5320
  152MOL   C13845740   6.709   5.835   4.893  0.1266 -0.3996  0.1760
  152MOL   C13945741   6.708   5.882   5.044  0.3762  0.4448  0.0980
  152MOL   C14045742   6.811   5.717   4.869 -0.3215 -0.3147 -0.8856
  152MOL   O14145743   6.865   5.666   4.968 -0.4851  0.1596 -0.0125
  152MOL   O14245744   6.836   5.689   4.742 -1.2252  0.1563  0.1037
  152MOL   C14345745   6.947   5.599   4.718  0.2463 -0.0284  0.0570
  152MOL   H14445746   6.501   5.878   4.878  1.4478  2.3374 -3.8933
  152MOL   H14545747   6.568   5.802   4.735 -2.1083  0.6437  0.4620
  152MOL   H14645748   6.804   5.931   5.059  0.6119 -0.2468  0.8662
  152MOL   H14745749   6.625   5.952   5.062  0.2879  0.4185 -0.2059
  152MOL   H14845750   6.694   5.803   5.117 -0.3996  0.5464  0.0651
  152MOL   H14945751   6.926   5.516   4.785  1.9280 -0.0642  0.5593
  152MOL   H15045752   7.050   5.627   4.741 -0.7083  1.2441  2.9744
  152MOL   H15145753   6.938   5.577   4.612 -0.7997  0.3711  0.0616
  152MOL   C15245754   6.743   5.962   4.802  0.0569  0.1469  0.2626
  152MOL   C15345755   6.862   6.063   4.826 -0.4508 -0.6537  0.4667
  152MOL   C15445756   6.988   5.985   4.861  0.3494 -0.2189 -0.1709
  152MOL   C15545757   6.880   6.131   4.684  0.0282 -0.0879 -0.4273
  152MOL   O15645758   6.976   6.116   4.621  0.2973 -0.0451  0.3267
  152MOL   O15745759   6.773   6.207   4.654  0.2311  0.1507  0.3787
  152MOL   C15845760   6.773   6.277   4.533  0.5174  0.4072  0.4256
  152MOL   H15945761   6.654   6.024   4.792  1.0990  1.8512  1.2393
  152MOL   H16045762   6.758   5.926   4.701  0.1578  1.4275 -0.1968
  152MOL   H16145763   7.074   6.053   4.865  0.6217 -0.5703 -0.0388
  152MOL   H16245764   6.985   5.936   4.958  0.5079  1.5230  0.7270
  152MOL   H16345765   7.006   5.911   4.782 -1.1647 -0.3656 -0.3917
  152MOL   H16445766   6.675   6.313   4.502  0.3474  1.6255  2.2949
  152MOL   H16545767   6.803   6.208   4.454 -0.7377  0.0177  0.2855
  152MOL   H16645768   6.837   6.365   4.544 -1.5835  2.0142  0.1090
  152MOL   C16745769   6.827   6.176   4.924 -0.5530 -0.9890  0.2736
  152MOL   C16845770   6.911   6.293   4.976 -0.7251  0.3112 -0.0235
  152MOL   C16945771   6.810   6.378   5.060  0.4708 -0.0560 -0.1560
  152MOL   C17045772   7.014   6.243   5.091 -0.7491  0.2880  0.6785
  152MOL   O17145773   6.986   6.226   5.210  0.0184 -0.8178  0.3087
  152MOL   O17245774   7.138   6.227   5.041 -0.8444  0.0492 -0.1750
  152MOL   C17345775   7.249   6.191   5.121 -0.1613  0.3028 -0.2070
  152MOL   H17445776   6.777   6.134   5.012 -2.0033  1.8722  0.8843
  152MOL   H17545777   6.738   6.221   4.880  0.8248  0.2068 -1.3343
  152MOL   H17645778   6.718   6.403   5.006 -0.5814 -2.1021  0.6287
  152MOL   H17745779   6.765   6.313   5.135 -2.2775  0.6944 -1.0979
  152MOL   H17845780   6.859   6.458   5.115  0.8968 -0.6556  0.3409
  152MOL   H17945781   7.335   6.181   5.055  0.4193 -2.8529  0.9523
  152MOL   H18045782   7.239   6.094   5.169 -1.9833  1.0583  0.9971
  152MOL   H18145783   7.264   6.263   5.201 -2.8337  1.4513 -0.6723
  152MOL   C18245784   6.974   6.377   4.859 -0.2842  0.3662  0.8355
  152MOL   C18345785   7.026   6.528   4.882  0.4703  0.0220  0.5109
  152MOL   C18445786   7.122   6.533   5.009 -0.0875  0.6928  0.1426
  152MOL   C18545787   7.115   6.569   4.757 -0.2690  0.8752  0.0594
  152MOL   O18645788   7.228   6.626   4.772  0.4042 -0.7636 -0.7432
  152MOL   O18745789   7.050   6.553   4.637 -0.4261 -0.3186 -0.1410
  152MOL   C18845790   7.130   6.574   4.520 -0.4112  0.7438 -0.8809
  152MOL   H18945791   6.895   6.380   4.783 -1.5937  1.5408  2.1991
  152MOL   H19045792   7.060   6.320   4.827  0.1804  0.4029  2.0071
  152MOL   H19145793   7.072   6.492   5.097  1.4198 -1.8982 -0.1352
  152MOL   H19245794   7.204   6.463   4.992  1.2667  1.4548  3.2179
  152MOL   H19345795   7.167   6.631   5.019 -0.6630  0.9285  0.4118
  152MOL   H19445796   7.234   6.543   4.534 -0.0922  0.7962 -3.0064
  152MOL   H19545797   7.125   6.671   4.471  3.0173  0.7744 -1.2971
  152MOL   H19645798   7.107   6.503   4.441 -0.2215 -0.8464  0.4592
  152MOL   C19745799   6.900   6.634   4.882 -0.0141  0.7776 -0.3103
  152MOL   C19845800   6.901   6.773   4.960  0.2074 -0.1399  0.2056
  152MOL   C19945801   6.901   6.743   5.118 -0.1806 -0.0746  0.3393
  152MOL   C20045802   7.033   6.849   4.920  1.4847  0.4850 -0.3555
  152MOL   O20145803   7.111   6.876   5.011 -0.4543  0.1262 -0.0973
  152MOL   O20245804   7.036   6.895   4.790 -0.4321  0.3233  0.3953
  152MOL   C20345805   7.161   6.955   4.752  0.1535 -0.0074  0.2604
  152MOL   H20445806   6.814   6.586   4.930  0.2019 -0.1988 -0.8849
  152MOL   H20545807   6.858   6.641   4.782 -0.3606 -0.3550 -0.2485
  152MOL   H20645808   6.986   6.686   5.156 -0.7266  0.5733  2.5930
  152MOL   H20745809   6.888   6.838   5.170  0.2897  0.6249 -0.8011
  152MOL   H20845810   6.823   6.672   5.147 -0.8334  0.0674 -1.0420
  152MOL   H20945811   7.146   7.061   4.730 -0.5540 -0.4050 -1.2871
  152MOL   H21045812   7.205   6.900   4.669 -0.6300  1.7205 -1.3307
  152MOL   H21145813   7.235   6.943   4.830  1.0495 -0.9364 -0.7175
  152MOL   C21245814   6.764   6.843   4.914  0.0973 -0.5802  0.0180
  152MOL   C21345815   6.683   6.942   5.009 -0.2530  0.0516  0.0930
  152MOL   C21445816   6.616   6.854   5.120  0.3579  0.1488  0.8658
  152MOL   C21545817   6.777   7.044   5.075  0.3670  0.0786 -0.1454
  152MOL   O21645818   6.781   7.064   5.194  0.6730  0.2418  0.0823
  152MOL   O21745819   6.859   7.105   4.990  0.0215 -0.3224 -0.4076
  152MOL   C21845820   6.941   7.211   5.028 -0.3879  0.0714 -0.1693
  152MOL   H21945821   6.695   6.763   4.886 -1.4924  1.0505 -0.8242
  152MOL   H22045822   6.786   6.900   4.824  0.6746 -1.5735 -0.4845
  152MOL   H22145823   6.632   6.750   5.092  2.8978  0.7354  0.1076
  152MOL   H22245824   6.652   6.866   5.222 -0.9153 -0.6588  1.4335
  152MOL   H22345825   6.510   6.878   5.128  0.4390 -0.2751  3.8713
  152MOL   H22445826   6.986   7.237   4.933 -1.2434  0.7483 -0.3925
  152MOL   H22545827   7.019   7.170   5.093 -0.1824 -1.9307 -1.6598
  152MOL   H22645828   6.906   7.298   5.085 -0.5840 -0.9458  1.2912
  152MOL   C22745829   6.569   7.005   4.921  0.4866 -0.3315 -0.0366
  152MOL   C22845830   6.480   7.129   4.969  0.4635 -0.0207  0.2300
  152MOL   C22945831   6.446   7.124   5.117 -0.0854  0.0091 -0.3442
  152MOL   C23045832   6.548   7.263   4.942  0.3688 -0.4476 -0.4874
  152MOL   O23145833   6.650   7.268   4.875  0.4038 -0.3318  0.1060
  152MOL   O23245834   6.479   7.362   4.991  0.0153  0.7858 -0.2741
  152MOL   C23345835   6.525   7.497   4.958  0.2296 -0.0616 -0.2510
  152MOL   H23445836   6.502   6.924   4.892  2.0700 -2.0205  0.9764
  152MOL   H23545837   6.611   7.019   4.821  0.9930 -0.6670  0.1348
  152MOL   H23645838   6.388   7.210   5.150  1.4715  1.2557 -0.8056
  152MOL   H23745839   6.396   7.028   5.136 -1.2980  0.8335  0.7857
  152MOL   H23845840   6.534   7.120   5.181 -0.1799  2.8387  0.0504
  152MOL   H23945841   6.615   7.517   5.015 -0.9693  1.4353  1.1822
  152MOL   H24045842   6.447   7.557   5.005  0.1435  0.5979 -1.2456
  152MOL   H24145843   6.523   7.502   4.849 -1.6833 -1.4062 -0.3078
  152MOL   C24245844   6.339   7.121   4.904  0.6907  0.2000 -0.1758
  152MOL   C24345845   6.301   7.109   4.747  0.5119 -0.0831  0.1997
  152MOL   C24445846   6.386   7.211   4.672 -0.0998 -0.0042 -0.3147
  152MOL   C24545847   6.328   6.968   4.685  0.7739  0.3801 -0.6014
  152MOL   O24645848   6.406   6.947   4.595  0.6047  0.2645 -0.0289
  152MOL   O24745849   6.247   6.876   4.737 -0.0185  0.4525 -0.7242
  152MOL   C24845850   6.233   6.758   4.664 -0.3683  0.2191  0.2067
  152MOL   H24945851   6.288   7.212   4.932  0.1354 -0.6428  1.6199
  152MOL   H25045852   6.282   7.046   4.958  0.4657 -0.9971 -2.0098
  152MOL   H25145853   6.489   7.174   4.673 -0.2237 -0.3480  0.4668
  152MOL   H25245854   6.373   7.233   4.566  1.9287  0.2667 -0.5333
  152MOL   H25345855   6.383   7.311   4.714 -1.0052 -0.0098 -0.3522
  152MOL   H25445856   6.152   6.696   4.703  1.6653 -2.2860  0.5695
  152MOL   H25545857   6.321   6.696   4.682  0.1667  0.6993 -0.7576
  152MOL   H25645858   6.225   6.766   4.556  1.8082 -0.9342 -0.0603
  152MOL   C25745859   6.150   7.158   4.743 -0.6696 -0.2625 -0.3077
  152MOL   C25845860   6.051   7.140   4.622  0.0377  0.5582 -0.0299
  152MOL   C25945861   6.123   7.161   4.486  0.0312  0.3527  0.1202
  152MOL   C26045862   5.993   6.988   4.624 -0.2673  0.1671 -0.1462
  152MOL   O26145863   5.999   6.916   4.521  0.1222  0.1824  0.2530
  152MOL   O26245864   5.944   6.944   4.742 -0.4238 -0.2614 -0.1420
  152MOL   C26345865   5.879   6.818   4.752 -0.6966  0.5388  0.0821
  152MOL   H26445866   6.142   7.264   4.770 -2.7891 -0.8857  1.7026
  152MOL   H26545867   6.109   7.115   4.834 -1.6364 -0.1794 -0.6938
  152MOL   H26645868   6.197   7.082   4.479  0.4642  0.7827 -0.1765
  152MOL   H26745869   6.055   7.149   4.401 -0.4330 -0.6166  0.6218
  152MOL   H26845870   6.175   7.257   4.478 -1.3447  1.0671 -0.5305
  152MOL   H26945871   5.805   6.823   4.832 -2.4782  0.2948 -1.5143
  152MOL   H27045872   5.947   6.735   4.771 -0.1203  0.8499 -0.6046
  152MOL   H27145873   5.820   6.799   4.662 -1.3428  2.5527  0.0463
  152MOL   C27245874   5.930   7.243   4.645 -0.3572 -0.5217  0.2794
  152MOL   C27345875   5.828   7.275   4.536  0.0518  0.3134 -0.1604
  152MOL   C27445876   5.901   7.379   4.443  0.6452  0.8925  0.9332
  152MOL   C27545877   5.781   7.156   4.454  0.1474  0.5550  0.1796
  152MOL   O27645878   5.797   7.145   4.334 -0.2195 -0.6820  0.0921
  152MOL   O27745879   5.722   7.062   4.532 -0.6785 -0.0333 -0.5444
  152MOL   C27845880   5.696   6.934   4.471  0.0061  0.5093  0.5247
  152MOL   H27945881   5.964   7.340   4.684  1.8907 -0.5200 -1.5715
  152MOL   H28045882   5.874   7.215   4.734 -0.2120 -0.5125  0.3744
  152MOL   H28145883   5.954   7.460   4.493  1.6847  0.5160  0.4639
  152MOL   H28245884   5.967   7.331   4.370 -1.4072  0.2663 -0.5422
  152MOL   H28345885   5.833   7.419   4.368  0.1657 -1.0441  0.2984
  152MOL   H28445886   5.778   6.892   4.413  0.2880  1.6641  0.0890
  152MOL   H28545887   5.610   6.943   4.405 -0.3872 -0.8322  0.8290
  152MOL   H28645888   5.679   6.857   4.546  1.8244  0.9703  1.4160
  152MOL   C28745889   5.706   7.349   4.588  0.0693 -0.4323 -0.3229
  152MOL   C28845890   5.591   7.388   4.494 -0.0156  0.0826  0.1199
  152MOL   C28945891   5.456   7.322   4.525 -0.8310  0.3449  0.0799
  152MOL   C29045892   5.583   7.540   4.482  0.0202 -0.2284  0.4548
  152MOL   O29145893   5.620   7.598   4.381 -0.5194  0.1503 -0.0958
  152MOL   O29245894   5.531   7.603   4.593 -0.8349  0.6977 -0.6694
  152MOL   C29345895   5.481   7.727   4.589  0.1362 -0.3353 -0.7024
  152MOL   H29445896   5.735   7.428   4.658 -0.2358 -1.9842  1.5746
  152MOL   H29545897   5.656   7.284   4.659  0.2242  0.1904  0.3653
  152MOL   H29645898   5.468   7.251   4.607 -0.0284  1.6415  1.0836
  152MOL   H29745899   5.394   7.401   4.567 -0.4704  1.5065 -1.5468
  152MOL   H29845900   5.406   7.270   4.442 -0.0363 -2.3055  1.1938
  152MOL   H29945901   5.423   7.757   4.677 -0.2601 -1.8237 -0.4415
  152MOL   H30045902   5.413   7.727   4.504  1.9331  0.7493 -2.1915
  152MOL   H30145903   5.558   7.804   4.585  1.5179 -1.5962  0.8028
  152MOL   H30245904   5.617   7.358   4.392 -1.0678 -2.2733  0.5067
  153MOL     C145905   6.701   7.124   3.666 -0.2763 -0.3028  0.1065
  153MOL     C245906   6.684   7.262   3.600  0.4258  0.0179 -0.2186
  153MOL     C345907   6.594   7.347   3.702 -0.7374  0.1073  0.1663
  153MOL     C445908   6.822   7.330   3.600 -0.4670 -0.3105  1.0137
  153MOL     O545909   6.926   7.269   3.602  0.1908 -0.4855 -0.0789
  153MOL     O645910   6.819   7.460   3.571 -0.0037  0.3694  0.3355
  153MOL     C745911   6.935   7.536   3.547 -0.2269 -0.2057 -0.2410
  153MOL     H845912   6.761   7.060   3.602 -1.0664  0.4141 -1.3929
  153MOL     H945913   6.744   7.136   3.765  1.0870  0.5933 -0.5790
  153MOL    H1045914   6.493   7.306   3.714 -0.7614 -0.0735 -0.6250
  153MOL    H1145915   6.642   7.344   3.800 -0.2896 -0.5289 -0.0644
  153MOL    H1245916   6.579   7.449   3.667  0.7198  0.8176  1.5282
  153MOL    H1345917   7.006   7.489   3.478  0.8587  0.6238  0.2990
  153MOL    H1445918   6.983   7.546   3.644 -1.0681  1.2758  0.0183
  153MOL    H1545919   6.905   7.632   3.507 -0.3991 -0.9105 -1.8383
  153MOL    H1645920   6.608   7.069   3.680 -0.1951 -0.6888 -0.8023
  153MOL    C1745921   6.604   7.266   3.469  0.2925 -0.1239  0.1708
  153MOL    C1845922   6.633   7.186   3.338  0.1908  0.1695  0.0055
  153MOL    C1945923   6.784   7.207   3.307 -0.3393 -0.3476 -0.2382
  153MOL    C2045924   6.614   7.032   3.360 -0.0140  0.4373  0.0361
  153MOL    O2145925   6.550   6.996   3.460  0.2273  0.8678 -0.2500
  153MOL    O2245926   6.666   6.954   3.262 -0.3276  0.0121 -0.4117
  153MOL    C2345927   6.670   6.817   3.268 -0.1099 -0.3055 -0.4788
  153MOL    H2445928   6.590   7.372   3.447  0.6412  0.1489  1.2503
  153MOL    H2545929   6.505   7.239   3.505  0.2771  0.2725  0.4274
  153MOL    H2645930   6.804   7.314   3.304  0.8248 -0.5793 -1.5387
  153MOL    H2745931   6.832   7.159   3.392  0.0810  2.0855  0.9474
  153MOL    H2845932   6.816   7.154   3.217  1.4405 -0.2837  0.3387
  153MOL    H2945933   6.755   6.784   3.208  1.9072  4.3056 -0.3968
  153MOL    H3045934   6.591   6.763   3.217  0.3609  0.5630 -2.1796
  153MOL    H3145935   6.666   6.790   3.374  0.2717 -0.7641 -0.5790
  153MOL    C3245936   6.553   7.234   3.211  0.5371  0.5386 -0.4937
  153MOL    C3345937   6.401   7.224   3.176  0.6417 -0.7162  0.3337
  153MOL    C3445938   6.367   7.075   3.160 -0.1013 -0.1847  0.6222
  153MOL    C3545939   6.308   7.285   3.284  0.1160 -0.3456  0.9793
  153MOL    O3645940   6.355   7.369   3.361  0.5306 -0.6873  0.2652
  153MOL    O3745941   6.175   7.242   3.289  0.2815 -0.0288 -0.1616
  153MOL    C3845942   6.089   7.278   3.393 -0.2632  0.8509 -0.0928
  153MOL    H3945943   6.600   7.182   3.128 -0.1741 -0.0494 -0.5330
  153MOL    H4045944   6.576   7.340   3.206  2.3034  0.3606  2.5676
  153MOL    H4145945   6.446   7.026   3.104  0.8771  1.1127  0.8159
  153MOL    H4245946   6.354   7.027   3.257  1.8507  1.4110  1.7268
  153MOL    H4345947   6.280   7.066   3.095  1.4996 -3.9718 -1.1563
  153MOL    H4445948   6.080   7.205   3.474  0.7146  2.0629  1.1400
  153MOL    H4545949   5.987   7.279   3.355 -0.6783  0.7734  0.9985
  153MOL    H4645950   6.116   7.380   3.423 -0.5442  0.7351  0.5743
  153MOL    C4745951   6.359   7.281   3.039  0.3624 -0.3932 -0.0402
  153MOL    C4845952   6.409   7.417   2.990  0.1924 -0.5564  0.6073
  153MOL    C4945953   6.393   7.533   3.095 -0.0934  0.1018 -0.5859
  153MOL    C5045954   6.563   7.422   2.950  0.1359  0.6801 -0.3342
  153MOL    O5145955   6.621   7.532   2.942 -0.5332  0.0101 -0.0989
  153MOL    O5245956   6.623   7.303   2.927 -0.5880 -0.2661  0.6221
  153MOL    C5345957   6.753   7.296   2.878  0.9252  0.0861 -0.1492
  153MOL    H5445958   6.254   7.311   3.037  0.7568  1.0416  0.3342
  153MOL    H5545959   6.377   7.203   2.964  0.8155 -0.9849  0.6847
  153MOL    H5645960   6.435   7.628   3.062 -0.0218  0.4537  0.4959
  153MOL    H5745961   6.290   7.540   3.129  0.3961 -1.5080  1.3276
  153MOL    H5845962   6.457   7.521   3.182 -0.7299  2.2711  0.2041
  153MOL    H5945963   6.759   7.331   2.775 -0.5584  1.2641  0.1368
  153MOL    H6045964   6.785   7.192   2.887  0.3939  0.0211  1.1117
  153MOL    H6145965   6.819   7.353   2.944 -0.1803  0.3959  0.7047
  153MOL    C6245966   6.318   7.466   2.874  0.7075  0.9815  0.0968
  153MOL    C6345967   6.278   7.381   2.742 -0.5903  0.0099  0.1638
  153MOL    C6445968   6.399   7.293   2.690  0.0619  0.1822  0.4742
  153MOL    C6545969   6.167   7.285   2.778  0.0179 -0.4702  0.4044
  153MOL    O6645970   6.177   7.161   2.759 -0.3038 -0.6117  0.4095
  153MOL    O6745971   6.066   7.349   2.836 -0.1862  0.5091 -0.1079
  153MOL    C6845972   5.962   7.272   2.905 -0.4532 -0.3029 -0.0780
  153MOL    H6945973   6.359   7.557   2.829  0.4861  1.5674  1.0630
  153MOL    H7045974   6.222   7.505   2.907 -0.0623  0.8261 -1.9071
  153MOL    H7145975   6.369   7.231   2.606 -0.5521  1.4900 -0.2992
  153MOL    H7245976   6.470   7.364   2.649 -0.7875  0.5578 -0.3876
  153MOL    H7345977   6.446   7.222   2.757  1.0663 -0.2118 -0.6496
  153MOL    H7445978   5.873   7.279   2.842 -1.1905  0.8301  1.0362
  153MOL    H7545979   5.938   7.317   3.002  1.1748 -1.1978  0.7453
  153MOL    H7645980   5.979   7.169   2.936 -1.3611 -0.3681  0.2239
  153MOL    C7745981   6.231   7.485   2.635 -0.1391 -0.1277 -0.0410
  153MOL    C7845982   6.174   7.445   2.490 -0.2107 -0.2121  0.0986
  153MOL    C7945983   6.133   7.582   2.432  0.0163 -0.0867  0.5226
  153MOL    C8045984   6.282   7.376   2.402  0.5580 -0.0542  0.5352
  153MOL    O8145985   6.272   7.264   2.359  0.0599 -0.4433  0.6277
  153MOL    O8245986   6.390   7.450   2.374  0.8173  0.4243  0.0880
  153MOL    C8345987   6.498   7.389   2.305 -0.6085  0.4536  0.4329
  153MOL    H8445988   6.317   7.547   2.613  0.5659 -0.3406  2.0692
  153MOL    H8545989   6.151   7.531   2.694  1.2269  0.4336  1.3922
  153MOL    H8645990   6.208   7.661   2.421  0.1634 -0.1527  1.0095
  153MOL    H8745991   6.088   7.571   2.334  0.4294 -4.5318  0.7196
  153MOL    H8845992   6.046   7.620   2.485  0.6322  1.7394  0.2574
  153MOL    H8945993   6.543   7.323   2.379 -0.2856 -0.5711 -0.6682
  153MOL    H9045994   6.574   7.462   2.278  1.1649 -1.5004  0.0820
  153MOL    H9145995   6.467   7.347   2.209  0.2586 -0.4228  0.5312
  153MOL    C9245996   6.052   7.351   2.503  0.3318  0.0373 -0.2482
  153MOL    C9345997   5.947   7.324   2.391  0.3193  0.3026  0.2655
  153MOL    C9445998   6.010   7.312   2.245  0.0737  0.0665 -0.2769
  153MOL    C9545999   5.884   7.184   2.422 -0.3516 -0.5412 -0.0652
  153MOL    O9646000   5.871   7.099   2.333  0.2412  0.6037 -0.1320
  153MOL    O9746001   5.842   7.169   2.545 -0.4418  0.2790 -0.9592
  153MOL    C9846002   5.758   7.056   2.572 -0.1438 -0.7169 -0.1597
  153MOL    H9946003   5.990   7.392   2.582 -1.3304  1.4454 -2.2461
  153MOL   H10046004   6.091   7.252   2.525  0.8762  0.2771 -0.1367
  153MOL   H10146005   6.062   7.406   2.223 -1.9041  1.1851 -0.2711
  153MOL   H10246006   6.081   7.231   2.232 -1.5150 -1.6264  1.3605
  153MOL   H10346007   5.938   7.289   2.167 -2.1213  0.3491  1.5988
  153MOL   H10446008   5.655   7.086   2.550 -0.1292 -1.8812 -1.8257
  153MOL   H10546009   5.763   7.019   2.675 -0.6775 -2.0159 -0.5883
  153MOL   H10646010   5.785   6.975   2.505  0.8053  0.4359 -1.1980
  153MOL   C10746011   5.838   7.445   2.382 -0.3834 -0.9201 -0.1936
  153MOL   C10846012   5.683   7.437   2.400 -0.2987 -0.1698 -0.3686
  153MOL   C10946013   5.620   7.311   2.332  0.3297  1.0001 -0.5807
  153MOL   C11046014   5.648   7.423   2.553 -0.2949 -0.7693 -0.0524
  153MOL   O11146015   5.738   7.411   2.639  0.1345 -0.2740  0.2274
  153MOL   O11246016   5.518   7.414   2.578 -0.6913 -0.3627  0.7200
  153MOL   C11346017   5.470   7.381   2.706 -0.6316  0.3957  0.8207
  153MOL   H11446018   5.856   7.486   2.283  1.2704 -1.0533  0.0331
  153MOL   H11546019   5.878   7.512   2.458 -0.1868 -3.3369  1.9176
  153MOL   H11646020   5.523   7.347   2.298 -0.3109  1.0682  1.2932
  153MOL   H11746021   5.679   7.271   2.249  0.3089 -0.9492  0.3087
  153MOL   H11846022   5.594   7.222   2.389 -2.1246  2.1840  0.1889
  153MOL   H11946023   5.550   7.325   2.754 -0.8206  0.3850  1.1225
  153MOL   H12046024   5.379   7.322   2.700 -0.4884  0.3553 -1.6104
  153MOL   H12146025   5.436   7.470   2.759  1.6487  2.0301 -0.3692
  153MOL   C12246026   5.631   7.567   2.327 -0.4271  0.5592 -0.0506
  153MOL   C12346027   5.667   7.719   2.370  0.1580 -0.4254  0.3463
  153MOL   C12446028   5.667   7.745   2.517  0.1617 -0.5644  0.8053
  153MOL   C12546029   5.802   7.767   2.310 -0.2565  0.4872  0.6156
  153MOL   O12646030   5.891   7.815   2.377  0.4317 -0.5244 -0.3761
  153MOL   O12746031   5.804   7.749   2.177  0.3843  0.1270 -0.7089
  153MOL   C12846032   5.905   7.801   2.105  0.3142  0.7698 -0.7719
  153MOL   H12946033   5.523   7.555   2.336 -0.4531 -0.2934 -1.2971
  153MOL   H13046034   5.665   7.555   2.224  1.9564  1.6705  0.5788
  153MOL   H13146035   5.685   7.850   2.542 -2.1220  0.5239 -1.9601
  153MOL   H13246036   5.582   7.699   2.567 -0.7926 -1.3782 -1.5382
  153MOL   H13346037   5.747   7.685   2.560 -0.4041 -1.6453  0.3624
  153MOL   H13446038   5.896   0.031   2.087 -2.0090  1.0430  1.6405
  153MOL   H13546039   5.894   7.749   2.009 -0.8064  0.4505 -0.4803
  153MOL   H13646040   6.004   7.783   2.145  0.2693 -0.3237 -1.1454
  153MOL   C13746041   5.547   7.810   2.300 -0.2570  0.6831 -0.2710
  153MOL   C13846042   5.526   0.089   2.307  0.4184  0.4986  0.7808
  153MOL   C13946043   5.660   0.156   2.275  0.6511 -0.4154  0.3469
  153MOL   C14046044   5.425   0.125   2.201 -0.0650 -0.3249 -0.0239
  153MOL   O14146045   5.447   0.197   2.104 -0.2249  0.1466  0.4442
  153MOL   O14246046   5.307   0.064   2.230 -0.2346  0.3098 -0.2872
  153MOL   C14346047   5.191   0.086   2.152 -0.6520 -0.4264  0.1212
  153MOL   H14446048   5.453   7.762   2.331  0.4321 -0.1843  0.5098
  153MOL   H14546049   5.551   7.789   2.193 -0.0152 -3.4905  0.4748
  153MOL   H14646050   5.729   0.147   2.359 -1.4075  2.9139  2.5229
  153MOL   H14746051   5.692   0.097   2.190 -0.8591 -2.1074  0.9113
  153MOL   H14846052   5.669   0.256   2.234  0.3365  0.0119  1.3086
  153MOL   H14946053   5.104   0.057   2.211  1.1336 -2.9618  1.5573
  153MOL   H15046054   5.194   0.035   2.056  0.5802 -0.0442 -0.0601
  153MOL   H15146055   5.173   0.189   2.119 -0.9783 -0.5664 -0.1337
  153MOL   C15246056   5.472   0.134   2.452 -1.5517 -0.2732 -0.0793
  153MOL   C15346057   5.426   0.281   2.501 -0.3344  0.0999 -0.5276
  153MOL   C15446058   5.440   0.283   2.659  1.1114 -0.6988 -0.1394
  153MOL   C15546059   5.517   0.392   2.445 -0.5250  0.7425 -0.0355
  153MOL   O15646060   5.482   0.471   2.355  0.1834  0.1197 -0.2792
  153MOL   O15746061   5.639   0.402   2.511  0.4591  0.1076 -0.5538
  153MOL   C15846062   5.741   0.476   2.444  0.0366  0.0301 -0.2375
  153MOL   H15946063   5.554   0.114   2.521 -0.5176  2.8281 -0.3478
  153MOL   H16046064   5.389   0.069   2.477  0.6364 -2.3521  2.1354
  153MOL   H16146065   5.383   0.208   2.714 -0.0591 -0.0247 -0.4034
  153MOL   H16246066   5.543   0.273   2.694  1.0140 -0.1395  0.3108
  153MOL   H16346067   5.399   0.377   2.695  0.6606 -1.4966  1.4920
  153MOL   H16446068   5.720   0.500   2.340  3.1259  1.1991 -0.6467
  153MOL   H16546069   5.825   0.410   2.464 -2.5571 -3.6747 -0.9291
  153MOL   H16646070   5.735   0.567   2.504 -0.5851 -0.5720  0.6346
  153MOL   C16746071   5.273   0.296   2.454 -0.3755  0.3792 -0.1715
  153MOL   C16846072   5.157   0.391   2.508  0.0440 -0.0437 -0.3006
  153MOL   C16946073   5.114   0.342   2.649  0.1846  0.5780 -0.1008
  153MOL   C17046074   5.210   0.537   2.516  0.3048 -0.7669 -0.3953
  153MOL   O17146075   5.246   0.587   2.623  0.3043 -0.6512 -0.1001
  153MOL   O17246076   5.221   0.598   2.399 -0.4596  0.8116 -0.0357
  153MOL   C17346077   5.272   0.726   2.383 -0.3929 -0.3688 -0.1656
  153MOL   H17446078   5.232   0.196   2.448  2.0522 -0.4984 -3.6306
  153MOL   H17546079   5.275   0.312   2.346 -2.7178  1.4551 -0.0756
  153MOL   H17646080   5.093   0.235   2.649  0.6471  0.4852 -0.0229
  153MOL   H17746081   5.189   0.367   2.724 -1.8104  1.0392  1.7843
  153MOL   H17846082   5.024   0.399   2.674 -1.0446 -1.2328 -0.3305
  153MOL   H17946083   5.268   0.789   2.472 -0.8927  0.2517 -0.6168
  153MOL   H18046084   5.221   0.787   2.308  1.7215 -0.3505 -1.6364
  153MOL   H18146085   5.379   0.734   2.368 -0.3020  0.0111  0.6418
  153MOL   C18246086   5.046   0.359   2.397  0.6142 -0.3607  0.2950
  153MOL   C18346087   4.883   0.373   2.421  0.3455 -0.1346  0.5173
  153MOL   C18446088   4.843   0.274   2.534 -0.5789  0.1394 -0.1654
  153MOL   C18546089   4.842   0.515   2.472  0.6982  0.2937 -0.3802
  153MOL   O18646090   4.918   0.601   2.508  0.0665 -0.4354 -0.3018
  153MOL   O18746091   4.710   0.535   2.495 -0.6543  0.4605 -0.2361
  153MOL   C18846092   4.668   0.661   2.556  0.9528  0.4234  0.1784
  153MOL   H18946093   5.054   0.262   2.346 -0.4783  1.2526 -3.0994
  153MOL   H19046094   5.071   0.430   2.318  1.1165  1.6424  2.2107
  153MOL   H19146095   4.922   0.200   2.548 -0.6833 -0.1253 -0.9758
  153MOL   H19246096   4.822   0.321   2.630 -0.7947  0.9810 -0.6195
  153MOL   H19346097   4.758   0.209   2.513  0.1659 -0.2577 -2.0130
  153MOL   H19446098   4.690   0.748   2.495 -1.8572  1.2664  0.2941
  153MOL   H19546099   4.716   0.682   2.652  2.4363 -0.1442 -0.4352
  153MOL   H19646100   4.559   0.662   2.570  1.0819  0.1059  1.2903
  153MOL   C19746101   4.821   0.347   2.275  0.3428  0.5152  0.5423
  153MOL   C19846102   4.729   0.228   2.223  0.3350  0.6715  0.4140
  153MOL   C19946103   4.808   0.098   2.260 -1.1707  0.1000 -0.1148
  153MOL   C20046104   4.593   0.216   2.288 -0.4656 -0.4189  0.6069
  153MOL   O20146105   4.556   0.300   2.367 -0.1246 -0.3002 -0.2844
  153MOL   O20246106   4.525   0.109   2.254  0.1174 -0.1021  0.4242
  153MOL   C20346107   4.391   0.114   2.284  0.3848 -0.0945  1.2690
  153MOL   H20446108   4.905   0.357   2.207  0.9248  0.5812  1.2588
  153MOL   H20546109   4.767   0.439   2.250 -0.0733 -0.1895 -1.2064
  153MOL   H20646110   4.795   0.009   2.199 -0.1151  0.0043 -0.2011
  153MOL   H20746111   4.911   0.126   2.241 -1.0476 -0.4615 -0.2985
  153MOL   H20846112   4.794   0.090   2.368  4.7750 -1.0273  0.7552
  153MOL   H20946113   4.355   0.014   2.262  0.1777  0.1673  0.3942
  153MOL   H21046114   4.341   0.182   2.214 -0.3039  0.7209  2.5199
  153MOL   H21146115   4.383   0.123   2.393 -1.6100 -0.6643  1.1909
  153MOL   C21246116   4.719   0.236   2.063  0.1370  0.0630 -0.1304
  153MOL   C21346117   4.644   0.352   1.984  0.6668 -0.0833 -0.3701
  153MOL   C21446118   4.580   0.282   1.854  0.3227 -0.0064  0.1030
  153MOL   C21546119   4.529   0.416   2.071 -0.0724  0.3736 -0.4501
  153MOL   O21646120   4.421   0.358   2.084 -0.1876  0.0256 -0.1678
  153MOL   O21746121   4.564   0.533   2.140  0.0593  0.1811 -0.5612
  153MOL   C21846122   4.472   0.591   2.229  0.2345  0.5107  0.3833
  153MOL   H21946123   4.667   0.144   2.039 -1.4716  0.6158  1.1351
  153MOL   H22046124   4.824   0.224   2.039  0.1685 -0.2173  0.1498
  153MOL   H22146125   4.659   0.250   1.786  0.9438  0.9344  0.3676
  153MOL   H22246126   4.524   0.193   1.883  1.3606 -0.5358  0.5185
  153MOL   H22346127   4.510   0.346   1.802  0.3629 -1.1169 -1.3609
  153MOL   H22446128   4.385   0.605   2.164  1.7129  2.2397 -1.3171
  153MOL   H22546129   4.503   0.690   2.264 -0.2814 -0.1392  2.7232
  153MOL   H22646130   4.439   0.532   2.314 -1.3999  1.0075  0.1236
  153MOL   C22746131   4.742   0.467   1.936 -0.3880  0.1242  0.2869
  153MOL   C22846132   4.844   0.464   1.814 -0.9792 -0.7625  1.4180
  153MOL   C22946133   4.939   0.344   1.823  0.1525 -0.0664 -0.3572
  153MOL   C23046134   4.779   0.462   1.670 -0.2260  0.2882 -0.6018
  153MOL   O23146135   4.656   0.463   1.649  0.3656  0.0995  0.4193
  153MOL   O23246136   4.867   0.453   1.573 -0.0072 -0.1124 -0.3219
  153MOL   C23346137   4.836   0.463   1.436 -0.3466  0.1238  0.2519
  153MOL   H23446138   4.806   0.485   2.022  2.4189 -3.0354 -1.0314
  153MOL   H23546139   4.675   0.553   1.927 -0.7962 -0.0456  1.5823
  153MOL   H23646140   5.027   0.363   1.763 -1.9498 -0.5878 -3.7434
  153MOL   H23746141   4.953   0.328   1.930 -2.2116 -1.1189 -0.1641
  153MOL   H23846142   4.897   0.253   1.780  1.0810 -0.5068 -0.3455
  153MOL   H23946143   4.809   0.563   1.405 -1.1124 -0.0701  0.2960
  153MOL   H24046144   4.749   0.401   1.416 -0.1799  0.1785 -0.6616
  153MOL   H24146145   4.916   0.420   1.375 -0.4744  0.4575 -0.1484
  153MOL   C24246146   4.944   0.582   1.816 -0.4246 -1.0065  0.7537
  153MOL   C24346147   4.912   0.739   1.837 -0.1848  0.5432  0.8738
  153MOL   C24446148   4.803   0.781   1.738 -0.0103 -0.3292  0.1626
  153MOL   C24546149   4.870   0.762   1.981 -0.1267 -0.0446  0.7741
  153MOL   O24646150   4.760   0.802   2.010  0.3093 -0.4007 -0.1491
  153MOL   O24746151   4.963   0.729   2.069  0.0713  0.5972  0.0652
  153MOL   C24846152   4.927   0.724   2.205  0.0355 -0.2818 -0.5722
  153MOL   H24946153   5.009   0.568   1.729  0.0934 -2.6380  1.4027
  153MOL   H25046154   5.015   0.558   1.895 -1.0285 -1.0019  1.2987
  153MOL   H25146155   4.784   0.884   1.769  1.7131 -0.4589  1.7865
  153MOL   H25246156   4.834   0.796   1.635 -1.0435 -0.9111 -0.2306
  153MOL   H25346157   4.714   0.720   1.746  0.4402 -0.9173  0.7729
  153MOL   H25446158   4.961   0.627   2.242 -1.9047 -0.2184  1.4679
  153MOL   H25546159   4.821   0.722   2.230  0.6916 -2.2751  2.2381
  153MOL   H25646160   4.971   0.799   2.271  0.8257 -0.0194 -1.3868
  153MOL   C25746161   5.047   0.811   1.800 -0.1087  0.3701  0.1627
  153MOL   C25846162   5.070   0.968   1.814 -0.3451  0.2440  0.0836
  153MOL   C25946163   5.220   0.980   1.780 -0.4398  0.4072 -0.3182
  153MOL   C26046164   4.988   1.052   1.713 -0.9967 -0.3432 -0.9214
  153MOL   O26146165   4.909   1.142   1.742  1.0678 -0.6928 -0.3859
  153MOL   O26246166   5.005   1.010   1.590 -0.4886  0.2650  0.0982
  153MOL   C26346167   4.925   1.049   1.478 -0.1968 -0.1320  0.4510
  153MOL   H26446168   5.076   0.792   1.697 -0.8217  1.3757 -0.2270
  153MOL   H26546169   5.123   0.766   1.865 -3.4194 -1.3864  3.0074
  153MOL   H26646170   5.262   1.080   1.793 -1.1302  0.9601 -2.1484
  153MOL   H26746171   5.283   0.916   1.842 -1.2091 -1.6775 -1.6773
  153MOL   H26846172   5.237   0.967   1.673  1.9942 -0.5197  0.1391
  153MOL   H26946173   4.987   1.036   1.389  0.9597 -0.5913  1.3139
  153MOL   H27046174   4.884   1.150   1.477 -2.0736 -0.8400  2.1729
  153MOL   H27146175   4.841   0.980   1.478  0.5862 -1.1389 -2.1660
  153MOL   C27246176   5.048   1.023   1.960  0.1179 -0.7379 -1.1737
  153MOL   C27346177   5.123   1.143   2.036 -0.6099 -0.1693 -0.0461
  153MOL   C27446178   5.258   1.101   2.090  0.1990  0.2559  0.0110
  153MOL   C27546179   5.153   1.266   1.946 -0.0413  0.4424  0.0837
  153MOL   O27646180   5.266   1.288   1.902  0.0817  0.0527  0.2067
  153MOL   O27746181   5.050   1.340   1.923  0.6675  0.8976 -0.2316
  153MOL   C27846182   5.047   1.439   1.815  0.0194  0.4181  0.1083
  153MOL   H27946183   5.072   0.943   2.030 -1.0886  1.1090  1.4145
  153MOL   H28046184   4.940   1.032   1.961  0.2501  0.9955  0.9364
  153MOL   H28146185   5.315   1.182   2.137  2.4478 -1.2956  0.0572
  153MOL   H28246186   5.255   1.030   2.172  0.3350 -0.8599 -0.9337
  153MOL   H28346187   5.324   1.067   2.009 -1.4428  1.2391 -1.7853
  153MOL   H28446188   5.037   1.384   1.722  0.5377 -0.4620  0.5595
  153MOL   H28546189   5.144   1.487   1.805 -0.4129  0.9932 -1.3712
  153MOL   H28646190   4.972   1.516   1.828  0.2961  0.7404 -0.2106
  153MOL   C28746191   5.034   1.186   2.156 -0.0474  0.2378 -0.1559
  153MOL   C28846192   5.051   1.316   2.237 -0.0577  0.1268 -0.9491
  153MOL   C28946193   4.939   1.337   2.343  0.3043  0.5948  0.5658
  153MOL   C29046194   5.183   1.317   2.308 -0.9534 -0.7253  0.1292
  153MOL   O29146195   5.223   1.233   2.387 -0.0525 -0.0223  0.5709
  153MOL   O29246196   5.256   1.422   2.272 -0.2324  0.3914 -0.4810
  153MOL   C29346197   5.398   1.425   2.314  0.0065  0.6548  0.2527
  153MOL   H29446198   5.036   1.105   2.228  2.0622  1.1067  0.7846
  153MOL   H29546199   4.930   1.201   2.124  0.6315  3.2667 -1.1725
  153MOL   H29646200   4.842   1.336   2.292  1.1123 -0.9102 -0.9755
  153MOL   H29746201   4.942   1.248   2.405 -0.6180  1.2948  1.6507
  153MOL   H29846202   4.954   1.428   2.401  0.2199  0.6377  0.5211
  153MOL   H29946203   5.421   1.383   2.412  0.7027  0.5357  0.0396
  153MOL   H30046204   5.440   1.526   2.311  2.1708 -0.2247 -0.1356
  153MOL   H30146205   5.460   1.378   2.238 -2.1034  0.4699 -1.4155
  153MOL   H30246206   5.051   1.407   2.177 -0.5476  1.0930  0.4830
  154MOL     C146207   6.563   4.417   7.267  0.3421  0.4895 -1.3257
  154MOL     C246208   6.657   4.401   7.143  0.7832 -0.0221 -0.1019
  154MOL     C346209   6.578   4.425   7.016  0.0873 -0.1577 -0.0513
  154MOL     C446210   6.765   4.517   7.155  0.2479 -0.1545  0.2070
  154MOL     O546211   6.881   4.495   7.130  0.6539 -0.3846 -0.6345
  154MOL     O646212   6.712   4.632   7.194  0.1985 -0.0289  0.1572
  154MOL     C746213   6.795   4.751   7.185  0.0737 -0.4128 -0.0615
  154MOL     H846214   6.609   4.407   7.366 -0.1561  2.5377 -0.8597
  154MOL     H946215   6.500   4.505   7.281  0.6423  0.5620 -0.3463
  154MOL    H1046216   6.647   4.429   6.932  0.7294  0.2871  0.5013
  154MOL    H1146217   6.507   4.344   7.001  0.1074 -0.3130  0.6902
  154MOL    H1246218   6.530   4.523   7.015  1.0164  0.3033 -0.1641
  154MOL    H1346219   6.868   4.739   7.265  0.7547 -1.6816 -0.8526
  154MOL    H1446220   6.736   4.841   7.200 -1.5474 -0.7529 -3.8197
  154MOL    H1546221   6.845   4.758   7.088  1.4651  2.2965  0.7822
  154MOL    H1646222   6.488   4.338   7.268  0.6211  0.2030  0.8542
  154MOL    C1746223   6.726   4.257   7.135  0.2852 -0.4947 -0.2986
  154MOL    C1846224   6.762   4.161   7.257  0.9013  0.1064  0.1528
  154MOL    C1946225   6.851   4.228   7.359 -0.0297 -0.1106  0.4785
  154MOL    C2046226   6.632   4.113   7.314 -0.3377  0.2656  0.1538
  154MOL    O2146227   6.618   4.123   7.436  0.1676 -0.0254  0.1435
  154MOL    O2246228   6.548   4.046   7.232 -0.2232  0.1377 -0.7256
  154MOL    C2346229   6.426   4.004   7.293 -0.0960 -0.2382 -0.4284
  154MOL    H2446230   6.817   4.263   7.075  0.0149 -1.4924 -0.8110
  154MOL    H2546231   6.652   4.200   7.080  0.9854 -1.1497 -0.5657
  154MOL    H2646232   6.829   4.334   7.373  0.9809  0.1073  0.4068
  154MOL    H2746233   6.841   4.185   7.459  0.1131  1.7971  1.3256
  154MOL    H2846234   6.954   4.224   7.326 -0.3941  2.0330 -1.0457
  154MOL    H2946235   6.343   4.005   7.223 -2.2152  0.3067  2.0298
  154MOL    H3046236   6.400   4.058   7.384  1.8865 -1.4531  0.9135
  154MOL    H3146237   6.448   3.903   7.327  2.9517  0.6245  0.3840
  154MOL    C3246238   6.842   4.040   7.194 -0.2884  0.3065  0.2016
  154MOL    C3346239   6.884   3.908   7.264 -0.4217 -0.2050  0.3734
  154MOL    C3446240   6.914   3.932   7.415  0.1962  0.0864 -0.2550
  154MOL    C3546241   6.774   3.788   7.245 -0.4112  0.0373  0.6318
  154MOL    O3646242   6.723   3.724   7.337  0.6115  0.0018  0.2530
  154MOL    O3746243   6.746   3.770   7.116  0.3894  0.6422 -0.4062
  154MOL    C3846244   6.648   3.681   7.076 -0.5450 -0.4023 -0.5412
  154MOL    H3946245   6.929   4.098   7.163 -1.0354  1.8458  0.9278
  154MOL    H4046246   6.798   4.006   7.100 -0.1048  1.2221 -0.2204
  154MOL    H4146247   6.986   4.012   7.430  0.3306  0.4156 -2.4916
  154MOL    H4246248   6.824   3.953   7.473  0.4498  0.2429  0.0851
  154MOL    H4346249   6.966   3.850   7.464  1.2476  0.6545 -0.4061
  154MOL    H4446250   6.660   3.579   7.112  3.3994 -0.0231 -0.5807
  154MOL    H4546251   6.654   3.663   6.968  2.1050 -0.8116 -0.3697
  154MOL    H4646252   6.550   3.717   7.106 -0.4599 -1.0616  0.5700
  154MOL    C4746253   7.014   3.867   7.185  0.1003 -0.1051  0.6475
  154MOL    C4846254   7.125   3.773   7.242  0.1271 -0.5242  0.3987
  154MOL    C4946255   7.223   3.852   7.331 -0.3719  0.2312  0.4868
  154MOL    C5046256   7.062   3.650   7.324 -0.0733 -0.1447  0.1644
  154MOL    O5146257   7.081   3.628   7.443  0.0553 -0.4452 -0.0054
  154MOL    O5246258   6.983   3.583   7.249  0.9985  0.0958 -0.0918
  154MOL    C5346259   6.932   3.455   7.296  0.8374  0.3396  0.7998
  154MOL    H5446260   7.072   3.954   7.155 -0.6733 -0.3534 -1.6258
  154MOL    H5546261   6.972   3.822   7.095  1.3409 -1.6029  0.8250
  154MOL    H5646262   7.172   3.925   7.394 -0.8178  1.1535 -0.9241
  154MOL    H5746263   7.272   3.781   7.398  2.0220 -0.4724 -1.9524
  154MOL    H5846264   7.298   3.903   7.271 -0.6333 -2.5764 -2.3765
  154MOL    H5946265   7.014   3.383   7.295 -0.2886 -0.9810  1.7923
  154MOL    H6046266   6.856   3.412   7.231  1.0369  0.1370  0.6976
  154MOL    H6146267   6.889   3.475   7.394 -0.5295 -0.0215  0.2764
  154MOL    C6246268   7.194   3.706   7.112 -0.6643 -0.2181  0.0635
  154MOL    C6346269   7.306   3.591   7.115 -0.2031  0.1021 -0.1676
  154MOL    C6446270   7.403   3.618   7.221 -0.5439  0.6303 -0.1910
  154MOL    C6546271   7.236   3.455   7.129 -0.5395  0.4561  0.0274
  154MOL    O6646272   7.258   3.375   7.217  0.0697  0.5352 -0.7632
  154MOL    O6746273   7.165   3.424   7.025  0.3694  0.6703  0.0885
  154MOL    C6846274   7.111   3.292   7.003  0.1898 -0.6304 -0.1095
  154MOL    H6946275   7.233   3.784   7.046 -1.7399  0.0896 -0.2131
  154MOL    H7046276   7.111   3.675   7.048 -0.1855 -0.6440 -0.3571
  154MOL    H7146277   7.478   3.538   7.218 -0.6776  0.3899  1.9677
  154MOL    H7246278   7.451   3.715   7.208 -1.1175  0.8813 -0.4115
  154MOL    H7346279   7.361   3.611   7.321  1.7070  0.1181  0.7649
  154MOL    H7446280   7.180   3.214   6.969 -0.5730 -1.4606  0.2183
  154MOL    H7546281   7.042   3.305   6.919 -0.1637  0.0954  0.2861
  154MOL    H7646282   7.070   3.240   7.090 -1.5044  1.3391  0.3010
  154MOL    C7746283   7.380   3.575   6.981 -0.4847  0.5258  0.2298
  154MOL    C7846284   7.497   3.669   6.925  0.0760  0.2408  0.9212
  154MOL    C7946285   7.470   3.822   6.933  1.1778 -0.7216 -0.3434
  154MOL    C8046286   7.635   3.640   6.985 -0.2326 -0.5412  0.1873
  154MOL    O8146287   7.652   3.559   7.075 -0.6440  0.0588 -0.3878
  154MOL    O8246288   7.733   3.709   6.925  0.2602 -0.5291  0.0477
  154MOL    C8346289   7.866   3.703   6.972 -1.1820 -0.0487 -0.7764
  154MOL    H8446290   7.312   3.593   6.897 -0.3322  2.7548  0.5516
  154MOL    H8546291   7.424   3.476   6.984  0.8703  1.1366  0.9270
  154MOL    H8646292   7.537   3.880   6.870 -0.8261  0.2694 -1.6201
  154MOL    H8746293   7.370   3.858   6.911  1.6689  0.2476 -0.9942
  154MOL    H8846294   7.489   3.859   7.034 -1.1592 -1.1836  0.2860
  154MOL    H8946295   0.054   3.765   6.911 -0.2324 -0.7037 -0.4356
  154MOL    H9046296   0.009   3.597   6.958  0.3321 -0.0459  1.1570
  154MOL    H9146297   7.874   3.728   7.078 -2.3734 -0.1274 -0.6604
  154MOL    C9246298   7.507   3.651   6.767  0.1117  0.1411 -0.7898
  154MOL    C9346299   7.534   3.515   6.693 -0.0694 -0.0914  0.8785
  154MOL    C9446300   7.648   3.422   6.741  0.6988 -0.9193  0.1794
  154MOL    C9546301   7.408   3.427   6.701  0.3150  0.7452 -0.4456
  154MOL    O9646302   7.406   3.323   6.771  0.6277 -0.0872 -0.4502
  154MOL    O9746303   7.297   3.468   6.634 -0.2396  0.1743 -0.3422
  154MOL    C9846304   7.167   3.408   6.647 -0.4178  0.3159 -0.4507
  154MOL    H9946305   7.572   3.729   6.728 -0.2088  1.6558  1.6617
  154MOL   H10046306   7.406   3.675   6.734 -0.2167 -1.0131 -0.6468
  154MOL   H10146307   7.746   3.467   6.757  0.3941 -0.7193  1.5653
  154MOL   H10246308   7.629   3.384   6.841  0.8351  0.1624  0.6292
  154MOL   H10346309   7.655   3.327   6.688  0.8589  0.0426 -1.5401
  154MOL   H10446310   7.155   3.326   6.576  1.4146 -0.4545  0.0889
  154MOL   H10546311   7.092   3.485   6.630 -0.7516 -0.2348 -1.5316
  154MOL   H10646312   7.134   3.377   6.746  0.6535 -2.6821 -0.9880
  154MOL   C10746313   7.543   3.566   6.540 -0.0595 -0.2380  0.4639
  154MOL   C10846314   7.673   3.615   6.463  0.0090 -0.1431 -0.4859
  154MOL   C10946315   7.730   3.741   6.531 -0.3761  0.4808 -0.5426
  154MOL   C11046316   7.774   3.502   6.467 -0.1852 -0.0371  0.1164
  154MOL   O11146317   0.016   3.525   6.496 -0.0343  0.3664  0.2824
  154MOL   O11246318   7.732   3.382   6.428  0.2169  0.2413  0.3930
  154MOL   C11346319   7.810   3.268   6.451  0.1713 -0.3684  0.2351
  154MOL   H11446320   7.462   3.635   6.517 -0.4831  0.0447  2.6883
  154MOL   H11546321   7.505   3.481   6.483  1.1586 -0.5749  0.1343
  154MOL   H11646322   7.772   3.722   6.630 -0.1919  1.3278 -0.4543
  154MOL   H11746323   7.812   3.792   6.480 -0.1530  1.6745  0.9670
  154MOL   H11846324   7.654   3.816   6.552  0.7570  0.8806  2.3888
  154MOL   H11946325   7.779   3.192   6.380 -0.1301  1.2445 -1.4037
  154MOL   H12046326   7.801   3.230   6.553 -0.7087  0.3906  0.4495
  154MOL   H12146327   0.038   3.284   6.434  0.2345 -1.1297 -0.0818
  154MOL   C12246328   7.627   3.645   6.315  0.2261  0.2269  0.7120
  154MOL   C12346329   7.707   3.731   6.206 -0.0383  0.6320 -0.4270
  154MOL   C12446330   7.734   3.881   6.248  0.1038 -0.1948  1.0159
  154MOL   C12546331   7.839   3.660   6.174  0.2943 -0.3930 -0.7956
  154MOL   O12646332   0.061   3.729   6.157  0.1092 -0.2671  0.2674
  154MOL   O12746333   7.821   3.520   6.158 -0.2522 -0.7809  0.5487
  154MOL   C12846334   0.057   3.441   6.113  0.2996  0.4660  0.1865
  154MOL   H12946335   7.532   3.699   6.315  0.1284  0.1106 -1.8139
  154MOL   H13046336   7.595   3.552   6.267  2.7783 -1.0963  1.4836
  154MOL   H13146337   7.752   3.943   6.161 -2.0519 -1.3569 -0.2997
  154MOL   H13246338   7.646   3.918   6.300  0.3088 -0.5636  1.6252
  154MOL   H13346339   7.822   3.899   6.309  0.7915 -0.6685  0.1841
  154MOL   H13446340   0.139   3.441   6.185 -0.0436  1.8363  0.5956
  154MOL   H13546341   0.091   3.476   6.016 -2.0676  1.2214 -0.4082
  154MOL   H13646342   0.025   3.339   6.092 -0.1960  0.5325  0.5924
  154MOL   C13746343   7.605   3.736   6.083 -0.3957 -0.0772 -0.5527
  154MOL   C13846344   7.640   3.739   5.932 -0.0881 -0.9489  0.4902
  154MOL   C13946345   7.513   3.782   5.859  0.1430 -0.6032 -0.2939
  154MOL   C14046346   7.737   3.860   5.900  0.0387  0.5123  0.0704
  154MOL   O14146347   7.699   3.973   5.868 -0.3646 -0.3334  0.0209
  154MOL   O14246348   7.861   3.825   5.920  0.6411  0.0126 -0.1760
  154MOL   C14346349   0.082   3.921   5.908  0.6162 -0.9612  0.2392
  154MOL   H14446350   7.548   3.827   6.102  0.3938  0.3895 -0.3946
  154MOL   H14546351   7.536   3.652   6.088 -1.3567  0.7595  0.4781
  154MOL   H14646352   7.431   3.710   5.859 -0.3918 -0.0230  2.1258
  154MOL   H14746353   7.474   3.873   5.904 -0.4339 -1.1351  0.2904
  154MOL   H14846354   7.529   3.804   5.753  0.0276  0.9108  0.0026
  154MOL   H14946355   0.057   4.019   5.949  1.8190 -0.0867 -1.0749
  154MOL   H15046356   0.102   3.947   5.805  0.6288  0.0483  0.4908
  154MOL   H15146357   0.166   3.873   5.958  2.2422  0.8378 -0.7085
  154MOL   C15246358   7.691   3.606   5.878 -0.2885  0.7782 -0.8693
  154MOL   C15346359   7.692   3.554   5.730  0.2453 -0.1579 -0.1321
  154MOL   C15446360   7.759   3.665   5.639  0.1202  0.8579  0.3240
  154MOL   C15546361   7.786   3.433   5.728  0.1215  0.0079  0.5311
  154MOL   O15646362   7.822   3.373   5.829 -0.1739 -0.0386 -0.0585
  154MOL   O15746363   7.829   3.399   5.607  1.0577 -0.1753 -0.2274
  154MOL   C15846364   0.044   3.296   5.603  0.1974 -0.6328 -0.0343
  154MOL   H15946365   7.632   3.533   5.933 -0.0808  0.5342 -0.9705
  154MOL   H16046366   7.790   3.587   5.921 -1.7241 -1.2662  1.6871
  154MOL   H16146367   7.704   3.759   5.634 -0.6669  0.3260 -1.5123
  154MOL   H16246368   7.863   3.681   5.666  0.2958  1.4973 -0.6857
  154MOL   H16346369   7.742   3.631   5.536 -1.5001 -1.6292  1.3624
  154MOL   H16446370   0.090   3.281   5.505 -0.8575  0.1587 -0.6642
  154MOL   H16546371   7.863   3.208   5.630 -0.1443  0.4888  2.9988
  154MOL   H16646372   0.120   3.311   5.679  1.5219 -2.4793 -0.9543
  154MOL   C16746373   7.536   3.517   5.684 -0.1696  0.3739  0.1350
  154MOL   C16846374   7.494   3.431   5.569 -0.2280  0.6919 -0.3567
  154MOL   C16946375   7.550   3.492   5.434 -0.5074 -0.0071  0.0148
  154MOL   C17046376   7.539   3.286   5.594 -0.3585 -0.0923  0.1516
  154MOL   O17146377   7.606   3.230   5.506 -0.0438  0.2734 -0.1023
  154MOL   O17246378   7.504   3.229   5.713  0.2248 -0.3017 -0.4539
  154MOL   C17346379   7.520   3.092   5.749  0.6051 -0.0888 -0.3455
  154MOL   H17446380   7.478   3.609   5.676 -1.5630 -0.2786  2.2036
  154MOL   H17546381   7.496   3.469   5.774 -1.4583  0.7810 -0.1996
  154MOL   H17646382   7.532   3.598   5.418  0.5030  0.1866  0.1306
  154MOL   H17746383   7.658   3.499   5.422 -0.5103 -0.2271 -0.1576
  154MOL   H17846384   7.524   3.431   5.347  0.1677 -1.4233  0.7907
  154MOL   H17946385   7.626   3.068   5.741  1.5367  2.8039  2.1206
  154MOL   H18046386   7.469   3.027   5.679 -0.7676 -0.1833  0.6988
  154MOL   H18146387   7.493   3.070   5.853  0.3522  1.7544 -0.0043
  154MOL   C18246388   7.335   3.441   5.566  0.8082  0.0342  0.3535
  154MOL   C18346389   7.230   3.342   5.504 -0.9642  0.3515  0.2840
  154MOL   C18446390   7.276   3.300   5.358 -0.5906 -0.1936  0.5484
  154MOL   C18546391   7.223   3.214   5.595 -0.0937 -0.2354 -0.3210
  154MOL   O18646392   7.268   3.103   5.560  0.9632 -0.1167 -0.0824
  154MOL   O18746393   7.167   3.237   5.713 -0.3139  0.3578  0.0366
  154MOL   C18846394   7.150   3.137   5.807  0.5247  0.1659 -0.1280
  154MOL   H18946395   7.323   3.525   5.498  1.1921  1.1457  1.6500
  154MOL   H19046396   7.294   3.488   5.655  0.2861 -0.9488  0.6337
  154MOL   H19146397   7.383   3.280   5.355 -0.3743  0.9263  0.5844
  154MOL   H19246398   7.226   3.208   5.327 -0.7833 -0.5747  1.9543
  154MOL   H19346399   7.259   3.379   5.285  1.2315 -0.6073 -0.3678
  154MOL   H19446400   7.090   3.165   5.894 -1.0400  0.1928 -1.2066
  154MOL   H19546401   7.245   3.099   5.847 -0.6353 -1.1204  1.5122
  154MOL   H19646402   7.103   3.049   5.764  0.5081  0.0274  0.1740
  154MOL   C19746403   7.089   3.420   5.493  0.2642  0.5672  0.1496
  154MOL   C19846404   6.955   3.353   5.433  0.6176 -0.3288  0.8047
  154MOL   C19946405   6.920   3.221   5.509  0.3063  0.4696 -0.0479
  154MOL   C20046406   6.840   3.453   5.465  0.3597 -0.5495 -0.2218
  154MOL   O20146407   6.726   3.420   5.505  0.3155 -0.0994 -0.1055
  154MOL   O20246408   6.870   3.581   5.442 -0.1175  0.4365  0.3852
  154MOL   C20346409   6.766   3.681   5.444  0.2442 -1.4243 -0.0934
  154MOL   H20446410   7.106   3.518   5.447  0.4527  0.6490  0.3895
  154MOL   H20546411   7.053   3.453   5.590 -0.7063 -0.4870  0.1520
  154MOL   H20646412   6.909   3.236   5.616  0.7272 -0.6317  0.1616
  154MOL   H20746413   6.819   3.185   5.486  0.3025 -0.1898  0.9792
  154MOL   H20846414   6.996   3.147   5.486  0.8041  0.6462  1.0005
  154MOL   H20946415   6.704   3.665   5.533  1.4542  0.9303  1.1917
  154MOL   H21046416   6.713   3.683   5.348  0.0976  0.5694  0.0177
  154MOL   H21146417   6.818   3.774   5.461 -0.6172 -1.1360  1.0288
  154MOL   C21246418   6.970   3.329   5.273  0.2088 -0.0930 -1.5898
  154MOL   C21346419   6.855   3.309   5.163  0.1051 -0.2178 -0.1633
  154MOL   C21446420   6.739   3.239   5.231  0.6191  0.3207 -0.1341
  154MOL   C21546421   6.798   3.443   5.109 -0.0142  0.8981 -0.0725
  154MOL   O21646422   6.840   3.551   5.154 -0.4671  0.5032 -0.1140
  154MOL   O21746423   6.700   3.424   5.013  0.0070 -0.5296  0.2228
  154MOL   C21846424   6.628   3.540   4.965 -0.6128  0.4080 -0.4093
  154MOL   H21946425   7.030   3.238   5.281  1.9944  1.2276  0.5831
  154MOL   H22046426   7.044   3.404   5.248  1.0752 -0.4710 -0.2118
  154MOL   H22146427   6.779   3.158   5.290  0.0892  0.0672 -0.1200
  154MOL   H22246428   6.678   3.303   5.294  0.1227  2.0748 -2.3025
  154MOL   H22346429   6.662   3.199   5.166  2.2696 -0.4831 -1.6486
  154MOL   H22446430   6.541   3.522   4.903 -0.7805  0.8126 -0.2904
  154MOL   H22546431   6.706   3.585   4.904  0.9339 -1.8685 -0.1975
  154MOL   H22646432   6.598   3.597   5.053  0.9898 -0.6244  0.8633
  154MOL   C22746433   6.901   3.207   5.041  0.1416 -0.0490 -0.1422
  154MOL   C22846434   7.018   3.232   4.932  0.0700  0.8382 -0.6551
  154MOL   C22946435   7.014   3.093   4.848  0.3849  0.5360  0.3295
  154MOL   C23046436   6.986   3.348   4.834 -0.1779 -0.0340 -1.3941
  154MOL   O23146437   7.018   3.465   4.857 -0.5122 -0.0876  0.2381
  154MOL   O23246438   6.896   3.318   4.741  0.0897  0.4473  0.1041
  154MOL   C23346439   6.864   3.418   4.642  0.4794 -0.3158 -0.2899
  154MOL   H23446440   6.806   3.202   4.989 -0.8660  1.0758  1.5037
  154MOL   H23546441   6.896   3.103   5.073 -2.8718 -0.1551 -0.8639
  154MOL   H23646442   7.055   3.011   4.906  0.9714  1.2724  0.9554
  154MOL   H23746443   6.911   3.063   4.828  1.1340 -1.6307 -0.3374
  154MOL   H23846444   7.061   3.103   4.750 -0.0923 -0.5477 -0.0128
  154MOL   H23946445   6.794   3.380   4.568 -0.9499 -0.9042  1.3411
  154MOL   H24046446   6.952   3.456   4.589 -0.7583  1.5927 -1.0241
  154MOL   H24146447   6.813   3.502   4.689 -2.4350 -3.4772  2.4521
  154MOL   C24246448   7.156   3.240   4.998  0.0194 -0.1128 -0.4864
  154MOL   C24346449   7.299   3.277   4.933  0.3067 -0.0480  0.1958
  154MOL   C24446450   7.301   3.222   4.783  0.4268  0.4927 -0.9022
  154MOL   C24546451   7.311   3.434   4.926  0.6042  0.0323  0.3180
  154MOL   O24646452   7.340   3.495   4.819  0.1095 -0.1719 -0.4610
  154MOL   O24746453   7.295   3.496   5.042  0.2769 -1.3690 -0.1045
  154MOL   C24846454   7.260   3.640   5.042 -0.5752  0.1512 -0.1697
  154MOL   H24946455   7.178   3.148   5.052 -0.5073  0.6491  1.0632
  154MOL   H25046456   7.138   3.321   5.069 -1.4764 -0.9778  0.1586
  154MOL   H25146457   7.289   3.115   4.767 -1.5040  0.5130  0.3135
  154MOL   H25246458   7.230   3.272   4.717  0.3915 -1.2344 -2.2124
  154MOL   H25346459   7.395   3.257   4.741  0.0161 -1.0772 -3.1989
  154MOL   H25446460   7.157   3.649   5.008 -0.1631 -0.7330 -1.7375
  154MOL   H25546461   7.325   3.702   4.979 -0.2899 -0.3886 -0.4131
  154MOL   H25646462   7.270   3.667   5.147 -0.0814 -0.0979 -0.1507
  154MOL   C25746463   7.409   3.215   5.026  0.6613 -0.1260  0.8401
  154MOL   C25846464   7.572   3.216   5.000 -0.2934 -0.3352  0.6731
  154MOL   C25946465   7.610   3.121   4.882 -0.4577  0.3551  1.1094
  154MOL   C26046466   7.612   3.360   4.972 -0.2288 -0.1396 -0.4652
  154MOL   O26146467   7.649   3.401   4.855 -0.9154  0.5323  0.5260
  154MOL   O26246468   7.609   3.430   5.085  0.6122  0.3397  0.0070
  154MOL   C26346469   7.659   3.559   5.086  0.8208  0.7450 -0.2413
  154MOL   H26446470   7.391   3.109   5.045  2.5647 -0.5966  0.0863
  154MOL   H26546471   7.401   3.265   5.123 -2.4186 -1.2570  1.2424
  154MOL   H26646472   7.715   3.137   4.856 -0.3384  1.6682  2.3505
  154MOL   H26746473   7.600   3.016   4.909  0.5499  0.4782  2.0074
  154MOL   H26846474   7.560   3.137   4.787  1.2152  0.8839  0.2921
  154MOL   H26946475   7.618   3.615   5.170 -0.5175 -0.8702  0.1849
  154MOL   H27046476   7.642   3.624   5.000 -2.4927  2.3391  1.5126
  154MOL   H27146477   7.768   3.553   5.083  0.7601  0.0767 -4.2378
  154MOL   C27246478   7.648   3.161   5.123 -0.1099  0.9017  0.4751
  154MOL   C27346479   7.802   3.141   5.139  1.1726 -0.0042 -0.2028
  154MOL   C27446480   7.828   3.160   5.293  0.2694 -0.3784  0.0878
  154MOL   C27546481   7.842   2.999   5.094 -0.4846 -0.0769 -0.0135
  154MOL   O27646482   0.030   2.971   4.992  0.4084  0.2374  0.2307
  154MOL   O27746483   7.797   2.906   5.182 -0.2319  0.1286 -0.0395
  154MOL   C27846484   7.822   2.771   5.144 -0.4236  0.2845 -0.1054
  154MOL   H27946485   7.594   3.074   5.159 -1.2464  1.2925 -0.2509
  154MOL   H28046486   7.625   3.226   5.208  2.2356  0.1586  1.7140
  154MOL   H28146487   7.841   3.262   5.329 -1.0242  0.2407 -1.1588
  154MOL   H28246488   7.751   3.111   5.352 -0.9095  0.0393 -1.0797
  154MOL   H28346489   0.040   3.106   5.324  0.7105  1.0218  1.3648
  154MOL   H28446490   0.053   2.767   5.138 -0.5187 -1.9216 -0.7175
  154MOL   H28546491   7.776   2.752   5.047  1.2730 -1.7221 -0.5514
  154MOL   H28646492   7.797   2.699   5.222  2.5736 -0.2355  0.4312
  154MOL   C28746493   0.009   3.246   5.069 -0.1559  0.2975  0.1912
  154MOL   C28846494   0.166   3.253   5.108 -0.0053  0.3196  0.5376
  154MOL   C28946495   0.238   3.319   4.996  0.2046  0.0812  0.0384
  154MOL   C29046496   0.206   3.336   5.231  0.4980 -0.3192  0.2159
  154MOL   O29146497   0.293   3.294   5.303 -0.2278 -0.0511  0.1446
  154MOL   O29246498   0.142   3.444   5.236 -0.4640  0.5595 -0.2793
  154MOL   C29346499   0.157   3.538   5.340  0.3241 -0.4893 -0.2479
  154MOL   H29446500   7.844   3.347   5.072  0.7914  0.7150 -0.1459
  154MOL   H29546501   0.001   3.228   4.962  0.9007 -0.1689  0.1902
  154MOL   H29646502   0.339   3.340   5.032  0.3141  0.7643 -0.6658
  154MOL   H29746503   0.258   3.252   4.912 -1.1685  0.2078 -0.4094
  154MOL   H29846504   0.181   3.405   4.961  1.6249  0.5134 -1.2720
  154MOL   H29946505   0.085   3.527   5.420  1.2509  1.7424  0.9322
  154MOL   H30046506   0.132   3.628   5.284 -1.6018 -0.0883  1.2393
  154MOL   H30146507   0.260   3.547   5.375  0.4899  3.4036 -1.4991
  154MOL   H30246508   0.215   3.158   5.129 -0.4327 -0.4367 -1.8050
  155MOL     C146509   1.523   5.263   2.954 -0.0303 -0.3245  0.4957
  155MOL     C246510   1.429   5.137   2.931 -0.4856 -0.6720 -0.2370
  155MOL     C346511   1.426   5.058   3.067 -0.1970  0.0549  0.0265
  155MOL     C446512   1.287   5.184   2.895  0.4471  0.4951  0.2560
  155MOL     O546513   1.269   5.287   2.830  0.0421 -0.0933 -0.3791
  155MOL     O646514   1.182   5.097   2.927 -0.1821  0.7808  0.7051
  155MOL     C746515   1.045   5.121   2.899  0.3327  0.1491  0.3460
  155MOL     H846516   1.501   5.323   3.042  1.1573 -0.6370  1.0135
  155MOL     H946517   1.621   5.221   2.975  0.1003 -0.5354 -0.5149
  155MOL    H1046518   1.491   4.973   3.049 -1.9397 -1.3560  0.3061
  155MOL    H1146519   1.452   5.117   3.155 -2.0172  0.8202  0.0739
  155MOL    H1246520   1.329   5.016   3.094 -0.9164  2.7315  1.9360
  155MOL    H1346521   1.029   5.167   2.801  0.0873  1.5501  1.0271
  155MOL    H1446522   1.024   5.200   2.971  1.8452  0.0122  0.9635
  155MOL    H1546523   0.973   5.040   2.902 -0.6683  1.0497  1.3213
  155MOL    H1646524   1.522   5.324   2.864  1.0153  0.6136  1.1101
  155MOL    C1746525   1.496   5.058   2.817 -0.6648 -0.1460 -0.4476
  155MOL    C1846526   1.443   4.932   2.739 -0.2223  0.1808  0.0586
  155MOL    C1946527   1.347   4.991   2.630 -0.1531 -0.3275 -0.5663
  155MOL    C2046528   1.565   4.862   2.674 -0.1779 -0.4860  0.8071
  155MOL    O2146529   1.593   4.899   2.562 -0.2428  0.3767 -0.3614
  155MOL    O2246530   1.632   4.788   2.761 -0.0705  0.0129 -0.1694
  155MOL    C2346531   1.758   4.732   2.721 -0.1934  0.0341 -0.2820
  155MOL    H2446532   1.596   5.037   2.857 -1.5085  0.4512  2.0946
  155MOL    H2546533   1.530   5.137   2.750 -1.3199 -1.2801 -2.1519
  155MOL    H2646534   1.248   5.016   2.667 -0.9825 -0.5227 -2.5912
  155MOL    H2746535   1.390   5.078   2.580 -0.9994 -1.8981 -4.1818
  155MOL    H2846536   1.325   4.917   2.553 -0.3515 -0.5596 -0.2852
  155MOL    H2946537   1.811   4.788   2.643  1.6701 -0.9259  0.2593
  155MOL    H3046538   1.735   4.634   2.679 -2.0609 -0.7965  2.5993
  155MOL    H3146539   1.822   4.723   2.808 -0.6923  0.3291  0.1128
  155MOL    C3246540   1.372   4.825   2.835 -0.0189  0.5139 -0.3747
  155MOL    C3346541   1.306   4.682   2.798  0.4611  0.4466 -0.8441
  155MOL    C3446542   1.187   4.678   2.893  0.0371  0.6283  0.5857
  155MOL    C3546543   1.258   4.670   2.652  0.0347 -0.0520  0.3186
  155MOL    O3646544   1.137   4.659   2.623 -0.1401  0.3136  0.3433
  155MOL    O3746545   1.361   4.652   2.564 -0.2355 -0.0226 -0.4416
  155MOL    C3846546   1.337   4.626   2.428 -0.0158  0.3751  0.0313
  155MOL    H3946547   1.288   4.884   2.870 -1.4262 -0.7920 -1.4712
  155MOL    H4046548   1.436   4.812   2.922 -0.8825 -0.8342  0.0882
  155MOL    H4146549   1.226   4.684   2.994  0.8855  2.6796  0.1436
  155MOL    H4246550   1.121   4.762   2.874 -0.9965  0.0539  1.5285
  155MOL    H4346551   1.132   4.584   2.880  1.2892 -0.9339  5.5564
  155MOL    H4446552   1.237   4.640   2.387  0.9742  2.4905 -1.7615
  155MOL    H4546553   1.368   4.522   2.411 -2.6265 -1.0050  3.1605
  155MOL    H4646554   1.395   4.684   2.357 -1.2418  1.0515 -0.4263
  155MOL    C4746555   1.416   4.573   2.832  0.6940 -0.0231  0.4235
  155MOL    C4846556   1.381   4.417   2.855 -0.4134 -0.0443 -0.1099
  155MOL    C4946557   1.275   4.365   2.757  0.7925 -0.3112 -0.1611
  155MOL    C5046558   1.513   4.346   2.817  0.9666  0.2207  0.8509
  155MOL    O5146559   1.519   4.260   2.728 -0.4490 -0.2261 -0.4775
  155MOL    O5246560   1.617   4.386   2.894 -0.2339 -0.2301  0.4173
  155MOL    C5346561   1.754   4.333   2.868  0.5576 -0.5148 -0.0158
  155MOL    H5446562   1.472   4.607   2.920  0.1589  1.3667  0.2380
  155MOL    H5546563   1.486   4.590   2.750 -1.7385  0.5422 -1.5765
  155MOL    H5646564   1.257   4.258   2.763 -0.2097 -0.1387  0.0935
  155MOL    H5746565   1.176   4.410   2.771  1.9160  1.5255  2.0667
  155MOL    H5846566   1.306   4.389   2.655  0.5867  1.9255  0.2839
  155MOL    H5946567   1.790   4.343   2.766 -0.3561 -0.5474 -0.3429
  155MOL    H6046568   1.755   4.236   2.917 -1.0394 -1.4357 -1.7655
  155MOL    H6146569   1.823   4.390   2.931  0.7936 -0.2007 -0.5570
  155MOL    C6246570   1.344   4.386   3.003 -0.9312 -0.3507 -0.6173
  155MOL    C6346571   1.296   4.250   3.055 -0.1010 -0.7365 -0.8648
  155MOL    C6446572   1.363   4.128   2.990  0.0363  0.0236 -0.0460
  155MOL    C6546573   1.328   4.240   3.207 -0.1996 -0.2657  0.2411
  155MOL    O6646574   1.398   4.152   3.255  0.3019  0.1730  0.6620
  155MOL    O6746575   1.271   4.336   3.286 -0.4027  0.1372 -0.1107
  155MOL    C6846576   1.304   4.349   3.423  0.0618 -0.2226  0.0077
  155MOL    H6946577   1.264   4.453   3.033 -0.6198 -0.5816  0.7728
  155MOL    H7046578   1.424   4.430   3.062 -2.3750  1.8080 -0.2161
  155MOL    H7146579   1.351   4.126   2.881  1.1017  1.3587 -0.2108
  155MOL    H7246580   1.465   4.122   3.027  0.2509  2.4251 -0.1719
  155MOL    H7346581   1.312   4.039   3.026 -0.2442  0.4826  0.6913
  155MOL    H7446582   1.318   4.261   3.485  0.9253  0.5407  0.9104
  155MOL    H7546583   1.222   4.409   3.462  1.8353  2.6799 -0.5517
  155MOL    H7646584   1.394   4.408   3.440  0.5002 -0.4563 -1.4138
  155MOL    C7746585   1.137   4.252   3.030 -0.3489 -0.2944  0.3009
  155MOL    C7846586   1.042   4.133   3.040  0.4649 -0.1224  0.1351
  155MOL    C7946587   1.062   4.045   2.909 -0.3776  0.3466  0.4360
  155MOL    C8046588   1.072   4.049   3.165 -0.1351  0.4172 -0.1890
  155MOL    O8146589   1.078   3.925   3.154  0.3997 -0.1334  0.3333
  155MOL    O8246590   1.079   4.120   3.286  0.6063 -0.7441  0.8007
  155MOL    C8346591   1.083   4.034   3.405 -0.3845  0.3192  0.0769
  155MOL    H8446592   1.112   4.298   2.934  0.2641  0.1499  0.3481
  155MOL    H8546593   1.090   4.320   3.101  0.9698 -0.6997  1.5882
  155MOL    H8646594   1.104   4.099   2.824  1.4474 -1.5119  0.1076
  155MOL    H8746595   1.139   3.967   2.918  0.6872  1.1823 -1.1035
  155MOL    H8846596   0.968   4.000   2.876 -0.5438  1.5829 -0.8192
  155MOL    H8946597   1.162   3.960   3.402 -0.6797 -0.0018  0.1784
  155MOL    H9046598   0.992   3.975   3.418  0.1567 -1.0653 -2.2611
  155MOL    H9146599   1.095   4.095   3.495  3.3300 -1.1112  0.6329
  155MOL    C9246600   0.895   4.184   3.029  0.0687 -0.0469 -0.3393
  155MOL    C9346601   0.759   4.117   3.078 -0.1575  0.2711  0.0568
  155MOL    C9446602   0.749   3.968   3.030 -0.0377  0.7021 -0.9927
  155MOL    C9546603   0.751   4.127   3.231 -0.2620  1.0451  0.0475
  155MOL    O9646604   0.707   4.036   3.299 -0.4223 -0.2708  0.5692
  155MOL    O9746605   0.790   4.243   3.278  0.3349 -0.8117 -0.4696
  155MOL    C9846606   0.793   4.263   3.419  0.4633  0.2085 -0.2482
  155MOL    H9946607   0.874   4.214   2.926  0.8764 -2.9941 -1.4154
  155MOL   H10046608   0.889   4.285   3.070  2.8687 -0.6418  1.6474
  155MOL   H10146609   0.755   3.953   2.922  1.6168 -1.5418 -0.6208
  155MOL   H10246610   0.832   3.909   3.068  1.2285  2.6163 -0.6804
  155MOL   H10346611   0.663   3.915   3.069  0.2614 -0.2058 -1.5647
  155MOL   H10446612   0.883   4.305   3.464  0.2367 -1.2264  1.5689
  155MOL   H10546613   0.778   4.171   3.474  0.3113  0.3302 -0.0829
  155MOL   H10646614   0.717   4.336   3.448 -1.3625 -1.1427 -1.4989
  155MOL   C10746615   0.624   4.182   3.017  0.2293 -0.0611 -0.8950
  155MOL   C10846616   0.592   4.339   3.011  0.1305  0.3474 -0.0811
  155MOL   C10946617   0.585   4.410   3.152 -0.3673  0.2520 -0.4610
  155MOL   C11046618   0.705   4.401   2.927  0.4321  0.0523  0.4014
  155MOL   O11146619   0.783   4.486   2.970  0.1201 -0.4775  0.6242
  155MOL   O11246620   0.710   4.355   2.803 -0.3226 -0.1430  0.3198
  155MOL   C11346621   0.807   4.401   2.724 -0.1783  0.1735  0.2702
  155MOL   H11446622   0.543   4.131   3.069  0.3600  0.4142 -0.2278
  155MOL   H11546623   0.601   4.145   2.917  0.8786 -1.3042 -0.5950
  155MOL   H11646624   0.681   4.419   3.204 -0.2878 -1.9810 -0.1705
  155MOL   H11746625   0.542   4.510   3.154 -2.8273 -0.7255 -2.7653
  155MOL   H11846626   0.523   4.352   3.220 -0.6749 -0.2865 -1.2035
  155MOL   H11946627   0.762   4.412   2.625  0.1426 -2.7242 -0.2176
  155MOL   H12046628   0.880   4.322   2.706 -0.4260 -0.7682  3.2151
  155MOL   H12146629   0.851   4.498   2.749  2.0612 -0.3047 -1.6254
  155MOL   C12246630   0.445   4.346   2.946 -0.2741 -0.7001 -0.7782
  155MOL   C12346631   0.381   4.469   2.868  0.2624  0.2094 -0.7495
  155MOL   C12446632   0.371   4.598   2.956 -0.3302  0.2100  0.4578
  155MOL   C12546633   0.442   4.497   2.734 -0.2874  0.2461 -0.5321
  155MOL   O12646634   0.497   4.605   2.707  0.3024 -0.2339  0.3966
  155MOL   O12746635   0.437   4.393   2.643 -0.2063  0.5544  0.4044
  155MOL   C12846636   0.479   4.418   2.511  0.2242  0.0483  0.6527
  155MOL   H12946637   0.385   4.301   3.025  2.3718 -0.9292  1.1485
  155MOL   H13046638   0.441   4.265   2.873 -0.1830 -2.5439  1.2118
  155MOL   H13146639   0.313   4.588   3.048 -0.4251  1.7029  0.5689
  155MOL   H13246640   0.471   4.632   2.979 -0.4655  1.3804 -0.6214
  155MOL   H13346641   0.341   4.676   2.885  1.6449 -1.4759 -2.3304
  155MOL   H13446642   0.391   4.463   2.466  1.9465  1.0855 -1.7666
  155MOL   H13546643   0.494   4.326   2.455 -0.0763  0.8532 -0.7717
  155MOL   H13646644   0.571   4.476   2.511  0.4147 -0.2554 -0.1130
  155MOL   C13746645   0.235   4.424   2.848  0.2489  0.0013  0.1148
  155MOL   C13846646   0.111   4.502   2.793 -0.1469 -0.2822  0.4272
  155MOL   C13946647   0.143   4.591   2.666 -0.1990 -0.7588  0.5387
  155MOL   C14046648   0.009   4.392   2.751 -0.2109  0.0057 -0.0825
  155MOL   O14146649   7.848   4.391   2.635 -0.2490  0.2333 -0.2612
  155MOL   O14246650   7.847   4.302   2.842 -0.3856 -0.3863 -0.5774
  155MOL   C14346651   7.745   4.214   2.799  0.2503 -0.5612 -0.3240
  155MOL   H14446652   0.204   4.388   2.947  1.2024 -1.4818 -0.1122
  155MOL   H14546653   0.236   4.334   2.787  1.5551 -0.1327  0.3242
  155MOL   H14646654   0.060   4.614   2.599  0.7217 -0.5356 -0.5520
  155MOL   H14746655   0.188   4.689   2.682 -1.1244 -0.1255 -0.6335
  155MOL   H14846656   0.216   4.546   2.599 -0.4046  1.1762 -1.0539
  155MOL   H14946657   7.705   4.165   2.888  0.9180 -0.6082 -0.0438
  155MOL   H15046658   7.778   4.150   2.717  0.9021 -2.4467  1.3604
  155MOL   H15146659   7.648   4.252   2.768  0.7857  3.1603  2.2260
  155MOL   C15246660   0.057   4.590   2.903  0.2797  0.2708 -0.1670
  155MOL   C15346661   7.792   4.658   2.902 -0.1102  0.3318 -0.8200
  155MOL   C15446662   7.765   4.733   2.769 -0.0808  0.7163 -0.6695
  155MOL   C15546663   7.674   4.554   2.920  0.2872 -0.6439  0.2111
  155MOL   O15646664   7.586   4.554   2.836  0.3561 -0.1668  0.1390
  155MOL   O15746665   7.677   4.470   3.028  0.0937 -0.8456 -0.0666
  155MOL   C15846666   7.573   4.381   3.048  0.3224  0.3552 -0.1166
  155MOL   H15946667   0.127   4.672   2.922 -0.0427  0.5736 -0.2868
  155MOL   H16046668   0.061   4.532   2.995 -2.1708  1.1256  0.5124
  155MOL   H16146669   7.673   4.790   2.766 -1.1396 -0.8862  0.8326
  155MOL   H16246670   7.844   4.805   2.743  1.4651 -0.8849 -0.5139
  155MOL   H16346671   7.756   4.665   2.684  1.0086 -2.0970  1.3978
  155MOL   H16446672   7.491   4.424   3.106 -0.4315 -0.6067 -0.4393
  155MOL   H16546673   7.614   4.287   3.086 -1.6792 -1.9954 -3.4824
  155MOL   H16646674   7.533   4.350   2.952  0.1265 -1.4263  0.5159
  155MOL   C16746675   7.802   4.757   3.025  0.1895  0.1492 -0.1597
  155MOL   C16846676   7.683   4.837   3.099 -0.3343  0.2574 -0.3846
  155MOL   C16946677   7.583   4.884   2.989  0.1520  0.2136 -0.6019
  155MOL   C17046678   7.607   4.754   3.201  0.2904 -0.3329  0.2466
  155MOL   O17146679   7.487   4.771   3.222  0.3318 -0.3275  0.2246
  155MOL   O17246680   7.685   4.662   3.254 -0.2259  0.3912  0.2529
  155MOL   C17346681   7.645   4.572   3.353  0.6999 -0.0222 -0.5475
  155MOL   H17446682   0.001   4.831   3.001  0.0412  0.6850  1.0007
  155MOL   H17546683   7.855   4.698   3.099  1.2107  0.9607 -0.2360
  155MOL   H17646684   7.499   4.944   3.026 -1.4933 -2.8008  0.7035
  155MOL   H17746685   7.623   4.948   2.910 -0.7096  2.5608  0.7902
  155MOL   H17846686   7.541   4.799   2.935  0.4790  0.0987 -0.6782
  155MOL   H17946687   7.634   4.619   3.451 -0.4919 -2.5976  0.6041
  155MOL   H18046688   7.721   4.495   3.358  0.6440 -0.0642 -0.3534
  155MOL   H18146689   7.545   4.533   3.339 -1.2192  3.1505  3.2258
  155MOL   C18246690   7.743   4.968   3.161 -0.1702 -0.5106 -0.2319
  155MOL   C18346691   7.686   5.053   3.281  0.2083 -0.5681  0.1014
  155MOL   C18446692   7.543   5.101   3.243  0.6597  0.0198 -0.2254
  155MOL   C18546693   7.684   4.984   3.427 -0.1174 -0.3444 -0.0916
  155MOL   O18646694   7.748   4.884   3.456 -1.0499  0.1890 -0.0924
  155MOL   O18746695   7.582   5.027   3.492  0.2572 -0.7513  0.2270
  155MOL   C18846696   7.544   4.954   3.613 -0.5688 -0.1776  0.1063
  155MOL   H18946697   7.766   5.037   3.080  4.2181 -1.0158  0.4728
  155MOL   H19046698   7.838   4.928   3.195  0.1235  2.2228  2.3213
  155MOL   H19146699   7.540   5.156   3.149 -1.8883  0.4581  0.0898
  155MOL   H19246700   7.474   5.017   3.248  2.5232 -1.5270  0.5789
  155MOL   H19346701   7.491   5.171   3.309 -1.6797 -2.4312  0.6465
  155MOL   H19446702   7.626   4.937   3.682 -2.2948  0.4394  2.3676
  155MOL   H19546703   7.493   4.860   3.591 -0.0472  0.1781 -2.8182
  155MOL   H19646704   7.480   5.027   3.661  1.3534  0.9432  1.0147
  155MOL   C19746705   7.768   5.193   3.295 -0.0849 -0.0852  0.1321
  155MOL   C19846706   0.030   5.214   3.363 -0.4938  0.4318 -0.4155
  155MOL   C19946707   0.021   5.217   3.523  0.2388  1.1345  0.1670
  155MOL   C20046708   0.140   5.116   3.314  1.1334  0.4333 -0.6420
  155MOL   O20146709   0.189   5.027   3.384  0.3628 -1.3544 -0.2579
  155MOL   O20246710   0.164   5.127   3.185  0.1707  0.4118  0.5081
  155MOL   C20346711   0.256   5.036   3.120 -0.2105 -0.0334 -0.2372
  155MOL   H20446712   7.703   5.267   3.342 -0.7160 -1.1474  0.9519
  155MOL   H20546713   7.783   5.215   3.189 -1.2090  0.5815  0.0976
  155MOL   H20646714   7.867   5.312   3.566 -0.7610  1.2366 -0.7629
  155MOL   H20746715   7.843   5.134   3.565  2.4399 -0.0787  0.7885
  155MOL   H20846716   0.118   5.198   3.569 -0.5137  2.6526  2.4408
  155MOL   H20946717   0.308   5.088   3.039 -0.5616 -2.3641 -1.9843
  155MOL   H21046718   0.195   4.956   3.079  0.7720 -0.8240 -0.1794
  155MOL   H21146719   0.338   5.007   3.185  0.0426 -0.5332 -0.7765
  155MOL   C21246720   0.061   5.364   3.323  0.3085 -0.6229  0.1099
  155MOL   C21346721   0.199   5.437   3.350 -0.6294 -1.1959  0.6157
  155MOL   C21446722   0.267   5.379   3.475 -0.0471 -0.4487  0.3458
  155MOL   C21546723   0.290   5.413   3.224 -0.7400  0.0697 -0.2001
  155MOL   O21646724   0.404   5.370   3.240 -0.4423 -0.2222 -0.4959
  155MOL   O21746725   0.229   5.435   3.103 -0.3805  0.0220 -0.1244
  155MOL   C21846726   0.305   5.416   2.984 -0.5046  0.0044  0.0755
  155MOL   H21946727   7.866   5.432   3.366  2.6299  2.9500 -1.4430
  155MOL   H22046728   0.034   5.377   3.218  2.2683  0.9881 -0.2060
  155MOL   H22146729   0.301   5.276   3.466 -2.4056 -1.2091 -0.3143
  155MOL   H22246730   0.353   5.440   3.499 -0.5865  0.7841 -0.7592
  155MOL   H22346731   0.201   5.397   3.560  0.6594  1.5857  0.4933
  155MOL   H22446732   0.363   5.324   2.980  0.2915  0.5397 -1.3454
  155MOL   H22546733   0.370   5.504   2.974 -0.2395 -0.0086  1.6705
  155MOL   H22646734   0.247   5.408   2.892 -0.1857 -1.9849  0.0401
  155MOL   C22746735   0.158   5.597   3.368 -0.9568  0.5152  0.7741
  155MOL   C22846736   0.257   5.721   3.334  0.3220  0.4104  0.1401
  155MOL   C22946737   0.388   5.688   3.406 -0.7497 -0.2316 -0.4892
  155MOL   C23046738   0.277   5.734   3.177  0.6407 -0.2806  0.0134
  155MOL   O23146739   0.194   5.699   3.094  0.0518  0.0278 -0.3278
  155MOL   O23246740   0.390   5.794   3.147  0.9521  0.1000  0.5572
  155MOL   C23346741   0.440   5.804   3.012 -0.8533  0.3611 -0.2998
  155MOL   H23446742   0.130   5.616   3.472 -0.7919 -1.2576  1.1588
  155MOL   H23546743   0.066   5.612   3.312 -1.0206 -0.2218  0.6792
  155MOL   H23646744   0.468   5.762   3.408 -1.5118  0.6251 -1.6551
  155MOL   H23746745   0.373   5.664   3.511 -0.9678 -0.8191 -0.6510
  155MOL   H23846746   0.431   5.606   3.347  1.1948  0.0975  0.4268
  155MOL   H23946747   0.508   5.719   3.000 -1.1910  0.1742 -0.8903
  155MOL   H24046748   0.502   5.893   3.000  0.7050 -0.2406  2.7230
  155MOL   H24146749   0.377   5.807   2.923 -0.2877  0.4281 -0.6956
  155MOL   C24246750   0.204   5.854   3.400  0.8332  0.0482  0.1949
  155MOL   C24346751   0.095   5.949   3.344 -0.4442 -0.3508 -0.0939
  155MOL   C24446752   0.160   6.025   3.224 -0.1655  0.7181  0.1108
  155MOL   C24546753   7.856   5.864   3.303  0.7268  0.4326  0.0573
  155MOL   O24646754   7.811   5.872   3.188 -0.2503 -0.0574  0.6370
  155MOL   O24746755   7.806   5.801   3.409 -0.1050  0.1629  0.4910
  155MOL   C24846756   7.686   5.736   3.386 -0.2258 -0.5208 -0.3442
  155MOL   H24946757   0.285   5.923   3.424  0.9091 -0.4752  1.4779
  155MOL   H25046758   0.182   5.830   3.504  2.3087 -1.2414  0.2181
  155MOL   H25146759   0.255   6.077   3.236 -0.1602  1.1183 -1.6124
  155MOL   H25246760   0.182   5.952   3.146  1.8895  1.0692  0.3487
  155MOL   H25346761   0.091   6.092   3.172 -2.3336 -1.8296 -0.4183
  155MOL   H25446762   7.614   5.816   3.372  2.4593  1.6183 -2.3673
  155MOL   H25546763   7.655   5.674   3.470 -0.4033  2.4803  1.8737
  155MOL   H25646764   7.694   5.674   3.296 -1.0298 -0.0948 -0.7144
  155MOL   C25746765   0.053   6.048   3.463  0.1145 -0.0496  0.4283
  155MOL   C25846766   7.831   6.165   3.468 -0.1170 -0.4374 -0.0536
  155MOL   C25946767   7.853   6.262   3.345 -0.3013 -0.4333 -0.0993
  155MOL   C26046768   7.682   6.115   3.460  0.2848  1.2646  0.0001
  155MOL   O26146769   7.640   6.016   3.519 -0.3663 -0.2674 -0.2606
  155MOL   O26246770   7.603   6.191   3.380  0.0834 -0.2102  0.2996
  155MOL   C26346771   7.464   6.164   3.367 -0.7553  0.4088  0.1665
  155MOL   H26446772   0.148   6.099   3.482 -0.9678  1.4432  1.9403
  155MOL   H26546773   0.030   5.994   3.555  1.8209  0.7428  1.3567
  155MOL   H26646774   0.079   6.297   3.340 -0.5069  0.3055  0.6617
  155MOL   H26746775   7.846   6.213   3.248 -0.2002  2.0712 -1.4310
  155MOL   H26846776   7.793   6.353   3.339  3.1407  1.8323 -2.1186
  155MOL   H26946777   7.431   6.103   3.451 -1.2748 -1.4017 -1.3173
  155MOL   H27046778   7.448   6.117   3.271  1.0014 -0.4664  0.2785
  155MOL   H27146779   7.411   6.257   3.385  0.3121  0.7687  1.5262
  155MOL   C27246780   7.846   6.256   3.593 -0.0342 -0.1808 -0.1254
  155MOL   C27346781   7.854   6.225   3.744  0.2001  0.1093  0.0246
  155MOL   C27446782   7.755   6.113   3.788  0.9403 -0.4524  0.0092
  155MOL   C27546783   0.117   6.184   3.784 -0.4632  0.1167  1.1716
  155MOL   O27646784   0.205   6.168   3.701  0.0443 -0.7034  0.3765
  155MOL   O27746785   0.131   6.177   3.919  0.0634  0.2329 -0.6272
  155MOL   C27846786   0.262   6.156   3.968 -0.4166 -0.1542  0.8135
  155MOL   H27946787   7.755   6.316   3.588  0.8077  1.5063  3.2789
  155MOL   H28046788   0.046   6.331   3.574  0.6044 -1.7164 -3.9003
  155MOL   H28146789   7.657   6.137   3.748  1.1938  0.2524 -0.2006
  155MOL   H28246790   7.776   6.016   3.744 -1.3213 -0.3233 -1.4401
  155MOL   H28346791   7.739   6.103   3.895  0.1133  1.5808  0.1001
  155MOL   H28446792   0.308   6.065   3.929  0.9453  0.1659  1.6463
  155MOL   H28546793   0.245   6.136   4.073 -2.9632  2.2883  0.9239
  155MOL   H28646794   0.323   6.245   3.953 -0.7068 -0.1876 -0.7258
  155MOL   C28746795   7.821   6.352   3.827  0.7561  0.0382 -0.2843
  155MOL   C28846796   0.040   6.470   3.807  0.3381  0.7737  0.3636
  155MOL   C28946797   7.851   6.591   3.736 -0.1372 -0.0367  0.0079
  155MOL   C29046798   0.096   6.522   3.937  0.6665  0.2367  0.1326
  155MOL   O29146799   0.217   6.500   3.964  0.4375 -0.0995 -0.4402
  155MOL   O29246800   0.005   6.580   4.010  0.3037  0.3772 -0.4771
  155MOL   C29346801   0.022   6.593   4.151  0.0441  0.0833 -0.1352
  155MOL   H29446802   7.820   6.330   3.934  0.8623 -0.5570 -0.4022
  155MOL   H29546803   7.717   6.376   3.804  1.2903  2.4313 -0.3134
  155MOL   H29646804   0.049   6.664   3.708 -0.2128 -1.0246 -2.9425
  155MOL   H29746805   7.812   6.560   3.639 -1.4971  1.6381  0.0123
  155MOL   H29846806   7.767   6.642   3.781 -1.1387  0.4502 -2.3517
  155MOL   H29946807   0.058   6.695   4.167 -1.2915  0.5837 -0.2607
  155MOL   H30046808   0.096   6.523   4.190  0.6973  1.8900  2.0104
  155MOL   H30146809   7.815   6.572   4.217  1.0922  0.4266  1.3292
  155MOL   H30246810   0.123   6.429   3.752 -1.0931  0.4672 -1.6125
  156MOL     C146811   3.461   1.070   3.974 -0.8536  0.2127  0.0607
  156MOL     C246812   3.313   1.092   4.009 -0.1829 -0.6371 -0.8593
  156MOL     C346813   3.240   1.117   3.879 -0.6009  0.1168 -0.2368
  156MOL     C446814   3.257   0.965   4.078 -0.0391  0.2499  1.0114
  156MOL     O546815   3.324   0.862   4.085 -0.1382 -0.0658  0.2063
  156MOL     O646816   3.128   0.976   4.122 -0.1775 -0.1712  0.0229
  156MOL     C746817   3.069   0.859   4.164 -0.0703  0.0673  0.1496
  156MOL     H846818   3.510   1.159   3.936  2.3952 -1.4560  0.1655
  156MOL     H946819   3.528   1.037   4.054 -1.7847 -0.2509  0.6633
  156MOL    H1046820   3.134   1.123   3.900 -0.5211  1.5161 -0.2326
  156MOL    H1146821   3.262   1.216   3.840 -1.4954 -0.0701 -1.2358
  156MOL    H1246822   3.261   1.045   3.800  0.7659 -0.5059  0.6629
  156MOL    H1346823   3.143   0.815   4.231  0.4310  1.9974  0.8744
  156MOL    H1446824   3.048   0.789   4.083  0.6435  1.4262 -1.2300
  156MOL    H1546825   2.981   0.873   4.227  0.1159  1.2184  0.1564
  156MOL    H1646826   3.465   1.001   3.890  1.3232 -0.0542  0.3365
  156MOL    C1746827   3.295   1.224   4.093 -0.4793  0.5124 -0.0243
  156MOL    C1846828   3.357   1.274   4.224 -0.1036 -0.0520 -0.8277
  156MOL    C1946829   3.361   1.433   4.220 -0.9213  0.4052  0.0445
  156MOL    C2046830   3.260   1.236   4.341  0.0893  0.0774  0.6010
  156MOL    O2146831   3.181   1.317   4.389 -0.1637 -0.2422  0.0177
  156MOL    O2246832   3.264   1.104   4.369  0.0191  0.4058  0.1648
  156MOL    C2346833   3.166   1.041   4.451  0.2326 -0.5912  0.4827
  156MOL    H2446834   3.188   1.248   4.099 -0.4981 -0.1967  4.8856
  156MOL    H2546835   3.322   1.304   4.024 -0.5419  0.7477  0.2195
  156MOL    H2646836   3.340   1.479   4.316 -1.4473 -0.8524  0.5401
  156MOL    H2746837   3.445   1.467   4.159  0.5802 -2.8590  0.1719
  156MOL    H2846838   3.271   1.472   4.172 -0.4487 -0.2198 -1.3996
  156MOL    H2946839   3.209   0.942   4.467 -0.9640 -0.8950  2.0626
  156MOL    H3046840   3.063   1.037   4.414  0.8400  0.1796 -1.3063
  156MOL    H3146841   3.161   1.089   4.549 -0.2958  0.4979 -0.0701
  156MOL    C3246842   3.504   1.217   4.242 -0.8846  0.1156 -0.6910
  156MOL    C3346843   3.617   1.283   4.332 -0.6067  0.5610  0.5532
  156MOL    C3446844   3.687   1.401   4.253  0.3773 -0.2020  0.1183
  156MOL    C3546845   3.559   1.339   4.468  0.2333  0.0457  0.2764
  156MOL    O3646846   3.563   1.459   4.500  0.4749  0.6721  0.0337
  156MOL    O3746847   3.509   1.245   4.541  0.0143 -0.5192 -0.3615
  156MOL    C3846848   3.432   1.279   4.660  0.4527  0.4619  0.2529
  156MOL    H3946849   3.538   1.237   4.140 -0.9807  0.9253 -0.5636
  156MOL    H4046850   3.505   1.110   4.263 -1.6747 -0.1229 -1.7980
  156MOL    H4146851   3.724   1.368   4.156  0.3063 -1.5636  0.5483
  156MOL    H4246852   3.616   1.484   4.249  2.0705  1.2079 -1.1084
  156MOL    H4346853   3.770   1.447   4.307  1.6058 -0.0775 -1.8344
  156MOL    H4446854   3.398   1.382   4.663 -0.7484  0.0943 -0.3764
  156MOL    H4546855   3.492   1.255   4.747 -1.9082 -0.0368  1.8062
  156MOL    H4646856   3.337   1.224   4.662 -0.4223  1.8361 -1.7475
  156MOL    C4746857   3.735   1.177   4.359  0.0210  0.0707 -0.6736
  156MOL    C4846858   3.874   1.209   4.443  0.9119 -0.1346  0.0829
  156MOL    C4946859   3.914   1.069   4.496  0.0858  0.8567 -0.6958
  156MOL    C5046860   3.984   1.245   4.339  0.9451  0.2710 -0.4019
  156MOL    O5146861   4.051   1.155   4.288  0.0760 -0.0704 -0.0841
  156MOL    O5246862   4.000   1.371   4.328  0.0179  0.1234 -0.1998
  156MOL    C5346863   4.104   1.414   4.252 -0.2009 -0.7033  0.1556
  156MOL    H5446864   3.766   1.122   4.270 -2.4334  0.8459 -2.0426
  156MOL    H5546865   3.683   1.095   4.410 -0.4256 -0.5263 -2.0697
  156MOL    H5646866   3.831   1.036   4.559  0.5210  2.4914  0.7781
  156MOL    H5746867   3.929   0.993   4.419 -1.0305 -0.0933  0.0149
  156MOL    H5846868   4.005   1.070   4.558  0.6876  0.2153 -1.5688
  156MOL    H5946869   4.198   1.362   4.271  1.5033  1.2968 -2.3554
  156MOL    H6046870   4.127   1.518   4.274  0.4526 -0.8064 -0.0419
  156MOL    H6146871   4.081   1.414   4.145 -1.9627  2.1974  0.4869
  156MOL    C6246872   3.857   1.319   4.555  0.7717 -0.6117 -0.2085
  156MOL    C6346873   3.954   1.342   4.678 -0.8005 -0.3648 -0.3465
  156MOL    C6446874   3.910   1.238   4.787 -0.2228  0.0273 -0.0028
  156MOL    C6546875   4.108   1.307   4.641  0.6335 -0.1483  0.5333
  156MOL    O6646876   4.164   1.201   4.674 -0.2467 -0.5123  0.7086
  156MOL    O6746877   4.164   1.395   4.561  0.2199  0.5993  0.1133
  156MOL    C6846878   4.300   1.375   4.514  0.0599 -0.4298  0.3672
  156MOL    H6946879   3.759   1.305   4.600  0.3157  1.1106 -0.6609
  156MOL    H7046880   3.844   1.413   4.503  1.8931 -0.0395  0.5368
  156MOL    H7146881   3.830   1.277   4.850  0.2706  0.2821  0.4662
  156MOL    H7246882   3.884   1.143   4.741  1.1393  0.0005 -0.7487
  156MOL    H7346883   3.992   1.206   4.851  0.1717  1.2639  0.1102
  156MOL    H7446884   4.323   1.283   4.460  0.1340 -1.9487  2.8802
  156MOL    H7546885   4.385   1.398   4.579  1.7864 -0.1171 -1.9622
  156MOL    H7646886   4.308   1.453   4.439 -0.0383  0.8302  1.6465
  156MOL    C7746887   3.923   1.492   4.727 -0.0921 -0.2191 -0.0518
  156MOL    C7846888   4.008   1.565   4.837 -0.9611 -0.2975  0.2476
  156MOL    C7946889   4.037   1.475   4.958 -0.0305 -0.6469  0.1271
  156MOL    C8046890   4.140   1.611   4.771 -0.6999 -0.4612  0.9545
  156MOL    O8146891   4.256   1.591   4.816  0.1393 -0.1533  0.3506
  156MOL    O8246892   4.123   1.682   4.658  0.1569  0.3225 -0.3072
  156MOL    C8346893   4.236   1.716   4.581 -0.7271 -0.0364 -0.1947
  156MOL    H8446894   3.824   1.493   4.772  0.2337  2.3565  0.6825
  156MOL    H8546895   3.919   1.551   4.635 -0.2159 -1.8000 -1.0801
  156MOL    H8646896   4.075   1.535   5.041  0.2296 -0.4899 -0.1016
  156MOL    H8746897   3.946   1.421   4.982 -1.7359 -0.1530 -4.5787
  156MOL    H8846898   4.112   1.401   4.932  0.7402 -0.1959  1.0138
  156MOL    H8946899   4.248   1.822   4.599 -0.4367 -0.6074  3.2824
  156MOL    H9046900   4.198   1.714   4.478 -0.2560 -2.1318 -0.3503
  156MOL    H9146901   4.334   1.671   4.595  0.2024  1.4988 -1.6284
  156MOL    C9246902   3.919   1.681   4.889 -0.2381 -0.5985 -0.1889
  156MOL    C9346903   3.959   1.814   4.956 -0.0802  0.5394  0.0669
  156MOL    C9446904   4.068   1.793   5.063  0.3360 -0.5521  0.0780
  156MOL    C9546905   4.025   1.905   4.842  0.5030  0.5981  0.1962
  156MOL    O9646906   4.124   1.971   4.871  0.0958 -0.4257 -0.1188
  156MOL    O9746907   3.956   1.928   4.721  0.0140  0.0439  0.0472
  156MOL    C9846908   4.017   2.009   4.623 -0.8003  0.3084  0.3646
  156MOL    H9946909   3.861   1.631   4.966 -2.0248  0.8938 -0.5269
  156MOL   H10046910   3.849   1.698   4.807  0.0680  0.1974 -0.2886
  156MOL   H10146911   4.152   1.731   5.030 -0.7392 -2.0454  0.1101
  156MOL   H10246912   4.118   1.882   5.100 -0.0865 -0.6159  0.8177
  156MOL   H10346913   4.038   1.743   5.155 -1.8905  0.8137  0.1151
  156MOL   H10446914   3.933   2.073   4.596  0.7391  2.2737  0.1169
  156MOL   H10546915   4.063   1.940   4.551  0.6696  1.3559  0.2865
  156MOL   H10646916   4.090   2.074   4.670 -1.8490  0.3167  1.9933
  156MOL   C10746917   3.838   1.879   5.028  0.4501  0.4973 -0.0746
  156MOL   C10846918   3.727   1.972   4.970 -0.1085  0.7176  0.8996
  156MOL   C10946919   3.802   2.113   4.944 -0.0606  0.6328 -0.1545
  156MOL   C11046920   3.672   1.910   4.838  0.2295  0.4387  0.3673
  156MOL   O11146921   3.689   1.968   4.729  0.3491 -0.1295  0.0221
  156MOL   O11246922   3.604   1.800   4.845 -0.3743 -0.2839  0.2847
  156MOL   C11346923   3.515   1.757   4.744  0.5212 -0.0227  0.6569
  156MOL   H11446924   3.890   1.938   5.105  0.2561  0.7358 -0.1239
  156MOL   H11546925   3.790   1.799   5.083  0.6420  1.6175  1.7702
  156MOL   H11646926   3.845   2.113   4.844 -0.8511  2.6695 -0.5268
  156MOL   H11746927   3.736   2.199   4.928 -1.4055 -0.6776 -1.8478
  156MOL   H11846928   3.880   2.127   5.018  0.0937  1.3095 -0.4380
  156MOL   H11946929   3.557   1.672   4.690 -0.3433 -0.8968  1.3362
  156MOL   H12046930   3.484   1.835   4.675  0.1501  0.0982  0.9592
  156MOL   H12146931   3.419   1.720   4.780 -0.3638  1.0332 -0.6142
  156MOL   C12246932   3.609   1.982   5.080  0.2594  0.4363 -0.2761
  156MOL   C12346933   3.493   2.097   5.080  0.1501  0.0093 -0.3364
  156MOL   C12446934   3.372   2.031   5.163  0.1397  0.1710 -0.8767
  156MOL   C12546935   3.540   2.224   5.153  1.0127  1.0148  0.6616
  156MOL   O12646936   3.663   2.229   5.175  0.0525 -0.1515 -0.5745
  156MOL   O12746937   3.442   2.303   5.197  0.6544  0.3089  0.1898
  156MOL   C12846938   3.480   2.398   5.292 -0.3040 -0.1778  0.0498
  156MOL   H12946939   3.651   1.984   5.180 -4.7880 -0.3632  1.9935
  156MOL   H13046940   3.564   1.883   5.071  1.1248  0.1043 -1.0625
  156MOL   H13146941   3.354   1.931   5.125 -1.7658 -0.2157  0.9838
  156MOL   H13246942   3.401   2.024   5.268  1.9750 -0.8947 -1.4245
  156MOL   H13346943   3.278   2.085   5.168  1.2855  2.0845  0.9451
  156MOL   H13446944   3.562   2.463   5.263 -0.2847 -0.3356 -0.2493
  156MOL   H13546945   3.521   2.344   5.378  0.0548 -0.8933 -0.5671
  156MOL   H13646946   3.384   2.446   5.313  0.5114  1.4986 -0.0181
  156MOL   C13746947   3.444   2.118   4.934 -0.0369  0.0109  0.2172
  156MOL   C13846948   3.341   2.228   4.887 -0.4201  0.3026 -0.0715
  156MOL   C13946949   3.207   2.221   4.964 -0.1248  0.1729 -0.1487
  156MOL   C14046950   3.399   2.372   4.903  0.4503  0.3109 -0.2200
  156MOL   O14146951   3.327   2.468   4.932  0.8585  0.1313 -0.3039
  156MOL   O14246952   3.529   2.384   4.881 -0.0609  0.4395  0.3923
  156MOL   C14346953   3.597   2.508   4.906  0.1098  0.2379 -0.3137
  156MOL   H14446954   3.394   2.025   4.904  0.0570  0.2759 -0.7692
  156MOL   H14546955   3.533   2.123   4.871 -0.5022 -2.3124 -0.6754
  156MOL   H14646956   3.158   2.124   4.972  0.3222  0.1249  2.3015
  156MOL   H14746957   3.215   2.277   5.058  1.1163  2.2829 -1.4785
  156MOL   H14846958   3.125   2.274   4.916 -0.9636 -1.1719 -0.2359
  156MOL   H14946959   3.588   2.532   5.012  0.0331  0.1230 -0.2930
  156MOL   H15046960   3.548   2.581   4.841  0.4457  0.3290 -0.4633
  156MOL   H15146961   3.701   2.497   4.875  0.2288 -1.7914  0.6813
  156MOL   C15246962   3.317   2.184   4.728 -0.4950  0.2331 -0.9029
  156MOL   C15346963   3.281   2.284   4.609  1.0688 -0.6847 -0.0913
  156MOL   C15446964   3.163   2.370   4.663  0.0936  0.7182 -0.0913
  156MOL   C15546965   3.405   2.370   4.581 -0.6030 -0.4653 -0.4615
  156MOL   O15646966   3.523   2.329   4.592  0.3052 -0.4664  0.4526
  156MOL   O15746967   3.385   2.500   4.558 -0.1491 -0.2810  0.1735
  156MOL   C15846968   3.494   2.587   4.534  0.0721 -0.2274  0.0385
  156MOL   H15946969   3.238   2.109   4.726  0.9580 -1.6068  3.5353
  156MOL   H16046970   3.405   2.132   4.689 -0.4188  1.7739 -2.8978
  156MOL   H16146971   3.185   2.425   4.755  0.8279 -0.6017  0.5289
  156MOL   H16246972   3.148   2.453   4.593  0.5738  1.5914  0.8321
  156MOL   H16346973   3.069   2.316   4.670 -0.3126  1.5891  1.2549
  156MOL   H16446974   3.528   2.579   4.431 -2.3760  2.6142 -1.0803
  156MOL   H16546975   3.579   2.563   4.598  1.0456  1.3627 -0.6234
  156MOL   H16646976   3.471   2.693   4.550  0.1945 -0.0143 -1.1693
  156MOL   C16746977   3.227   2.203   4.486  0.8851  0.5167  0.4256
  156MOL   C16846978   3.269   2.217   4.337  0.6263 -0.3535 -0.5527
  156MOL   C16946979   3.248   2.358   4.279 -0.5569 -0.0708  0.2268
  156MOL   C17046980   3.415   2.178   4.302  0.3135 -0.5554 -0.1858
  156MOL   O17146981   3.471   2.213   4.200 -0.1071  0.7664  0.6189
  156MOL   O17246982   3.457   2.084   4.388  0.1930  0.0713  0.1475
  156MOL   C17346983   3.591   2.027   4.376 -0.3324 -0.1006 -0.6632
  156MOL   H17446984   3.119   2.186   4.485  0.9975 -0.1907 -0.0879
  156MOL   H17546985   3.251   2.100   4.509  0.7916  0.1813 -0.9441
  156MOL   H17646986   3.321   2.435   4.305 -0.8994 -0.3808  2.2184
  156MOL   H17746987   3.248   2.355   4.170  2.0902  0.1478  0.2035
  156MOL   H17846988   3.148   2.398   4.299 -0.4922  0.4514 -0.4535
  156MOL   H17946989   3.659   2.075   4.306 -1.9741  0.8173 -1.6548
  156MOL   H18046990   3.589   1.922   4.349 -5.5619 -0.4164  0.4563
  156MOL   H18146991   3.645   2.047   4.469 -0.3525 -0.6558 -0.5338
  156MOL   C18246992   3.152   2.133   4.256 -0.1879  0.2027  0.9305
  156MOL   C18346993   3.142   1.980   4.228  0.0455 -0.5829  0.2724
  156MOL   C18446994   3.257   1.940   4.125  0.6949  0.6626 -0.6788
  156MOL   C18546995   3.159   1.898   4.356  0.4545  0.0915  0.0687
  156MOL   O18646996   3.079   1.913   4.448 -0.0968 -0.1978 -0.1294
  156MOL   O18746997   3.251   1.810   4.346 -0.1342 -0.1182 -0.1008
  156MOL   C18846998   3.264   1.716   4.445 -0.7424  0.1685  0.0306
  156MOL   H18946999   3.158   2.174   4.156 -1.4694 -1.4433  0.1576
  156MOL   H19047000   3.052   2.171   4.280 -0.1244  1.3361 -0.5589
  156MOL   H19147001   3.353   1.973   4.166  0.8245  1.1850 -1.3947
  156MOL   H19247002   3.268   1.833   4.113 -0.0200  0.3139  1.5526
  156MOL   H19347003   3.251   1.981   4.024 -0.2461 -0.3873 -1.0535
  156MOL   H19447004   3.193   1.634   4.453 -1.8243  0.9573 -1.4132
  156MOL   H19547005   3.270   1.769   4.540 -0.4259  0.3658 -0.0968
  156MOL   H19647006   3.362   1.668   4.439 -2.5785 -3.5486 -1.7363
  156MOL   C19747007   3.005   1.954   4.166 -0.0691  0.3969 -0.2141
  156MOL   C19847008   2.951   1.819   4.090 -0.0326 -0.4174  0.0242
  156MOL   C19947009   2.980   1.696   4.179 -0.9447 -0.8036 -0.7290
  156MOL   C20047010   2.799   1.826   4.087  0.2543 -0.0791 -0.8455
  156MOL   O20147011   2.725   1.731   4.109  0.4205 -0.0045  0.1054
  156MOL   O20247012   2.754   1.943   4.044  0.3006 -0.2706 -0.0302
  156MOL   C20347013   2.619   1.964   4.026 -0.3011 -0.1591  0.7244
  156MOL   H20447014   2.986   2.042   4.105  0.0434 -1.2346 -2.6500
  156MOL   H20547015   2.928   1.975   4.241 -0.0249  1.3074 -0.4125
  156MOL   H20647016   3.085   1.669   4.171 -0.9024 -0.2938 -2.0670
  156MOL   H20747017   2.970   1.707   4.286  0.5850 -0.4312 -0.6154
  156MOL   H20847018   2.916   1.611   4.154 -1.1986 -0.6408 -0.6338
  156MOL   H20947019   2.582   1.910   3.939  2.6639 -0.8800 -0.1434
  156MOL   H21047020   2.604   2.072   4.022  1.6592  0.2784  3.4825
  156MOL   H21147021   2.573   1.928   4.118 -1.2957 -0.6462  0.0457
  156MOL   C21247022   3.006   1.820   3.939  0.1457 -0.2746  0.0870
  156MOL   C21347023   2.984   1.711   3.827  0.5070 -0.3228  0.1681
  156MOL   C21447024   2.991   1.567   3.883  0.4210 -0.7740 -0.1105
  156MOL   C21547025   2.845   1.703   3.764 -0.1270  0.7557 -0.0460
  156MOL   O21647026   2.770   1.798   3.777  0.2688 -0.9955  1.0671
  156MOL   O21747027   2.832   1.590   3.682  0.5169  0.3716  0.1911
  156MOL   C21847028   2.706   1.571   3.607 -0.4748 -0.7395 -0.1874
  156MOL   H21947029   3.113   1.814   3.958  0.0250 -0.4214  0.7642
  156MOL   H22047030   3.004   1.923   3.905 -0.9795 -0.8138 -1.5555
  156MOL   H22147031   2.897   1.530   3.923  0.0173  0.8359  0.4659
  156MOL   H22247032   3.042   1.491   3.824  0.6511  0.9172 -2.1467
  156MOL   H22347033   3.064   1.568   3.964 -0.3227 -0.8652  0.5597
  156MOL   H22447034   2.661   1.477   3.639 -0.7730 -0.2871  0.7577
  156MOL   H22547035   2.733   1.575   3.502  1.1910  0.0861  0.2547
  156MOL   H22647036   2.626   1.641   3.631 -1.7646 -1.7657 -1.3937
  156MOL   C22747037   3.094   1.717   3.715  0.7101 -0.2966  0.2014
  156MOL   C22847038   3.125   1.845   3.633 -0.1840  0.6394  0.1281
  156MOL   C22947039   2.998   1.934   3.601 -0.4804 -0.8632  0.5190
  156MOL   C23047040   3.218   1.934   3.716 -0.2005 -0.1558 -0.4752
  156MOL   O23147041   3.293   1.888   3.804 -0.6084  0.1683  0.2772
  156MOL   O23247042   3.215   2.063   3.675  0.1862  0.7295 -0.1877
  156MOL   C23347043   3.288   2.162   3.745 -0.1351 -0.6035 -0.1538
  156MOL   H23447044   3.074   1.639   3.643  1.4295 -0.2732 -0.0322
  156MOL   H23547045   3.188   1.680   3.755  0.9585  0.7709  0.6456
  156MOL   H23647046   2.938   1.863   3.544  1.1744 -1.7100 -0.2038
  156MOL   H23747047   2.939   1.961   3.689  1.0029 -3.2189  2.2914
  156MOL   H23847048   3.020   2.022   3.540 -2.5857 -0.0935  0.8327
  156MOL   H23947049   3.251   2.263   3.732  1.0268 -0.1477  0.0340
  156MOL   H24047050   3.395   2.164   3.724 -0.3711  0.1000 -1.3706
  156MOL   H24147051   3.285   2.143   3.852  0.3533  0.5223  0.0658
  156MOL   C24247052   3.192   1.814   3.488  0.3411  0.2879  0.5093
  156MOL   C24347053   3.330   1.736   3.464  0.3538  0.4572 -0.9699
  156MOL   C24447054   3.441   1.837   3.509  0.5155 -0.0441  0.2275
  156MOL   C24547055   3.337   1.611   3.556 -0.0315 -0.0126  0.1521
  156MOL   O24647056   3.412   1.599   3.658  0.3284  1.3137 -0.2376
  156MOL   O24747057   3.248   1.523   3.514  0.1150 -0.4254 -0.0323
  156MOL   C24847058   3.238   1.392   3.571  1.4203 -0.0036  0.2932
  156MOL   H24947059   3.195   1.912   3.440 -0.3002 -0.5456 -1.2738
  156MOL   H25047060   3.125   1.748   3.432  1.2039  0.7916 -1.1564
  156MOL   H25147061   3.539   1.796   3.485  1.4005  0.2740  3.0701
  156MOL   H25247062   3.428   1.938   3.469 -0.4025 -0.8978 -1.6500
  156MOL   H25347063   3.456   1.851   3.616  1.8498 -1.5151  0.2489
  156MOL   H25447064   3.205   1.317   3.500 -2.2467  0.7821  1.0610
  156MOL   H25547065   3.160   1.399   3.647 -0.3361  3.4787 -1.7445
  156MOL   H25647066   3.332   1.359   3.617  0.6256 -0.9439  1.2919
  156MOL   C25747067   3.333   1.708   3.308  0.9566  0.0162  0.3166
  156MOL   C25847068   3.462   1.685   3.225  0.2752 -0.2526 -0.0133
  156MOL   C25947069   3.533   1.830   3.201  1.0997 -0.0626 -0.1577
  156MOL   C26047070   3.555   1.583   3.293 -0.4655  0.3222  0.3719
  156MOL   O26147071   3.668   1.608   3.326 -0.1906 -0.3373 -0.4757
  156MOL   O26247072   3.497   1.463   3.304  0.0451 -0.0980 -0.1402
  156MOL   C26347073   3.575   1.350   3.341  0.2838  0.4210  0.1277
  156MOL   H26447074   3.291   1.793   3.253  0.8674  0.6565  1.3440
  156MOL   H26547075   3.262   1.629   3.286  0.9998  0.3839 -1.1816
  156MOL   H26647076   3.456   1.907   3.187  0.2746 -0.5826  1.4389
  156MOL   H26747077   3.590   1.849   3.291  0.6084  0.0495  0.1332
  156MOL   H26847078   3.604   1.852   3.121 -1.7276  2.9051 -2.0227
  156MOL   H26947079   3.517   1.261   3.315 -1.3492  0.9207  1.9102
  156MOL   H27047080   3.630   1.352   3.435  0.2383 -2.7963  0.2967
  156MOL   H27147081   3.658   1.339   3.271  1.1428  0.3033  1.1491
  156MOL   C27247082   3.407   1.630   3.087 -0.2377  0.3094  0.0009
  156MOL   C27347083   3.501   1.570   2.971  0.1659  0.1697 -0.7218
  156MOL   C27447084   3.623   1.648   2.947  0.0312 -0.1881 -0.2822
  156MOL   C27547085   3.538   1.425   2.997 -0.5741  0.2040 -0.5865
  156MOL   O27647086   3.656   1.390   3.011  0.5961  0.2712  0.6307
  156MOL   O27747087   3.434   1.341   3.003 -0.1328  1.3511 -0.1664
  156MOL   C27847088   3.464   1.202   2.985 -0.3343  0.2617 -0.5914
  156MOL   H27947089   3.342   1.709   3.047  2.3498  2.5094 -0.0299
  156MOL   H28047090   3.329   1.559   3.114 -0.4241  0.2153 -0.7810
  156MOL   H28147091   3.686   1.592   2.878 -1.2178 -2.3502  0.2823
  156MOL   H28247092   3.613   1.750   2.910  0.7985  0.3642  0.9721
  156MOL   H28347093   3.691   1.654   3.033 -3.7538 -1.3853  2.9505
  156MOL   H28447094   3.542   1.173   2.914 -1.6191 -0.9859 -1.5238
  156MOL   H28547095   3.376   1.147   2.952 -0.1253 -1.1816  1.1996
  156MOL   H28647096   3.508   1.149   3.069 -1.0630  2.0602  0.9557
  156MOL   C28747097   3.408   1.575   2.845 -0.2167 -0.0709  0.0923
  156MOL   C28847098   3.463   1.516   2.716  0.6520 -0.3883 -0.2195
  156MOL   C28947099   3.352   1.443   2.639 -0.1408 -0.8545 -0.3960
  156MOL   C29047100   3.518   1.622   2.619 -0.2961 -0.8632  0.2302
  156MOL   O29147101   3.486   1.740   2.621  0.6034 -0.5439 -0.0039
  156MOL   O29247102   3.616   1.574   2.539  0.0518  0.4669  0.0368
  156MOL   C29347103   3.689   1.662   2.451 -0.6704 -0.2710 -0.8449
  156MOL   H29447104   3.374   1.678   2.832 -0.7008 -0.0386  1.4477
  156MOL   H29547105   3.312   1.525   2.862 -1.2300  0.9318 -2.4505
  156MOL   H29647106   3.314   1.356   2.693 -0.2083 -1.1968 -0.9904
  156MOL   H29747107   3.273   1.513   2.611  0.4763 -0.4690 -1.2094
  156MOL   H29847108   3.389   1.408   2.542 -2.6193 -0.8688 -1.3893
  156MOL   H29947109   3.626   1.685   2.366 -0.3369  1.8135 -0.5700
  156MOL   H30047110   3.783   1.616   2.419 -1.0067 -0.2108 -1.9066
  156MOL   H30147111   3.713   1.746   2.517 -4.7197 -0.2830  0.7711
  156MOL   H30247112   3.544   1.444   2.728 -0.8214 -2.0703 -0.1531
  157MOL     C147113   3.186   4.498   3.594  0.1986  0.0453  0.0607
  157MOL     C247114   3.094   4.372   3.609 -0.3764  0.0125  0.6557
  157MOL     C347115   3.172   4.249   3.533 -0.4275 -0.1855  0.4238
  157MOL     C447116   3.087   4.331   3.765  0.4444 -0.3942 -0.3533
  157MOL     O547117   3.108   4.409   3.856 -0.0450  0.0378 -0.5179
  157MOL     O647118   3.051   4.209   3.794 -0.2539  0.0789 -0.3140
  157MOL     C747119   3.054   4.157   3.923 -0.1967 -0.3978  0.1188
  157MOL     H847120   3.183   4.550   3.498 -1.1994  1.9650  1.1232
  157MOL     H947121   3.188   4.575   3.671  3.8333  0.5391 -0.3936
  157MOL    H1047122   3.246   4.222   3.608  0.9657  0.5380 -0.6690
  157MOL    H1147123   3.110   4.164   3.505 -0.8326  0.3779 -0.4331
  157MOL    H1247124   3.222   4.275   3.440  0.3812 -2.0875  0.3179
  157MOL    H1347125   3.152   4.173   3.967 -0.1377  1.4858 -0.6292
  157MOL    H1447126   3.026   4.053   3.940 -1.2756 -0.0745  0.3820
  157MOL    H1547127   2.985   4.218   3.981  1.1435  0.7633  0.5284
  157MOL    H1647128   3.289   4.462   3.603  0.2151  0.3491  1.1496
  157MOL    C1747129   2.955   4.383   3.545  0.1459  0.3092 -0.2142
  157MOL    C1847130   2.833   4.475   3.602 -0.1501  0.3209  0.0604
  157MOL    C1947131   2.770   4.409   3.733 -0.0944 -0.6000 -0.3144
  157MOL    C2047132   2.894   4.612   3.631 -0.0073 -0.0672 -0.5989
  157MOL    O2147133   2.916   4.651   3.742  0.5102  0.3947 -0.3527
  157MOL    O2247134   2.933   4.672   3.515  0.2537 -0.3483  0.4219
  157MOL    C2347135   2.976   4.806   3.528  0.3021  0.1784 -0.0299
  157MOL    H2447136   2.916   4.281   3.538 -0.1134  0.3446  0.6809
  157MOL    H2547137   2.971   4.425   3.446 -0.6425 -0.0308 -0.4928
  157MOL    H2647138   2.680   4.464   3.761  0.9714  0.4692  1.0583
  157MOL    H2747139   2.754   4.303   3.714 -2.8297  0.3374 -3.7064
  157MOL    H2847140   2.842   4.427   3.813  0.1042  1.4249 -0.9176
  157MOL    H2947141   3.044   4.830   3.446  0.5623  0.5270  0.2861
  157MOL    H3047142   3.038   4.809   3.618  1.4372 -2.4676 -0.6593
  157MOL    H3147143   2.896   4.879   3.536 -0.3836 -0.2820 -2.4140
  157MOL    C3247144   2.722   4.486   3.490  0.6125  0.0906 -0.2187
  157MOL    C3347145   2.577   4.536   3.522 -0.0477  0.4817  0.4730
  157MOL    C3447146   2.490   4.416   3.570 -0.0425  0.5916  0.0293
  157MOL    C3547147   2.558   4.658   3.622  0.1972  0.5750 -0.5027
  157MOL    O3647148   2.499   4.650   3.735 -0.2022  0.5303 -0.4639
  157MOL    O3747149   2.620   4.771   3.585  0.4252  0.7485  0.3290
  157MOL    C3847150   2.601   4.896   3.646  0.2332 -0.7290  0.3337
  157MOL    H3947151   2.703   4.385   3.452 -1.0127  0.2898  0.0108
  157MOL    H4047152   2.756   4.551   3.410  3.4192 -0.2727  0.6107
  157MOL    H4147153   2.382   4.431   3.565  0.0412  1.3685  0.5846
  157MOL    H4247154   2.511   4.322   3.519  0.8500  0.3954  0.7468
  157MOL    H4347155   2.493   4.399   3.678 -2.3021  0.2215  0.0673
  157MOL    H4447156   2.681   4.964   3.616  0.7175 -0.2228  2.7254
  157MOL    H4547157   2.600   4.884   3.754  2.3997  2.5124  0.7873
  157MOL    H4647158   2.497   4.920   3.628  0.1748 -1.5543 -0.5305
  157MOL    C4747159   2.509   4.573   3.374  0.7783 -0.5729 -0.0284
  157MOL    C4847160   2.355   4.584   3.325 -0.3664 -0.1856 -0.0029
  157MOL    C4947161   2.316   4.436   3.283  0.2541 -0.1762  0.2640
  157MOL    C5047162   2.261   4.639   3.435  0.2296 -0.2018 -0.3283
  157MOL    O5147163   2.156   4.582   3.471  0.1092  0.0546  0.3124
  157MOL    O5247164   2.300   4.749   3.505  0.0977 -0.3876  0.2243
  157MOL    C5347165   2.208   4.805   3.595  0.1672 -0.1435 -0.3264
  157MOL    H5447166   2.553   4.513   3.295  0.8256  1.4993 -1.6215
  157MOL    H5547167   2.566   4.664   3.353 -2.1293  1.1051 -0.7986
  157MOL    H5647168   2.386   4.382   3.221 -0.9031 -0.3958 -0.8637
  157MOL    H5747169   2.308   4.369   3.369  0.6790  0.7513  1.0428
  157MOL    H5847170   2.220   4.432   3.231 -0.7240 -1.7877  2.1212
  157MOL    H5947171   2.110   4.821   3.551  0.4023 -2.4480 -1.7865
  157MOL    H6047172   2.260   4.894   3.632 -0.7428  0.5073 -0.6110
  157MOL    H6147173   2.188   4.730   3.672 -2.5428 -0.4387 -1.2799
  157MOL    C6247174   2.348   4.670   3.194 -0.1655 -0.8125 -0.6378
  157MOL    C6347175   2.329   4.827   3.179  0.3653 -0.1087  0.4406
  157MOL    C6447176   2.183   4.862   3.212  0.0711  0.2081 -0.2054
  157MOL    C6547177   2.434   4.898   3.254 -0.1191 -0.5965 -1.0865
  157MOL    O6647178   2.401   4.989   3.336 -0.0361  0.5952  0.0728
  157MOL    O6747179   2.560   4.860   3.233 -0.2392 -0.3366  0.4313
  157MOL    C6847180   2.669   4.934   3.296  0.0929  0.6164 -0.2508
  157MOL    H6947181   2.285   4.622   3.118  2.2345 -0.9452 -2.5882
  157MOL    H7047182   2.448   4.648   3.157 -0.1247 -0.4875 -0.7198
  157MOL    H7147183   2.164   4.840   3.318  1.5269 -2.1278 -0.3876
  157MOL    H7247184   2.168   4.970   3.212  0.6419  0.2909  0.1501
  157MOL    H7347185   2.102   4.824   3.150  0.7542 -0.8954 -0.4503
  157MOL    H7447186   2.637   5.037   3.313 -0.5442  0.4759 -0.5822
  157MOL    H7547187   2.746   4.936   3.219  1.3164 -1.7449  0.8646
  157MOL    H7647188   2.705   4.888   3.388 -0.6623  1.9896  0.7486
  157MOL    C7747189   2.350   4.846   3.023  0.3938  0.8747 -0.0129
  157MOL    C7847190   2.307   4.969   2.935 -0.1695 -0.1521 -1.1120
  157MOL    C7947191   2.146   4.972   2.919 -0.0155  0.6141 -0.2483
  157MOL    C8047192   2.363   5.098   3.001 -0.3226  0.5444 -0.5214
  157MOL    O8147193   2.296   5.199   3.023  0.3497 -0.1021 -0.0018
  157MOL    O8247194   2.496   5.084   3.030  0.0546  0.2306 -1.2740
  157MOL    C8347195   2.561   5.194   3.084 -0.3850  0.4498 -0.3988
  157MOL    H8447196   2.315   4.759   2.968 -0.2703  0.8146  0.4979
  157MOL    H8547197   2.458   4.838   3.008  0.0275 -1.1367 -1.7633
  157MOL    H8647198   2.090   5.006   3.007 -0.6131 -0.6100 -0.1473
  157MOL    H8747199   2.116   5.035   2.835 -2.3998 -1.4959 -1.0481
  157MOL    H8847200   2.110   4.875   2.885 -0.2999  0.0668  1.5812
  157MOL    H8947201   2.534   5.280   3.023  0.6785  1.2504  0.2304
  157MOL    H9047202   2.670   5.184   3.083 -0.3642  0.5871  0.5172
  157MOL    H9147203   2.526   5.216   3.185 -2.3336  0.7550 -1.1158
  157MOL    C9247204   2.367   4.944   2.787  0.2625  0.3505 -0.0264
  157MOL    C9347205   2.434   5.057   2.697  0.4782  0.3431  0.3389
  157MOL    C9447206   2.365   5.188   2.708 -0.4440 -0.2760 -0.1782
  157MOL    C9547207   2.587   5.059   2.724  0.6060 -0.5506 -0.7223
  157MOL    O9647208   2.624   5.168   2.766 -0.0591 -0.0843 -0.1592
  157MOL    O9747209   2.655   4.946   2.724  0.0958  0.2553 -0.3730
  157MOL    C9847210   2.798   4.948   2.746 -0.1336 -0.3614  0.0863
  157MOL    H9947211   2.278   4.905   2.736 -0.1501 -0.6533  1.4410
  157MOL   H10047212   2.438   4.862   2.798 -0.3251 -0.2178 -0.4383
  157MOL   H10147213   2.332   5.241   2.618  1.5313 -0.8446 -1.2753
  157MOL   H10247214   2.272   5.195   2.764 -0.1425 -3.6344  0.8199
  157MOL   H10347215   2.421   5.268   2.756  0.1669 -1.3483  0.9122
  157MOL   H10447216   2.817   4.952   2.853  1.4037  0.9498 -0.2238
  157MOL   H10547217   2.840   5.033   2.691  0.2818  0.2092  1.2755
  157MOL   H10647218   2.846   4.856   2.714  1.0764  0.0558  0.6839
  157MOL   C10747219   2.409   5.011   2.543  0.2040 -0.0425 -0.2697
  157MOL   C10847220   2.495   5.057   2.421 -0.6344 -0.5980 -0.1341
  157MOL   C10947221   2.630   4.980   2.409  0.1367 -0.0654 -0.3026
  157MOL   C11047222   2.400   5.018   2.307  0.3936 -0.3376  0.3087
  157MOL   O11147223   2.424   4.921   2.229  0.4079  0.7497 -0.4014
  157MOL   O11247224   2.288   5.102   2.298 -0.1362 -0.1041 -0.0922
  157MOL   C11347225   2.193   5.093   2.196  0.3515  0.9441 -0.0733
  157MOL   H11447226   2.302   5.019   2.527  0.2093 -0.1363 -0.3503
  157MOL   H11547227   2.425   4.903   2.545 -1.0257 -0.2189  0.4824
  157MOL   H11647228   2.621   4.875   2.437 -1.0953 -0.4693 -2.1267
  157MOL   H11747229   2.649   4.981   2.302 -1.2929  0.9090 -0.5536
  157MOL   H11847230   2.709   5.028   2.466  0.3781 -0.4285 -0.3262
  157MOL   H11947231   2.132   5.183   2.190 -3.6040 -1.7445 -2.4403
  157MOL   H12047232   2.117   5.017   2.213  0.2112  1.6685  2.8244
  157MOL   H12147233   2.249   5.098   2.102  0.3107  1.9979 -0.0452
  157MOL   C12247234   2.514   5.216   2.420 -0.2324  0.2586  0.6197
  157MOL   C12347235   2.602   5.289   2.313 -0.4577  0.0903  0.5953
  157MOL   C12447236   2.746   5.244   2.321 -0.3814 -0.2527  0.0004
  157MOL   C12547237   2.539   5.278   2.172  0.0016 -0.3966 -0.1528
  157MOL   O12647238   2.449   5.357   2.140 -0.7984  0.0038  0.1960
  157MOL   O12747239   2.591   5.175   2.098 -0.2362 -0.3989  0.3765
  157MOL   C12847240   2.525   5.163   1.969 -0.9651 -0.4004 -0.7265
  157MOL   H12947241   2.559   5.244   2.515  2.8382 -0.5874 -0.5148
  157MOL   H13047242   2.415   5.262   2.423  0.1346  0.9955  1.6145
  157MOL   H13147243   2.769   5.229   2.426 -0.9044 -0.8650  0.0315
  157MOL   H13247244   2.776   5.148   2.278 -0.6332 -0.7829  0.9922
  157MOL   H13347245   2.818   5.315   2.279  0.0581 -0.0704  1.0494
  157MOL   H13447246   2.419   5.160   1.992 -1.2129 -1.4378 -1.9552
  157MOL   H13547247   2.554   5.069   1.922 -2.7770 -1.9508  1.2125
  157MOL   H13647248   2.543   5.242   1.895  0.5667 -1.3689 -1.4179
  157MOL   C13747249   2.594   5.441   2.366 -0.1244 -0.3529 -0.6452
  157MOL   C13847250   2.695   5.560   2.337 -0.1111 -0.1813  0.8213
  157MOL   C13947251   2.811   5.532   2.437  0.6373  0.2251  0.0505
  157MOL   C14047252   2.733   5.563   2.185  0.3577 -0.2537  0.2238
  157MOL   O14147253   2.845   5.522   2.150  0.1969 -0.2745  0.8018
  157MOL   O14247254   2.637   5.597   2.106  0.2580 -0.2652 -0.7704
  157MOL   C14347255   2.668   5.601   1.962  0.4815  0.1968 -0.4211
  157MOL   H14447256   2.577   5.453   2.473  3.0281  0.7393 -0.2291
  157MOL   H14547257   2.497   5.477   2.331 -0.1825 -0.2559 -0.3928
  157MOL   H14647258   2.894   5.586   2.390  2.1600 -0.7814  1.5147
  157MOL   H14747259   2.793   5.583   2.531 -1.3056  0.3482 -0.3784
  157MOL   H14847260   2.857   5.434   2.449  2.3147  1.0490  0.5446
  157MOL   H14947261   2.756   5.665   1.952  0.7426 -0.0762  0.1314
  157MOL   H15047262   2.587   5.631   1.894 -0.2048  2.6723  1.4244
  157MOL   H15147263   2.688   5.499   1.930  0.5174 -0.0276  0.3218
  157MOL   C15247264   2.616   5.693   2.368 -0.1096  0.1604 -0.9401
  157MOL   C15347265   2.665   5.843   2.333  0.1271  0.3299  0.1296
  157MOL   C15447266   2.818   5.841   2.311 -0.6148 -0.2113 -0.5226
  157MOL   C15547267   2.593   5.889   2.198 -0.4803 -0.3986  0.0343
  157MOL   O15647268   2.477   5.862   2.173  0.1262  0.2527 -0.3665
  157MOL   O15747269   2.665   5.974   2.122  0.2885  0.3457  0.6387
  157MOL   C15847270   2.607   6.023   1.996 -0.0132  1.0189  0.0394
  157MOL   H15947271   2.602   5.695   2.476 -0.2515  2.1504 -0.9766
  157MOL   H16047272   2.516   5.680   2.327 -1.4506 -0.5033  2.3557
  157MOL   H16147273   2.859   5.787   2.225 -1.8600 -2.6384  0.3540
  157MOL   H16247274   2.864   5.939   2.296 -1.6204  0.2696 -0.4748
  157MOL   H16347275   2.876   5.807   2.397 -0.2959  1.4793 -0.0490
  157MOL   H16447276   2.599   6.131   1.992  2.3642  1.3376  2.3651
  157MOL   H16547277   2.506   5.992   1.968  0.3721  0.8746 -1.2271
  157MOL   H16647278   2.676   5.989   1.919 -0.7292  0.6886 -0.4682
  157MOL   C16747279   2.645   5.945   2.447  0.4615  0.1111  0.2358
  157MOL   C16847280   2.503   6.006   2.485  0.6903  0.8912 -0.0864
  157MOL   C16947281   2.393   5.896   2.485  0.0448  0.2055 -0.1366
  157MOL   C17047282   2.522   6.061   2.629 -0.7307 -0.3508 -0.2942
  157MOL   O17147283   2.451   6.029   2.727 -0.4507 -0.3454 -0.0396
  157MOL   O17247284   2.621   6.147   2.643  0.7606 -0.0282 -0.4477
  157MOL   C17347285   2.657   6.208   2.763 -0.5655  0.5523  0.3236
  157MOL   H17447286   2.706   6.035   2.434 -0.2863  0.5441 -0.3640
  157MOL   H17547287   2.681   5.887   2.532 -0.8291  0.1029  0.7918
  157MOL   H17647288   2.393   5.841   2.580  3.4318  2.6604  1.3991
  157MOL   H17747289   2.293   5.937   2.498  0.7683  1.0321  3.7431
  157MOL   H17847290   2.392   5.826   2.402  1.6545  0.0511 -0.0530
  157MOL   H17947291   2.574   6.249   2.821 -1.0660  0.3890 -0.2785
  157MOL   H18047292   2.725   6.289   2.735 -0.3189 -0.1763 -1.1768
  157MOL   H18147293   2.709   6.138   2.829  0.1852  0.4750 -0.3499
  157MOL   C18247294   2.469   6.119   2.384 -0.6682 -0.2198 -0.6094
  157MOL   C18347295   2.378   6.247   2.416 -0.1366 -0.9171 -0.6667
  157MOL   C18447296   2.249   6.206   2.478  0.1334  0.1483 -0.2785
  157MOL   C18547297   2.460   6.356   2.496  0.3773  0.6252  0.1897
  157MOL   O18647298   2.418   6.404   2.602 -0.2075 -0.3188 -0.5748
  157MOL   O18747299   2.579   6.391   2.436  0.1203  0.6312  0.1605
  157MOL   C18847300   2.668   6.487   2.490 -0.1101 -0.6373 -0.8970
  157MOL   H18947301   2.415   6.064   2.307  1.0448 -0.4023 -1.7007
  157MOL   H19047302   2.557   6.146   2.326 -0.6214  2.7609  0.7539
  157MOL   H19147303   2.172   6.281   2.492  0.6424  0.4039  1.2527
  157MOL   H19247304   2.207   6.119   2.427  0.7500  0.6482 -1.6656
  157MOL   H19347305   2.263   6.156   2.574 -1.5048 -0.1811 -0.1962
  157MOL   H19447306   2.728   6.432   2.562 -1.8417 -1.7225 -0.2663
  157MOL   H19547307   2.629   6.570   2.548  4.2026 -0.3683  1.8566
  157MOL   H19647308   2.730   6.535   2.413 -1.5043  1.6239 -0.6544
  157MOL   C19747309   2.345   6.300   2.271 -0.5543 -0.4260  0.5122
  157MOL   C19847310   2.294   6.451   2.237  0.1277 -0.9614 -0.3090
  157MOL   C19947311   2.186   6.482   2.342  0.0410 -0.8659  0.5842
  157MOL   C20047312   2.417   6.546   2.238  0.1818  0.0883 -0.3817
  157MOL   O20147313   2.518   6.509   2.178  0.2767 -1.0917  0.0618
  157MOL   O20247314   2.401   6.654   2.312  0.0095  0.6094  0.0089
  157MOL   C20347315   2.506   6.745   2.317 -0.1621  0.5771 -0.2907
  157MOL   H20447316   2.273   6.230   2.227  1.1722 -0.9753 -1.5466
  157MOL   H20547317   2.428   6.279   2.203 -0.3752  1.1955  0.1872
  157MOL   H20647318   2.156   6.586   2.350 -1.5664 -1.3411  0.9908
  157MOL   H20747319   2.097   6.419   2.330 -0.8314  0.6528 -1.2374
  157MOL   H20847320   2.228   6.473   2.442  0.0234 -0.8916  0.5889
  157MOL   H20947321   2.513   6.782   2.420  0.9907 -0.6530  0.0939
  157MOL   H21047322   2.488   6.828   2.249 -0.9661  0.7835  0.1653
  157MOL   H21147323   2.598   6.693   2.292  0.3021 -0.6107  3.4636
  157MOL   C21247324   2.221   6.454   2.095 -0.4640 -0.0325 -0.9227
  157MOL   C21347325   2.170   6.583   2.018  0.5743  0.8854 -0.0617
  157MOL   C21447326   2.085   6.531   1.900 -0.6349  0.5375  0.2044
  157MOL   C21547327   2.063   6.645   2.106 -0.0975  0.1386 -0.7652
  157MOL   O21647328   2.077   6.764   2.140 -0.4173  0.4326 -0.0995
  157MOL   O21747329   1.967   6.561   2.162  0.4350 -0.2681  0.7053
  157MOL   C21847330   1.884   6.620   2.259  0.2848  0.3382 -0.5633
  157MOL   H21947331   2.139   6.382   2.106  1.2542 -1.7425  1.1860
  157MOL   H22047332   2.293   6.402   2.032  0.1007 -0.9311  0.4577
  157MOL   H22147333   2.157   6.480   1.836 -0.8843  1.2022 -0.6198
  157MOL   H22247334   2.008   6.458   1.923 -1.8913  1.6380 -0.4560
  157MOL   H22347335   2.040   6.607   1.836 -0.5269  1.0190  0.6923
  157MOL   H22447336   1.829   6.546   2.317  1.7687  1.5586  2.5651
  157MOL   H22547337   1.818   6.693   2.213 -1.3724 -0.3769  0.6059
  157MOL   H22647338   1.944   6.662   2.340 -0.0347 -0.8759  0.3122
  157MOL   C22747339   2.286   6.675   1.970  0.2036 -0.1573 -0.1372
  157MOL   C22847340   2.281   6.769   1.842  1.3524  0.0258  0.5879
  157MOL   C22947341   2.309   6.684   1.712 -0.6217 -0.4195  0.1992
  157MOL   C23047342   2.151   6.850   1.826 -0.8362 -0.6623  0.1746
  157MOL   O23147343   2.083   6.830   1.721 -0.1998  0.0737 -0.2102
  157MOL   O23247344   2.118   6.936   1.924 -0.4882  0.0508 -0.4521
  157MOL   C23347345   1.998   7.015   1.905 -0.6540  0.3459 -0.3475
  157MOL   H23447346   2.381   6.620   1.971  1.0652  1.3019 -0.1412
  157MOL   H23547347   2.308   6.737   2.057  2.5375 -2.1716  0.7944
  157MOL   H23647348   2.399   6.624   1.729  0.6827  1.6002  0.5375
  157MOL   H23747349   2.232   6.608   1.697  0.4397 -2.0164  2.5209
  157MOL   H23847350   2.312   6.742   1.620  0.3551 -0.1468  0.3946
  157MOL   H23947351   1.978   7.066   2.000  0.8127  0.0089  0.1658
  157MOL   H24047352   1.908   6.956   1.893 -1.1817  1.0161  0.2764
  157MOL   H24147353   2.023   7.089   1.829 -2.4632  1.1956 -0.1304
  157MOL   C24247354   2.397   6.876   1.870 -0.6054  0.1486  0.6074
  157MOL   C24347355   2.431   6.994   1.772  0.0568 -0.3100 -0.6689
  157MOL   C24447356   2.406   6.961   1.617 -0.2340 -0.9485  0.3359
  157MOL   C24547357   2.352   7.127   1.805 -0.2465 -0.0712  0.0347
  157MOL   O24647358   2.289   7.145   1.910 -0.2667 -0.0517 -0.4258
  157MOL   O24747359   2.396   7.227   1.726 -0.3520 -0.2570 -0.0705
  157MOL   C24847360   2.362   7.361   1.766 -0.1560  0.1845  0.2296
  157MOL   H24947361   2.472   6.800   1.848 -0.4039  0.2170  1.0456
  157MOL   H25047362   2.398   6.908   1.974  3.3188 -0.8359  0.9374
  157MOL   H25147363   2.458   6.872   1.581  1.1200 -0.2808  0.6199
  157MOL   H25247364   2.300   6.959   1.592 -0.0177  0.8857 -0.8348
  157MOL   H25347365   2.439   7.041   1.550 -1.8361 -1.0329 -0.5658
  157MOL   H25447366   2.256   7.372   1.742 -0.0777 -0.5956 -0.5045
  157MOL   H25547367   2.416   7.438   1.711  0.9454 -1.4837 -1.0789
  157MOL   H25647368   2.384   7.377   1.872  0.3540  1.3418 -0.0455
  157MOL   C25747369   2.585   7.022   1.770  0.3583 -0.6484 -0.2447
  157MOL   C25847370   2.684   7.041   1.892  0.0997 -0.0627  0.1134
  157MOL   C25947371   2.626   7.154   1.996 -0.6583 -0.0396  0.3326
  157MOL   C26047372   2.699   6.903   1.967 -0.1504 -0.3928 -0.4049
  157MOL   O26147373   2.675   6.897   2.085 -0.3271 -0.0546 -0.7335
  157MOL   O26247374   2.737   6.797   1.898  0.3938  0.1600 -0.2424
  157MOL   C26347375   2.752   6.671   1.955  0.0997 -0.1027  0.2333
  157MOL   H26447376   2.595   7.116   1.716  1.5213 -0.2756  0.5907
  157MOL   H26547377   2.644   6.959   1.703  1.4566 -0.7374  0.7969
  157MOL   H26647378   2.521   7.146   2.024 -0.5794  1.3608  1.0491
  157MOL   H26747379   2.681   7.150   2.090  0.0075 -2.2834 -0.1093
  157MOL   H26847380   2.628   7.252   1.948  1.8288  0.3732  1.2062
  157MOL   H26947381   2.698   6.671   2.049 -0.2698 -0.1462  0.0211
  157MOL   H27047382   2.860   6.658   1.957  0.5640  3.5171  1.8418
  157MOL   H27147383   2.713   6.605   1.877  0.5785 -0.5069  0.3300
  157MOL   C27247384   2.819   7.102   1.832 -0.1186 -0.1082  0.7032
  157MOL   C27347385   2.955   7.084   1.907 -0.0491 -0.4939  0.2280
  157MOL   C27447386   3.013   6.941   1.879  0.2933 -0.3425 -0.5387
  157MOL   C27547387   3.046   7.190   1.838  0.0160  0.3924  0.4129
  157MOL   O27647388   3.149   7.158   1.777 -0.3675  0.0455  0.3679
  157MOL   O27747389   3.005   7.316   1.855 -0.3476  0.2517  0.0929
  157MOL   C27847390   3.076   7.419   1.784 -0.3104 -0.1804 -0.0683
  157MOL   H27947391   2.797   7.209   1.837  1.9169  0.3350  0.7146
  157MOL   H28047392   2.825   7.078   1.726 -1.5068  0.6650  0.4407
  157MOL   H28147393   3.017   6.908   1.775  1.0570  1.0913 -0.9649
  157MOL   H28247394   3.117   6.932   1.911 -0.0503  0.3144  0.7728
  157MOL   H28347395   2.969   6.859   1.936 -1.8992 -0.9904 -3.0506
  157MOL   H28447396   3.014   7.506   1.805 -0.0823 -0.1049  0.2878
  157MOL   H28547397   3.082   7.418   1.675  2.1238  2.5542 -0.0493
  157MOL   H28647398   3.180   7.427   1.816 -0.1197  2.1132 -1.1459
  157MOL   C28747399   2.958   7.110   2.052  0.3520  0.2217  0.7572
  157MOL   C28847400   3.093   7.091   2.126  0.4646  0.8347  0.5629
  157MOL   C28947401   3.129   7.219   2.197  0.3538  0.1523 -0.4914
  157MOL   C29047402   3.080   6.977   2.226  0.2681  0.3433  0.1043
  157MOL   O29147403   3.169   6.893   2.232  0.6083 -0.0899  0.7808
  157MOL   O29247404   2.963   6.978   2.312 -0.5967  0.6735  0.1792
  157MOL   C29347405   2.931   6.874   2.404  0.5530  0.6304 -0.4626
  157MOL   H29447406   2.872   7.061   2.098 -1.7906  1.2126 -2.0299
  157MOL   H29547407   2.934   7.216   2.063 -2.9156 -0.3269 -0.5164
  157MOL   H29647408   3.149   7.289   2.116 -0.2074  0.8257 -0.0595
  157MOL   H29747409   3.037   7.244   2.250  0.8215 -2.0695  1.4382
  157MOL   H29847410   3.209   7.211   2.270 -0.8935 -1.2699  0.7692
  157MOL   H29947411   3.017   6.862   2.470 -0.5848  2.4556  1.4234
  157MOL   H30047412   2.889   6.786   2.356  0.6839  0.6317 -0.5792
  157MOL   H30147413   2.851   6.904   2.471  1.7281  0.3881  1.0627
  157MOL   H30247414   3.177   7.059   2.064 -1.3649 -1.8135 -0.6169
  158MOL     C147415   2.811   6.008   5.202 -0.8486 -0.5236 -0.0944
  158MOL     C247416   2.757   5.909   5.311 -1.0631 -0.2161 -0.5969
  158MOL     C347417   2.603   5.908   5.298 -0.5694 -0.0646  0.0245
  158MOL     C447418   2.817   5.764   5.289 -0.0308 -0.1407 -0.8354
  158MOL     O547419   2.892   5.743   5.197 -0.1451  0.2037 -0.5736
  158MOL     O647420   2.779   5.673   5.381  0.5261 -0.3546 -0.1315
  158MOL     C747421   2.817   5.541   5.367 -0.8494  0.4787  0.2372
  158MOL     H847422   2.920   6.015   5.205 -0.6338 -2.7915 -1.3687
  158MOL     H947423   2.780   5.987   5.100 -1.0231  0.0562 -0.1624
  158MOL    H1047424   2.564   5.997   5.347 -0.7909 -1.0580  1.7227
  158MOL    H1147425   2.575   5.907   5.193 -0.0251  0.2935 -0.1263
  158MOL    H1247426   2.552   5.829   5.353  2.0922 -0.5191  2.0052
  158MOL    H1347427   2.921   5.546   5.400 -0.7931 -1.5350  0.4197
  158MOL    H1447428   2.816   5.505   5.264 -0.1506 -2.5484  1.2370
  158MOL    H1547429   2.763   5.469   5.428  1.0215 -0.6386  0.6054
  158MOL    H1647430   2.774   6.108   5.221  0.3385 -0.4423  2.0837
  158MOL    C1747431   2.793   5.949   5.462  0.7185  0.7484 -0.0638
  158MOL    C1847432   2.934   5.980   5.523  0.4167  0.2133  0.2459
  158MOL    C1947433   3.035   5.892   5.459  0.1177  0.3415 -0.2461
  158MOL    C2047434   2.968   6.131   5.492 -0.5060 -0.1288 -0.3590
  158MOL    O2147435   2.889   6.223   5.459 -0.6400  0.1655 -0.0448
  158MOL    O2247436   3.101   6.156   5.523 -0.3326 -0.1701 -0.5265
  158MOL    C2347437   3.147   6.292   5.512 -0.2241  0.5438  0.3572
  158MOL    H2447438   2.738   5.880   5.526 -0.1690 -0.6950 -2.2769
  158MOL    H2547439   2.739   6.042   5.479 -1.9706 -0.3909 -1.8496
  158MOL    H2647440   3.003   5.788   5.461 -0.1758  0.4053 -1.3534
  158MOL    H2747441   3.052   5.926   5.357  0.4352  1.9552  0.3354
  158MOL    H2847442   3.134   5.901   5.504  0.3200  1.2138 -0.8529
  158MOL    H2947443   3.082   6.378   5.528  0.8325  1.8364 -2.0942
  158MOL    H3047444   3.198   6.294   5.416  1.2665  1.8623  1.1398
  158MOL    H3147445   3.240   6.311   5.567 -0.4179  3.0484 -0.1209
  158MOL    C3247446   2.927   5.947   5.681  0.0094  0.1599  0.1062
  158MOL    C3347447   2.881   6.048   5.793 -0.8905  0.3078 -0.6194
  158MOL    C3447448   3.002   6.145   5.816  0.2737 -0.6024  0.4410
  158MOL    C3547449   2.751   6.136   5.769  0.1271 -0.4765 -0.3858
  158MOL    O3647450   2.661   6.096   5.694 -0.2145  0.1132  0.1448
  158MOL    O3747451   2.746   6.258   5.832  0.6235  0.5513  0.5472
  158MOL    C3847452   2.644   6.345   5.791  0.0954  0.5372  0.3129
  158MOL    H3947453   3.025   5.906   5.705 -0.3838 -1.6041 -1.2012
  158MOL    H4047454   2.866   5.857   5.687  0.3807 -0.1337 -0.5117
  158MOL    H4147455   3.005   6.170   5.922  0.0103  2.4492 -0.2258
  158MOL    H4247456   3.101   6.102   5.797 -0.1847 -0.9831 -1.2017
  158MOL    H4347457   2.990   6.231   5.751  3.5839 -1.1541 -1.0495
  158MOL    H4447458   2.647   6.436   5.850  1.0149  0.8530 -0.2059
  158MOL    H4547459   2.549   6.295   5.810  1.2469 -1.4242  1.0593
  158MOL    H4647460   2.646   6.380   5.687  0.1415  0.8314  0.4128
  158MOL    C4747461   2.862   5.980   5.939  0.6175  0.3202 -0.2299
  158MOL    C4847462   2.756   5.874   5.987 -0.8221 -0.0512 -0.2371
  158MOL    C4947463   2.613   5.930   5.954  0.5228 -0.3297  0.4103
  158MOL    C5047464   2.789   5.744   5.914  0.1518  0.2588 -0.5067
  158MOL    O5147465   2.702   5.662   5.876 -0.7047  0.4835 -0.0856
  158MOL    O5247466   2.920   5.723   5.900  0.2516 -0.1518 -0.7501
  158MOL    C5347467   2.966   5.596   5.835 -0.4931 -0.7340  0.3947
  158MOL    H5447468   2.838   6.068   5.999  0.7848  1.2920 -1.5590
  158MOL    H5547469   2.956   5.943   5.979 -1.0701 -2.6968  1.1509
  158MOL    H5647470   2.578   5.908   5.853 -0.5758 -2.1251  1.1545
  158MOL    H5747471   2.530   5.885   6.010 -0.4548  1.3177  0.3072
  158MOL    H5847472   2.593   6.035   5.975 -4.1666 -0.9245 -0.5686
  158MOL    H5947473   2.926   5.507   5.884 -2.5609  0.0186  0.1244
  158MOL    H6047474   3.075   5.599   5.840 -0.5574  2.2585  0.7825
  158MOL    H6147475   2.941   5.595   5.729  0.0994 -0.5118  0.2524
  158MOL    C6247476   2.768   5.841   6.144  0.1453  0.5521 -0.1580
  158MOL    C6347477   2.790   5.946   6.260  0.0510  0.2062 -0.1946
  158MOL    C6447478   2.756   5.878   6.392  0.2875  0.4132 -0.0868
  158MOL    C6547479   2.943   5.978   6.264 -0.2802  0.0583 -0.0930
  158MOL    O6647480   2.985   6.080   6.213  0.2489 -0.6846  0.4132
  158MOL    O6747481   3.020   5.882   6.310 -0.0735 -0.5040 -0.2179
  158MOL    C6847482   3.157   5.894   6.310  0.4508  0.0833 -0.0880
  158MOL    H6947483   2.849   5.772   6.164 -0.5230 -0.6552 -1.5092
  158MOL    H7047484   2.682   5.782   6.176 -0.0980  2.0802  2.1999
  158MOL    H7147485   2.815   5.786   6.392  2.7153  1.9209 -0.4240
  158MOL    H7247486   2.797   5.925   6.481  0.8343  1.1457 -0.7212
  158MOL    H7347487   2.652   5.852   6.413  0.6528 -0.1945  0.9739
  158MOL    H7447488   3.210   5.801   6.330  0.6214  0.3079  0.5253
  158MOL    H7547489   3.185   5.968   6.386  0.3504 -0.1194  0.1453
  158MOL    H7647490   3.203   5.919   6.215  0.5369 -1.2607 -0.4100
  158MOL    C7747491   2.691   6.068   6.234 -0.3088 -0.4373 -0.1499
  158MOL    C7847492   2.644   6.168   6.347  0.4623 -0.1485 -0.4916
  158MOL    C7947493   2.509   6.109   6.403 -0.1592 -0.1917  0.7373
  158MOL    C8047494   2.748   6.191   6.467  0.2037 -0.2611 -0.3051
  158MOL    O8147495   2.717   6.181   6.585  0.3165  0.1104 -0.1490
  158MOL    O8247496   2.874   6.232   6.430  0.1201 -0.5478 -0.8168
  158MOL    C8347497   2.979   6.244   6.532 -0.4810 -0.7646 -0.9361
  158MOL    H8447498   2.606   6.019   6.188 -0.6028  0.0658 -0.1532
  158MOL    H8547499   2.745   6.129   6.161 -0.1382 -1.4106 -0.8336
  158MOL    H8647500   2.545   6.017   6.451 -0.1277 -0.2449  0.6132
  158MOL    H8747501   2.463   6.173   6.478  1.7645  0.9092  0.9899
  158MOL    H8847502   2.439   6.089   6.322 -0.4401  0.7395  0.7467
  158MOL    H8947503   2.989   6.344   6.575  0.3262 -1.6794  1.0983
  158MOL    H9047504   3.068   6.221   6.473  1.0415 -1.3920  1.5196
  158MOL    H9147505   2.959   6.167   6.607 -1.2794 -0.4568 -0.8269
  158MOL    C9247506   2.615   6.300   6.269  0.1485  0.3354 -0.0091
  158MOL    C9347507   2.530   6.427   6.316  0.0279  0.1824 -0.2983
  158MOL    C9447508   2.379   6.384   6.342 -0.1577  0.0637  0.2388
  158MOL    C9547509   2.593   6.490   6.450  0.4936 -0.1796  0.4232
  158MOL    O9647510   2.529   6.504   6.558  0.2165  0.3053 -0.2155
  158MOL    O9747511   2.731   6.515   6.442  1.1547 -0.8466  0.5595
  158MOL    C9847512   2.795   6.569   6.561  0.7248 -0.2600 -0.3754
  158MOL    H9947513   2.581   6.279   6.167  1.3127  1.1027 -0.5659
  158MOL   H10047514   2.716   6.335   6.247  0.6251 -0.8461  0.2498
  158MOL   H10147515   2.357   6.367   6.448  3.1056 -3.4228  0.4462
  158MOL   H10247516   2.305   6.460   6.318  0.0462 -0.3581 -1.7975
  158MOL   H10347517   2.359   6.298   6.278 -3.5941  0.8906  0.1037
  158MOL   H10447518   2.765   6.502   6.642 -0.1835  1.2796  0.5882
  158MOL   H10547519   2.768   6.670   6.590 -0.7321 -1.4315  2.6415
  158MOL   H10647520   2.903   6.576   6.553  0.6852  0.6476 -0.1734
  158MOL   C10747521   2.549   6.532   6.196  0.3405  0.0490 -0.3412
  158MOL   C10847522   2.520   6.682   6.209 -0.1265 -0.4935  0.2015
  158MOL   C10947523   2.396   6.712   6.301 -0.3592  0.1435  0.0720
  158MOL   C11047524   2.641   6.759   6.272  0.6567 -0.1709  0.5838
  158MOL   O11147525   2.646   6.803   6.385 -0.6408  0.5750 -0.1286
  158MOL   O11247526   2.749   6.757   6.191  0.1319 -0.4406 -0.2394
  158MOL   C11347527   2.869   6.808   6.237 -0.1455  0.0631 -0.3727
  158MOL   H11447528   2.495   6.492   6.110  0.9835 -0.0345 -0.7078
  158MOL   H11547529   2.654   6.522   6.169  0.7383 -0.5395  1.3289
  158MOL   H11647530   2.306   6.669   6.258  1.0932 -2.3143 -0.6533
  158MOL   H11747531   2.410   6.666   6.399 -0.5109  0.3051  0.1703
  158MOL   H11847532   2.378   6.817   6.324 -0.2657  0.4772 -1.3105
  158MOL   H11947533   2.925   6.840   6.149 -0.5890  2.5447  0.1881
  158MOL   H12047534   2.927   6.741   6.299  0.0562 -2.6309 -3.3346
  158MOL   H12147535   2.853   6.900   6.294  0.3570  1.8113 -2.9288
  158MOL   C12247536   2.483   6.732   6.065 -0.2094  0.2624 -0.0790
  158MOL   C12347537   2.405   6.864   6.034  0.7792 -0.1453 -0.3302
  158MOL   C12447538   2.255   6.835   6.061 -0.0813  0.5456  0.1972
  158MOL   C12547539   2.443   6.986   6.119 -0.2515  0.3399 -0.2601
  158MOL   O12647540   2.366   7.064   6.164 -0.4257 -0.4305  0.3994
  158MOL   O12747541   2.576   7.008   6.127 -0.3396 -0.0622 -0.7155
  158MOL   C12847542   2.627   7.122   6.197  0.0132 -0.4298  0.0699
  158MOL   H12947543   2.412   6.655   6.034 -0.7882  0.6119  0.3798
  158MOL   H13047544   2.571   6.717   6.001 -0.3129 -0.6961 -0.0101
  158MOL   H13147545   2.225   6.850   6.165 -2.2975 -1.7152 -0.0671
  158MOL   H13247546   2.201   6.915   6.008  1.6118 -0.2745 -2.8975
  158MOL   H13347547   2.201   6.748   6.024 -0.6074  0.6464  0.7150
  158MOL   H13447548   2.581   7.118   6.295  0.4963 -0.0572  0.3167
  158MOL   H13547549   2.603   7.216   6.147  0.6451 -1.0604 -1.4433
  158MOL   H13647550   2.736   7.123   6.196  0.0086  0.3220  0.3307
  158MOL   C13747551   2.446   6.918   5.892  0.0070 -0.2132  0.5725
  158MOL   C13847552   2.423   6.834   5.759 -0.1528 -0.0151 -0.3143
  158MOL   C13947553   2.428   6.942   5.646  0.2728  0.5768  0.4743
  158MOL   C14047554   2.545   6.737   5.742  0.3276 -0.1125  0.5498
  158MOL   O14147555   2.526   6.615   5.743  0.1581 -0.2888  0.0501
  158MOL   O14247556   2.666   6.791   5.734  0.5430 -0.8102 -0.4444
  158MOL   C14347557   2.776   6.706   5.709  0.0591  0.2242 -0.3073
  158MOL   H14447558   2.551   6.950   5.890 -0.7164  2.5003  2.8497
  158MOL   H14547559   2.394   7.011   5.872 -1.6994 -0.8000  2.1570
  158MOL   H14647560   2.428   6.895   5.548  0.0973  0.0996  0.7005
  158MOL   H14747561   2.342   7.010   5.645 -0.2487 -0.0557 -2.1685
  158MOL   H14847562   2.517   7.001   5.668  0.7605  0.9059 -2.1616
  158MOL   H14947563   2.750   6.619   5.649 -0.0600 -2.5991  3.6491
  158MOL   H15047564   2.813   6.670   5.805  3.2757 -0.7125 -1.8231
  158MOL   H15147565   2.850   6.765   5.655  0.0372  1.6913  1.2268
  158MOL   C15247566   2.281   6.762   5.757  0.6242  0.0126  0.0483
  158MOL   C15347567   2.208   6.696   5.632 -0.0947  0.2225 -1.0180
  158MOL   C15447568   2.110   6.592   5.694 -0.4673 -0.2663  0.3025
  158MOL   C15547569   2.126   6.809   5.567 -0.1686 -1.3441 -0.5317
  158MOL   O15647570   2.175   6.900   5.502 -0.2276  0.1418 -0.1272
  158MOL   O15747571   1.995   6.801   5.588 -0.2611  0.0057  0.8404
  158MOL   C15847572   1.902   6.851   5.496  0.1714 -0.4973 -0.4021
  158MOL   H15947573   2.212   6.834   5.800 -0.7729 -1.4745  0.3525
  158MOL   H16047574   2.277   6.680   5.829  1.7902 -0.1048 -0.0175
  158MOL   H16147575   2.058   6.639   5.778 -1.9004 -1.0102 -0.1569
  158MOL   H16247576   2.033   6.564   5.622  1.3018 -1.2092 -1.2845
  158MOL   H16347577   2.169   6.506   5.727 -1.1980 -0.4257  1.1995
  158MOL   H16447578   1.916   6.793   5.405  0.1705 -0.6964 -0.2783
  158MOL   H16547579   1.924   6.954   5.470 -0.6052  0.1591  1.4300
  158MOL   H16647580   1.798   6.838   5.527 -0.5200  2.5232 -1.3277
  158MOL   C16747581   2.305   6.618   5.537 -0.3539  0.5281  0.9867
  158MOL   C16847582   2.260   6.563   5.398  0.5363 -0.0447 -0.8173
  158MOL   C16947583   2.250   6.688   5.303  0.0551  0.3220 -0.3915
  158MOL   C17047584   2.377   6.479   5.342  0.3726  0.7242 -0.5670
  158MOL   O17147585   2.425   6.510   5.232  0.2155 -0.1551  0.3964
  158MOL   O17247586   2.419   6.385   5.425 -0.0649 -0.4479  0.1443
  158MOL   C17347587   2.527   6.297   5.395  0.1483 -0.0196  0.9737
  158MOL   H17447588   2.348   6.542   5.603 -1.6535 -0.5401  0.6125
  158MOL   H17547589   2.387   6.687   5.517  0.2021 -0.4842 -0.2049
  158MOL   H17647590   2.306   6.774   5.340  0.1894 -0.2267  0.6980
  158MOL   H17747591   2.279   6.685   5.198 -0.1480  1.2562 -0.4792
  158MOL   H17847592   2.147   6.718   5.287 -0.3766  0.0676  1.7584
  158MOL   H17947593   2.605   6.344   5.335  1.0034 -2.1142  0.4059
  158MOL   H18047594   2.483   6.215   5.338 -0.6643 -0.1085  1.7081
  158MOL   H18147595   2.568   6.262   5.489  1.8767  3.1418  1.4697
  158MOL   C18247596   2.122   6.489   5.387  0.1387 -0.2504  0.5106
  158MOL   C18347597   2.071   6.393   5.273 -0.3351 -0.2654 -0.1238
  158MOL   C18447598   2.115   6.445   5.132 -0.2399 -0.0826  0.8522
  158MOL   C18547599   2.144   6.247   5.282  0.2892  0.5927  0.2004
  158MOL   O18647600   2.193   6.206   5.386  0.1590 -0.3191 -0.2046
  158MOL   O18747601   2.134   6.173   5.173 -0.2453  0.7353 -0.2944
  158MOL   C18847602   2.209   6.059   5.170 -0.0253  0.1187  0.2098
  158MOL   H18947603   2.047   6.559   5.424  0.0226 -0.7025  1.1398
  158MOL   H19047604   2.122   6.421   5.472  1.5416 -0.4662  0.3423
  158MOL   H19147605   2.066   6.391   5.051 -0.6539 -0.8676  1.6149
  158MOL   H19247606   2.099   6.552   5.122 -1.0274 -0.2752  0.0390
  158MOL   H19347607   2.224   6.442   5.122 -0.4195 -0.3494 -1.1346
  158MOL   H19447608   2.306   6.076   5.217 -0.0211  2.1105 -0.4480
  158MOL   H19547609   2.227   6.027   5.068  0.1595 -1.2501  0.6703
  158MOL   H19647610   2.151   5.979   5.216 -0.1024  0.0145 -0.0698
  158MOL   C19747611   1.916   6.374   5.267 -0.1717  0.4549  0.5292
  158MOL   C19847612   1.830   6.342   5.395 -0.1864 -0.2550 -0.4745
  158MOL   C19947613   1.884   6.229   5.492 -0.3348  0.1420 -0.5900
  158MOL   C20047614   1.795   6.468   5.477  0.6728  0.4102  0.1475
  158MOL   O20147615   1.788   6.580   5.423  0.5286 -0.2563 -0.1617
  158MOL   O20247616   1.745   6.431   5.596 -0.2399  0.1000 -0.4959
  158MOL   C20347617   1.706   6.532   5.688 -0.3077  0.4172 -0.4000
  158MOL   H20447618   1.895   6.298   5.191  0.3709  0.1276  0.7088
  158MOL   H20547619   1.887   6.472   5.229  0.1442  0.2031 -0.3648
  158MOL   H20647620   1.808   6.207   5.567  1.9260  0.0384  1.7501
  158MOL   H20747621   1.919   6.137   5.446 -4.5466 -2.7534  1.6239
  158MOL   H20847622   1.968   6.264   5.551  0.1457 -0.6245 -0.8145
  158MOL   H20947623   1.793   6.555   5.748  0.2644 -1.2648 -0.5584
  158MOL   H21047624   1.619   6.494   5.742 -0.2738 -1.5235 -1.6631
  158MOL   H21147625   1.673   6.623   5.638 -1.7103 -0.3876 -0.9949
  158MOL   C21247626   1.688   6.291   5.339 -0.3285  0.5593  0.2415
  158MOL   C21347627   1.662   6.141   5.299  0.3251 -0.0522  1.0403
  158MOL   C21447628   1.776   6.081   5.207 -0.3090  0.4289 -0.0616
  158MOL   C21547629   1.636   6.057   5.428 -0.2021 -0.2231  0.3526
  158MOL   O21647630   1.553   6.107   5.502  0.2428 -0.5001 -0.0632
  158MOL   O21747631   1.712   5.944   5.451  0.2583  0.0985  0.0874
  158MOL   C21847632   1.678   5.868   5.570  0.1241  0.4799  0.5906
  158MOL   H21947633   1.679   6.349   5.248  2.2886 -1.1401 -1.1844
  158MOL   H22047634   1.601   6.311   5.402 -1.1885  2.2283 -1.4490
  158MOL   H22147635   1.771   6.115   5.104  0.4693 -0.8392 -0.5391
  158MOL   H22247636   1.882   6.085   5.232 -0.3023 -0.5637  0.1062
  158MOL   H22347637   1.773   5.972   5.209  1.8580  0.3443  0.2757
  158MOL   H22447638   1.719   5.906   5.664 -1.1475  0.1749  1.2951
  158MOL   H22547639   1.704   5.763   5.557  0.8764  0.9213 -1.5210
  158MOL   H22647640   1.570   5.878   5.585 -0.1283 -0.2298 -0.7012
  158MOL   C22747641   1.531   6.145   5.209 -0.3283 -0.4305 -0.0351
  158MOL   C22847642   1.449   6.025   5.156  0.4153  0.2812 -0.7277
  158MOL   C22947643   1.390   6.070   5.020  0.6178 -0.1633  0.2458
  158MOL   C23047644   1.518   5.894   5.142  0.3558  0.0888 -0.0245
  158MOL   O23147645   1.515   5.808   5.231  0.3634 -0.2428  0.7079
  158MOL   O23247646   1.602   5.889   5.036 -0.7222  0.1338 -0.1880
  158MOL   C23347647   1.663   5.772   4.989  0.3638 -0.0607  0.0135
  158MOL   H23447648   1.559   6.213   5.128 -1.1989  0.6696  0.5854
  158MOL   H23547649   1.460   6.208   5.262  0.0827 -0.3906  0.4648
  158MOL   H23647650   1.467   6.098   4.948  1.7023  0.9739  1.8138
  158MOL   H23747651   1.344   5.986   4.967 -0.7396 -0.7061  2.2030
  158MOL   H23847652   1.313   6.147   5.024  0.4957 -0.2904  0.3734
  158MOL   H23947653   1.696   5.717   5.078  0.9471 -2.2483 -1.5174
  158MOL   H24047654   1.746   5.802   4.926 -1.1628  0.2577 -1.9122
  158MOL   H24147655   1.592   5.708   4.936 -0.4034  1.6039 -1.0155
  158MOL   C24247656   1.324   6.029   5.261  0.7539 -0.4554  0.2936
  158MOL   C24347657   1.202   5.928   5.263  0.5345  0.1259  0.1676
  158MOL   C24447658   1.155   5.891   5.119 -0.5769  0.3611 -0.7577
  158MOL   C24547659   1.256   5.797   5.326 -0.4521 -0.2516 -0.1432
  158MOL   O24647660   1.265   5.688   5.272  0.4203  0.0060  0.2357
  158MOL   O24747661   1.292   5.814   5.454 -0.6015  0.6307  0.3808
  158MOL   C24847662   1.354   5.702   5.523 -0.6592  1.1480 -0.1127
  158MOL   H24947663   1.276   6.118   5.221 -1.2776 -1.5182  0.3165
  158MOL   H25047664   1.369   6.041   5.360  0.0824 -0.3122  0.5842
  158MOL   H25147665   1.232   5.838   5.063 -1.5120 -2.1853  0.2986
  158MOL   H25247666   1.071   5.822   5.120  0.3420 -0.7656  0.4233
  158MOL   H25347667   1.111   5.974   5.064  1.9070  1.5297 -1.0536
  158MOL   H25447668   1.426   5.654   5.455  0.6458  2.0574  0.5979
  158MOL   H25547669   1.278   5.625   5.530 -0.2594  0.8181  0.5351
  158MOL   H25647670   1.402   5.710   5.620  1.2293 -0.1640 -0.9151
  158MOL   C25747671   1.086   5.980   5.352  0.6791  0.3753 -0.2831
  158MOL   C25847672   1.018   6.127   5.339  0.1652 -0.3882  0.2829
  158MOL   C25947673   0.876   6.098   5.403  0.0472  0.1640 -0.1149
  158MOL   C26047674   1.089   6.222   5.435 -0.0335 -0.1665 -0.2404
  158MOL   O26147675   1.028   6.277   5.525 -0.3782  0.1045  0.0489
  158MOL   O26247676   1.214   6.250   5.403 -0.0622  0.4495  0.1784
  158MOL   C26347677   1.292   6.341   5.484  0.0744 -0.2449 -0.3772
  158MOL   H26447678   1.112   5.968   5.457  1.7453 -4.0650 -0.9721
  158MOL   H26547679   1.010   5.903   5.342 -0.7273  1.5284  1.1850
  158MOL   H26647680   0.822   6.184   5.441 -1.0228  0.1790 -1.6523
  158MOL   H26747681   0.822   6.032   5.335  1.0450 -0.8887  0.0998
  158MOL   H26847682   0.888   6.033   5.490 -2.5126 -1.9855 -1.2979
  158MOL   H26947683   1.307   6.440   5.442 -0.0430 -1.5440 -3.6489
  158MOL   H27047684   1.393   6.300   5.491  0.9219  1.8249 -0.3627
  158MOL   H27147685   1.258   6.340   5.588  1.9250  0.1594  0.2550
  158MOL   C27247686   0.997   6.177   5.185  0.3475 -0.6080 -0.3828
  158MOL   C27347687   0.948   6.320   5.150  0.3472  0.3508  0.4366
  158MOL   C27447688   0.824   6.353   5.234  0.2015 -0.2810 -0.5067
  158MOL   C27547689   1.063   6.429   5.172  0.5049  0.0716 -0.2771
  158MOL   O27647690   1.028   6.539   5.216  0.5242 -0.2479 -0.6042
  158MOL   O27747691   1.185   6.383   5.159 -0.0239  0.1814 -0.2761
  158MOL   C27847692   1.292   6.472   5.182 -0.7657  0.1217  0.6055
  158MOL   H27947693   0.940   6.098   5.137  1.0757 -2.4856  1.7587
  158MOL   H28047694   1.089   6.165   5.128  0.2834 -4.1831  0.1375
  158MOL   H28147695   0.746   6.276   5.227 -3.0217  2.4427  3.2187
  158MOL   H28247696   0.861   6.365   5.336 -2.4975  1.4717  0.3173
  158MOL   H28347697   0.794   6.453   5.202  1.0707 -0.0099 -0.4700
  158MOL   H28447698   1.379   6.407   5.192  0.1459  1.1069 -0.7788
  158MOL   H28547699   1.273   6.536   5.268  0.6694 -1.0676  1.8530
  158MOL   H28647700   1.304   6.539   5.097  1.5767 -0.5868  0.3428
  158MOL   C28747701   0.901   6.310   5.001  0.1960 -0.3896  0.3537
  158MOL   C28847702   0.874   6.447   4.935  1.3307  0.0180  0.7609
  158MOL   C28947703   0.934   6.450   4.800 -0.4726 -0.4340  0.3798
  158MOL   C29047704   0.721   6.489   4.938  1.1522  0.3163 -0.1881
  158MOL   O29147705   0.687   6.599   4.996 -0.1293  0.2726 -0.0821
  158MOL   O29247706   0.642   6.406   4.880 -0.0617  0.9409  0.0732
  158MOL   C29347707   0.501   6.428   4.871  0.2464  0.1615 -0.4070
  158MOL   H29447708   0.806   6.259   4.990  0.0245  0.1708 -0.8875
  158MOL   H29547709   0.973   6.253   4.942  0.5539  1.4307 -1.0245
  158MOL   H29647710   0.923   6.357   4.745 -1.1706 -0.7364  1.0329
  158MOL   H29747711   0.892   6.527   4.735  0.3861 -0.0500  0.2788
  158MOL   H29847712   1.042   6.464   4.793 -0.4952 -0.5862 -0.3601
  158MOL   H29947713   0.459   6.474   4.961 -1.5366  1.7800 -2.0005
  158MOL   H30047714   0.454   6.331   4.855  1.2639 -0.1617 -1.4925
  158MOL   H30147715   0.481   6.470   4.773  0.5518  1.8902  0.2514
  158MOL   H30247716   0.929   6.526   4.988  2.4568 -1.1801  1.4180
  159MOL     C147717   6.546   6.242   0.765 -0.1911  0.0181 -0.0758
  159MOL     C247718   6.545   6.387   0.816  0.8643 -0.0660  0.3465
  159MOL     C347719   6.478   6.473   0.700 -0.4162 -0.2789 -0.8223
  159MOL     C447720   6.452   6.396   0.940 -0.1390 -0.5342  0.0647
  159MOL     O547721   6.365   6.488   0.955  0.2131  0.7188 -0.0856
  159MOL     O647722   6.473   6.295   1.030 -0.4591 -0.0826  0.3802
  159MOL     C747723   6.406   6.287   1.149 -0.0722 -0.4277  0.6668
  159MOL     H847724   6.599   6.164   0.821 -0.8536  0.2102  0.8265
  159MOL     H947725   6.442   6.210   0.761  0.1036 -1.1281  0.9126
  159MOL    H1047726   6.384   6.424   0.674 -0.3578 -0.3337 -0.9285
  159MOL    H1147727   6.443   6.575   0.721  1.3290  0.4701 -1.4497
  159MOL    H1247728   6.546   6.474   0.615  0.0662  2.6030 -0.4566
  159MOL    H1347729   6.448   6.368   1.209  0.9201  1.5635 -2.5637
  159MOL    H1447730   6.437   6.184   1.167  2.8088 -0.1126 -1.9328
  159MOL    H1547731   6.298   6.295   1.142  0.0629  1.5643  0.4161
  159MOL    H1647732   6.566   6.233   0.658 -1.8745  0.8894 -0.4702
  159MOL    C1747733   6.689   6.425   0.850  0.4990 -0.2416 -0.4561
  159MOL    C1847734   6.732   6.565   0.913 -0.1465  0.2017 -0.4929
  159MOL    C1947735   6.882   6.565   0.892 -0.3054  0.7552 -0.1140
  159MOL    C2047736   6.677   6.686   0.825 -0.1964 -0.1078 -0.4446
  159MOL    O2147737   6.603   6.765   0.872  0.2300  0.3980  0.0968
  159MOL    O2247738   6.722   6.689   0.694 -0.7022 -0.3850  0.0251
  159MOL    C2347739   6.716   6.819   0.621 -0.1666 -0.3370 -0.4084
  159MOL    H2447740   6.737   6.405   0.755 -0.4102 -2.4249 -0.4717
  159MOL    H2547741   6.729   6.348   0.915  0.8593 -1.0857 -1.6707
  159MOL    H2647742   6.904   6.545   0.787  0.8905  1.8202 -0.0714
  159MOL    H2747743   6.925   6.663   0.910  2.7349 -0.5300  0.0514
  159MOL    H2847744   6.930   6.491   0.956 -2.0831 -1.4614 -1.2524
  159MOL    H2947745   6.613   6.822   0.588  0.0007 -0.8991 -0.9962
  159MOL    H3047746   6.790   6.807   0.541  0.5372 -2.7234  0.5419
  159MOL    H3147747   6.729   6.906   0.685  1.5986 -1.9977  1.6157
  159MOL    C3247748   6.698   6.578   1.068  0.8420 -0.2984  0.1080
  159MOL    C3347749   6.784   6.657   1.175  0.7791 -0.1701  0.2500
  159MOL    C3447750   6.918   6.586   1.206 -0.0332  0.3865  0.4983
  159MOL    C3547751   6.810   6.806   1.133  0.3364  0.6694 -0.6477
  159MOL    O3647752   6.925   6.852   1.111  0.3439 -0.4881  0.6082
  159MOL    O3747753   6.693   6.872   1.114 -0.5898 -0.3522 -0.4124
  159MOL    C3847754   6.700   7.003   1.074  0.0961  0.3707  0.2207
  159MOL    H3947755   6.693   6.477   1.109  0.9252 -0.1985  0.3631
  159MOL    H4047756   6.596   6.616   1.081  0.3544 -1.6714  0.4455
  159MOL    H4147757   6.908   6.483   1.173 -2.1062  0.6535  0.2287
  159MOL    H4247758   7.009   6.619   1.155 -0.3606  2.4299  1.1867
  159MOL    H4347759   6.946   6.592   1.312 -2.6507  2.0273  1.1387
  159MOL    H4447760   6.774   7.055   1.135 -0.6910  2.3148 -0.4513
  159MOL    H4547761   6.607   7.057   1.092  0.2312  1.2267 -1.5168
  159MOL    H4647762   6.719   6.999   0.966  1.3160 -1.0783  0.4678
  159MOL    C4747763   6.694   6.661   1.310 -0.4013  0.3544  0.0902
  159MOL    C4847764   6.670   6.554   1.424  0.4958 -0.4721 -0.1147
  159MOL    C4947765   6.718   6.411   1.382 -0.2239  0.1461 -0.3290
  159MOL    C5047766   6.758   6.582   1.547  0.0740  0.1170 -0.1696
  159MOL    O5147767   6.829   6.682   1.553 -0.4222  0.0618 -0.4806
  159MOL    O5247768   6.746   6.489   1.650  0.2185  0.3469  0.1811
  159MOL    C5347769   6.831   6.513   1.763 -0.3227 -0.1183 -0.1511
  159MOL    H5447770   6.591   6.671   1.276 -0.4957  0.5474  0.4254
  159MOL    H5547771   6.716   6.756   1.360 -0.3930  0.2558  0.2767
  159MOL    H5647772   6.827   6.409   1.384 -0.2501 -0.2252  0.8903
  159MOL    H5747773   6.693   6.339   1.459 -0.0989  1.1593  0.6823
  159MOL    H5847774   6.684   6.370   1.287 -0.0610 -2.5082  0.7308
  159MOL    H5947775   6.766   6.576   1.824 -0.4935 -0.5596  0.1221
  159MOL    H6047776   6.929   6.549   1.733  0.4495 -1.1435  1.0951
  159MOL    H6147777   6.830   6.420   1.819 -2.0020 -0.3497 -0.5314
  159MOL    C6247778   6.519   6.536   1.471 -0.8454 -0.8345 -0.0184
  159MOL    C6347779   6.431   6.650   1.544  0.1537 -0.6455  0.1783
  159MOL    C6447780   6.432   6.608   1.691  0.4736  0.1093 -0.2500
  159MOL    C6547781   6.497   6.787   1.540  0.1926 -0.3175  0.0003
  159MOL    O6647782   6.554   6.834   1.637 -0.1701  0.0270 -0.1415
  159MOL    O6747783   6.477   6.852   1.425 -0.1187 -0.4332 -0.0818
  159MOL    C6847784   6.536   6.979   1.402 -0.1459 -0.0400  0.2465
  159MOL    H6947785   6.500   6.440   1.519  1.4438 -0.9025  0.8175
  159MOL    H7047786   6.474   6.532   1.371  1.8557  1.1599 -1.3888
  159MOL    H7147787   6.536   6.601   1.721  0.9809 -0.2748 -2.0348
  159MOL    H7247788   6.389   6.664   1.774  1.0437 -2.4977  1.8625
  159MOL    H7347789   6.379   6.513   1.698 -1.3992  1.0658 -0.9422
  159MOL    H7447790   6.521   7.046   1.486  1.7897  3.0033 -1.7060
  159MOL    H7547791   6.507   7.022   1.306 -1.9326 -2.8703 -0.5309
  159MOL    H7647792   6.644   6.967   1.391  0.0572  1.6544  0.2282
  159MOL    C7747793   6.283   6.649   1.487  0.5288 -0.4900  0.2148
  159MOL    C7847794   6.160   6.734   1.526 -0.5156 -0.9447 -0.3828
  159MOL    C7947795   6.188   6.884   1.555 -0.8628  0.7529  0.2843
  159MOL    C8047796   6.059   6.719   1.410 -0.4628  0.4566  0.3975
  159MOL    O8147797   6.012   6.812   1.353 -0.3382  0.5875  0.2299
  159MOL    O8247798   6.025   6.593   1.385  0.3906  0.4394  0.0880
  159MOL    C8347799   5.945   6.562   1.276 -0.4427  0.1556  0.1787
  159MOL    H8447800   6.249   6.547   1.502  0.0575 -0.4532 -0.5974
  159MOL    H8547801   6.296   6.658   1.379  1.1951  2.4569  0.4844
  159MOL    H8647802   6.100   6.949   1.557 -1.1563  0.3910 -0.4507
  159MOL    H8747803   6.249   6.896   1.644 -0.4044  2.2231 -0.2116
  159MOL    H8847804   6.244   6.932   1.474  0.6182 -0.8365  0.3523
  159MOL    H8947805   5.905   6.465   1.307  1.3607 -1.7744 -3.2288
  159MOL    H9047806   6.006   6.544   1.187 -1.5802 -3.0674 -0.0334
  159MOL    H9147807   5.859   6.626   1.258  1.5156  1.9824 -3.2170
  159MOL    C9247808   6.092   6.661   1.652  0.0395  0.2959 -0.2496
  159MOL    C9347809   5.971   6.717   1.733 -0.1098  0.1184  0.3598
  159MOL    C9447810   6.030   6.816   1.841 -0.8325 -0.4261 -0.0377
  159MOL    C9547811   5.875   6.808   1.660  1.0500  0.2572 -0.0451
  159MOL    O9647812   5.878   6.935   1.669  0.1909 -0.2693 -0.1400
  159MOL    O9747813   5.793   6.742   1.566  0.6267 -0.3000 -0.0574
  159MOL    C9847814   5.715   6.820   1.481 -0.1759 -0.4502 -0.0813
  159MOL    H9947815   6.171   6.645   1.725 -1.4360  0.6521  1.4666
  159MOL   H10047816   6.068   6.557   1.629 -3.6494  1.7277 -3.4007
  159MOL   H10147817   6.080   6.904   1.799 -0.6332 -0.1066  0.8394
  159MOL   H10247818   5.955   6.853   1.911  1.5831  0.1390  2.3557
  159MOL   H10347819   6.101   6.763   1.905  0.6502  1.5083 -0.0227
  159MOL   H10447820   5.657   6.759   1.411  3.6207 -2.7134 -1.3798
  159MOL   H10547821   5.774   6.885   1.417  0.7260 -0.5188  0.6774
  159MOL   H10647822   5.654   6.891   1.538  0.1255 -0.3239  0.0825
  159MOL   C10747823   5.882   6.599   1.791 -0.7382 -0.7803 -0.5979
  159MOL   C10847824   5.903   6.520   1.927 -0.1541 -1.0790  0.3951
  159MOL   C10947825   6.049   6.467   1.940  0.1045  0.1600  0.3662
  159MOL   C11047826   5.862   6.606   2.044  0.4855 -0.1612 -0.1274
  159MOL   O11147827   5.779   6.696   2.036  0.0974 -0.2319  0.1312
  159MOL   O11247828   5.913   6.565   2.160  0.2763  0.2034  0.4111
  159MOL   C11347829   5.859   6.590   2.287  0.3268 -0.1639 -0.1422
  159MOL   H11447830   5.873   6.519   1.718  0.3019 -2.5542  1.1736
  159MOL   H11547831   5.778   6.629   1.784  0.1450  2.0184 -2.7078
  159MOL   H11647832   6.058   6.386   2.013 -1.3212 -0.6185 -0.2941
  159MOL   H11747833   6.092   6.428   1.847  0.1834  2.8403 -0.7761
  159MOL   H11847834   6.121   6.543   1.970 -0.4423  0.1620  1.7006
  159MOL   H11947835   5.795   6.678   2.278  0.7208 -0.1510 -3.4696
  159MOL   H12047836   5.941   6.616   2.353  1.0674 -3.3919  0.3104
  159MOL   H12147837   5.799   6.509   2.329  0.0218 -0.0871 -0.4242
  159MOL   C12247838   5.825   6.381   1.927 -0.0014 -0.5751  0.3436
  159MOL   C12347839   5.666   6.363   1.905 -0.3833  0.0985  0.3090
  159MOL   C12447840   5.576   6.472   1.975  1.2227  0.2690  0.0957
  159MOL   C12547841   5.621   6.377   1.756  0.0167  0.1125  0.1088
  159MOL   O12647842   5.505   6.404   1.729  0.2215 -0.0705 -0.2038
  159MOL   O12747843   5.704   6.347   1.657 -0.8821  0.7161  0.4056
  159MOL   C12847844   5.678   6.392   1.525 -0.1529 -0.1601 -0.3027
  159MOL   H12947845   5.836   6.343   2.029  0.7442  0.2827  0.5921
  159MOL   H13047846   5.884   6.321   1.857  2.2984  3.7838 -1.6327
  159MOL   H13147847   5.593   6.493   2.081  0.8750 -2.1187  0.6669
  159MOL   H13247848   5.589   6.568   1.927  0.6772 -0.4530 -1.5334
  159MOL   H13347849   5.470   6.450   1.966  1.1597  0.8066 -0.4867
  159MOL   H13447850   5.639   6.494   1.522 -0.4762 -0.3189 -1.3981
  159MOL   H13547851   5.601   6.332   1.476 -1.2846  1.5210 -0.6356
  159MOL   H13647852   5.771   6.390   1.469 -0.7795  0.3880 -1.3732
  159MOL   C13747853   5.616   6.227   1.955  0.0686  0.0519 -0.1272
  159MOL   C13847854   5.687   6.088   1.928  0.4549 -0.0462  1.0823
  159MOL   C13947855   5.706   6.055   1.773  0.9652 -0.1415  0.2631
  159MOL   C14047856   5.824   6.080   1.996  0.2577  0.7170 -0.4801
  159MOL   O14147857   5.927   6.065   1.931  0.0790  0.0607  0.2326
  159MOL   O14247858   5.820   6.094   2.129  0.3346 -0.1720  0.4463
  159MOL   C14347859   5.934   6.081   2.208  0.5798 -0.3558 -0.0784
  159MOL   H14447860   5.520   6.209   1.905  0.6178  0.4765 -1.3473
  159MOL   H14547861   5.604   6.240   2.063  3.0153 -0.6407  0.3086
  159MOL   H14647862   5.610   6.056   1.721  0.9595  1.4013  0.2836
  159MOL   H14747863   5.773   6.131   1.731  0.1590  0.2319 -0.3841
  159MOL   H14847864   5.742   5.955   1.748  0.8764  0.1426 -1.0506
  159MOL   H14947865   5.914   6.111   2.310 -0.3322 -2.4492  0.3844
  159MOL   H15047866   6.025   6.133   2.179 -0.1474  1.2585  0.4934
  159MOL   H15147867   5.966   5.977   2.204 -1.4157 -0.9258 -2.3073
  159MOL   C15247868   5.583   5.984   2.001 -0.1673 -0.0434  0.2033
  159MOL   C15347869   5.610   5.833   2.051  0.0161  0.6829 -0.1738
  159MOL   C15447870   5.692   5.830   2.183 -0.1883 -0.3367  0.1296
  159MOL   C15547871   5.468   5.775   2.081 -0.3539 -0.3173 -0.2951
  159MOL   O15647872   5.434   5.761   2.202  0.0376 -0.4093 -0.5926
  159MOL   O15747873   5.391   5.751   1.974 -0.4790 -0.4858 -1.1869
  159MOL   C15847874   5.251   5.735   1.999 -0.0157 -0.8841 -0.1814
  159MOL   H15947875   5.516   5.969   1.916 -0.8764 -0.4302  0.8287
  159MOL   H16047876   5.529   6.032   2.082 -0.3561 -1.2874  0.8261
  159MOL   H16147877   5.648   5.904   2.249  0.7439  0.3682 -0.0285
  159MOL   H16247878   5.681   5.734   2.233  0.2655  0.2234  1.3082
  159MOL   H16347879   5.798   5.855   2.173 -0.0374 -1.0408 -0.0968
  159MOL   H16447880   5.191   5.819   2.032 -1.3590 -0.6825 -2.9502
  159MOL   H16547881   5.232   5.652   2.068 -0.3695 -0.8153 -0.1972
  159MOL   H16647882   5.211   5.709   1.901 -1.2369  0.6221 -0.0887
  159MOL   C16747883   5.683   5.749   1.939  0.6896 -0.1096 -0.0022
  159MOL   C16847884   5.764   5.617   1.964 -0.6907 -0.9106 -0.1235
  159MOL   C16947885   5.911   5.647   2.019  0.3682  0.7832  0.4895
  159MOL   C17047886   5.682   5.533   2.064  0.4376  0.9004 -0.3691
  159MOL   O17147887   5.724   5.499   2.177 -0.2303 -0.3375 -0.2751
  159MOL   O17247888   5.563   5.503   2.018 -0.1365  0.0260  0.2679
  159MOL   C17347889   5.470   5.433   2.104 -0.0675 -0.2366  0.0455
  159MOL   H17447890   5.759   5.821   1.907  0.2621  1.2353  1.9307
  159MOL   H17547891   5.615   5.744   1.854  1.2759 -1.5558 -0.4033
  159MOL   H17647892   5.914   5.644   2.128  0.1587 -3.1981  0.4628
  159MOL   H17747893   5.988   5.573   1.996 -1.3405 -0.7707 -0.2636
  159MOL   H17847894   5.945   5.751   2.012 -0.7009  1.0725 -0.5649
  159MOL   H17947895   5.391   5.385   2.046 -0.2620 -1.1506  1.0424
  159MOL   H18047896   5.419   5.503   2.170  0.5146 -1.4413  1.8069
  159MOL   H18147897   5.515   5.357   2.168  1.3704  1.3847  0.9936
  159MOL   C18247898   5.778   5.524   1.836  0.3642 -0.0294 -0.0392
  159MOL   C18347899   5.826   5.577   1.692  0.1772  0.0072  0.3790
  159MOL   C18447900   5.859   5.439   1.626  0.7534 -0.8074  0.0500
  159MOL   C18547901   5.704   5.644   1.625  0.3041 -0.9533 -0.5720
  159MOL   O18647902   5.707   5.764   1.600  0.2178 -0.3086  0.3720
  159MOL   O18747903   5.600   5.563   1.617  0.1424 -0.0821 -0.1239
  159MOL   C18847904   5.481   5.624   1.587 -0.1819 -0.1488  0.3437
  159MOL   H18947905   5.681   5.483   1.810 -0.9876  3.6254 -1.0554
  159MOL   H19047906   5.830   5.433   1.866  3.4407  0.7973 -2.5899
  159MOL   H19147907   5.776   5.370   1.641  0.1852 -0.1845 -0.1899
  159MOL   H19247908   5.879   5.438   1.519  2.2837 -0.8156  0.3266
  159MOL   H19347909   5.950   5.393   1.664  2.1355  3.3096  1.9943
  159MOL   H19447910   5.473   5.668   1.488  0.0615 -0.6931  0.0795
  159MOL   H19547911   5.468   5.697   1.667 -1.6570 -2.0832  1.9191
  159MOL   H19647912   5.409   5.542   1.595  0.3824 -0.4930  2.1611
  159MOL   C19747913   5.952   5.665   1.704 -0.6365 -0.1574  0.0218
  159MOL   C19847914   6.051   5.703   1.583 -0.0036  0.3972 -0.0764
  159MOL   C19947915   6.143   5.581   1.550 -0.0003 -0.0040 -0.3703
  159MOL   C20047916   5.977   5.726   1.449 -0.5994  0.5145 -0.6889
  159MOL   O20147917   5.942   5.637   1.372 -0.1364  0.1881 -0.4601
  159MOL   O20247918   5.959   5.854   1.418 -0.1109 -0.0341  0.0439
  159MOL   C20347919   5.915   5.895   1.292 -0.4013  0.0713 -0.5007
  159MOL   H20447920   6.007   5.610   1.780 -1.4059  0.4636  1.0356
  159MOL   H20547921   5.920   5.753   1.760 -0.8063 -2.5243  3.8379
  159MOL   H20647922   6.186   5.538   1.641 -1.7285 -3.4823 -1.1243
  159MOL   H20747923   6.091   5.495   1.508  0.3462 -0.5297  0.2629
  159MOL   H20847924   6.223   5.613   1.483 -0.1556  2.0882  0.4134
  159MOL   H20947925   5.822   5.846   1.265 -1.1088  1.4262 -0.5605
  159MOL   H21047926   5.999   5.863   1.231  0.3116 -2.9437  1.9481
  159MOL   H21147927   5.892   6.002   1.287  0.5411  0.4264  1.6896
  159MOL   C21247928   6.138   5.837   1.620 -0.7275 -0.3259  0.2646
  159MOL   C21347929   6.264   5.836   1.718 -0.3214 -0.6595  0.4166
  159MOL   C21447930   6.238   5.767   1.853 -0.0381 -0.3407 -0.3610
  159MOL   C21547931   6.390   5.781   1.651  0.0790 -0.0232 -0.5032
  159MOL   O21647932   6.405   5.774   1.529 -0.1740 -0.2998  0.0295
  159MOL   O21747933   6.484   5.759   1.744  0.0393  0.6525  0.0033
  159MOL   C21847934   6.612   5.710   1.702 -0.0438  0.6448 -0.2919
  159MOL   H21947935   6.072   5.908   1.669  1.4180  2.0344 -0.1603
  159MOL   H22047936   6.166   5.890   1.529  2.1836  1.5531  2.1342
  159MOL   H22147937   6.320   5.783   1.923  0.8981 -1.5763 -1.1551
  159MOL   H22247938   6.143   5.797   1.897  0.1749  0.7321 -0.6220
  159MOL   H22347939   6.236   5.660   1.834 -0.0667 -0.2588 -0.8312
  159MOL   H22447940   6.666   5.803   1.682 -1.4601  1.5139 -0.1694
  159MOL   H22547941   6.623   5.646   1.615  0.9122 -0.4935  0.6615
  159MOL   H22647942   6.657   5.655   1.785  0.0880 -0.0752 -0.8355
  159MOL   C22747943   6.289   5.982   1.772 -0.1876  0.0450  0.1665
  159MOL   C22847944   6.345   6.108   1.693 -0.0367  0.2868 -0.2710
  159MOL   C22947945   6.477   6.080   1.617 -0.0858 -0.3992  0.4482
  159MOL   C23047946   6.249   6.155   1.581  0.2038 -0.3467  0.3904
  159MOL   O23147947   6.290   6.170   1.466  0.3097  0.3984  0.7564
  159MOL   O23247948   6.124   6.173   1.618  0.0916 -0.3262 -0.1828
  159MOL   C23347949   6.025   6.224   1.527 -0.6679  0.4394  0.0805
  159MOL   H23447950   6.371   5.969   1.843 -0.4039 -1.1975  0.2037
  159MOL   H23547951   6.212   6.012   1.842 -1.3397 -0.5432 -0.8318
  159MOL   H23647952   6.547   6.033   1.687  0.3267 -1.6180 -0.7588
  159MOL   H23747953   6.462   6.009   1.536  0.1539  0.1740 -0.1006
  159MOL   H23847954   6.531   6.168   1.584 -0.1384 -0.6086 -0.1951
  159MOL   H23947955   6.041   6.328   1.498  0.5026 -0.0636 -1.0853
  159MOL   H24047956   5.930   6.220   1.582 -2.0556  0.8039 -2.2370
  159MOL   H24147957   6.023   6.167   1.434 -2.4215  1.1896 -0.3606
  159MOL   C24247958   6.366   6.235   1.784 -0.0328 -0.3936  0.1208
  159MOL   C24347959   6.431   6.236   1.924 -0.4969  0.0944  0.0312
  159MOL   C24447960   6.327   6.185   2.025  0.4449  0.1007  0.9449
  159MOL   C24547961   6.559   6.150   1.933 -0.9401  0.4203 -0.2841
  159MOL   O24647962   6.565   6.050   2.007  0.3132 -0.1368  0.1191
  159MOL   O24747963   6.657   6.198   1.858 -0.4444  0.2227  0.1270
  159MOL   C24847964   6.786   6.138   1.854  0.7679 -0.6505 -0.4034
  159MOL   H24947965   6.271   6.284   1.802 -0.2277 -1.0257  0.8405
  159MOL   H25047966   6.411   6.304   1.712 -0.3228  0.3131  0.6182
  159MOL   H25147967   6.324   6.223   2.127  1.3964 -0.3301  1.1436
  159MOL   H25247968   6.226   6.216   1.998  0.3563 -1.4637 -0.6181
  159MOL   H25347969   6.320   6.076   2.025 -1.1850  0.1743 -0.6663
  159MOL   H25447970   6.779   6.033   1.827  0.3882 -1.2107  1.7229
  159MOL   H25547971   6.828   6.136   1.955 -0.1829  1.9797  0.0936
  159MOL   H25647972   6.851   6.196   1.790 -2.6986  2.3194 -1.4006
  159MOL   C25747973   6.458   6.386   1.964  0.0558 -0.0193  0.2830
  159MOL   C25847974   6.503   6.438   2.107  0.4442  0.2705  0.0442
  159MOL   C25947975   6.568   6.333   2.195 -0.4191  0.7772  0.7031
  159MOL   C26047976   6.584   6.562   2.088  0.1739 -0.3124 -0.3335
  159MOL   O26147977   6.697   6.578   2.146  0.7525 -0.1981 -0.2578
  159MOL   O26247978   6.527   6.655   2.008 -0.4115 -0.3507 -0.8665
  159MOL   C26347979   6.587   6.778   1.982 -0.5198  0.1904  0.1127
  159MOL   H26447980   6.372   6.444   1.929  0.6444  0.1521 -0.8971
  159MOL   H26547981   6.530   6.423   1.891  0.0347  1.0931  0.8172
  159MOL   H26647982   6.654   6.290   2.143 -2.2920  0.5631 -2.3304
  159MOL   H26747983   6.614   6.392   2.274  0.2600 -0.8465  1.5403
  159MOL   H26847984   6.498   6.259   2.233  0.0657  0.6754  1.4131
  159MOL   H26947985   6.522   6.829   1.911 -2.0595 -0.8504  0.7455
  159MOL   H27047986   6.689   6.772   1.943 -0.7351 -0.2519 -0.3851
  159MOL   H27147987   6.582   6.844   2.069 -1.6413  0.3580 -0.0700
  159MOL   C27247988   6.366   6.491   2.170 -0.5132  0.6627 -0.0560
  159MOL   C27347989   6.340   6.549   2.317  0.5577  0.7443  0.1969
  159MOL   C27447990   6.199   6.607   2.320 -0.0838 -0.1168 -0.2133
  159MOL   C27547991   6.348   6.435   2.420 -0.0433 -0.0682  0.7337
  159MOL   O27647992   6.437   6.428   2.502 -0.3240  0.0121 -0.0016
  159MOL   O27747993   6.251   6.342   2.416  0.1284  0.1893  0.6119
  159MOL   C27847994   6.248   6.235   2.507 -0.2380  0.1842 -0.6740
  159MOL   H27947995   6.282   6.422   2.168  0.8700 -1.3584  4.6694
  159MOL   H28047996   6.333   6.576   2.109 -1.7306 -0.1092 -0.4981
  159MOL   H28147997   6.185   6.658   2.416 -0.1200 -0.4733 -0.0280
  159MOL   H28247998   6.182   6.695   2.258 -0.5460  1.8356  2.5634
  159MOL   H28347999   6.127   6.530   2.294 -0.1239 -0.1301 -0.0662
  159MOL   H28448000   6.148   6.225   2.548  0.0329  1.4415  0.3364
  159MOL   H28548001   6.318   6.260   2.587  1.2438  1.0466 -2.2167
  159MOL   H28648002   6.293   6.155   2.448  4.8071  0.7874  2.0564
  159MOL   C28748003   6.440   6.661   2.338  0.5245  0.2730 -0.1828
  159MOL   C28848004   6.443   6.746   2.468  0.3732  0.3762 -0.3862
  159MOL   C28948005   6.584   6.767   2.517 -0.2807  0.4543 -0.2307
  159MOL   C29048006   6.372   6.886   2.451  0.5182 -0.1783 -0.0304
  159MOL   O29148007   6.426   6.977   2.385 -0.3946  0.0499 -0.8135
  159MOL   O29248008   6.255   6.890   2.505 -0.7627 -0.2688 -0.4905
  159MOL   C29348009   6.174   6.999   2.478 -0.3611  0.7357  0.0887
  159MOL   H29448010   6.435   6.731   2.255  0.6110 -0.0514 -0.4651
  159MOL   H29548011   6.540   6.620   2.324  0.9589  1.7335 -1.4564
  159MOL   H29648012   6.641   6.675   2.503 -2.8101 -1.1691 -0.1384
  159MOL   H29748013   6.637   6.842   2.457 -0.6408  0.9250  0.0339
  159MOL   H29848014   6.597   6.802   2.619  0.4944 -0.3788 -0.0376
  159MOL   H29948015   6.162   7.015   2.371 -1.2722  1.1932  0.2495
  159MOL   H30048016   6.211   7.097   2.511  0.5493 -0.2415  2.0563
  159MOL   H30148017   6.079   6.997   2.532  0.7562  0.5427  2.0915
  159MOL   H30248018   6.391   6.691   2.546  0.0943  0.9970 -0.1301
  160MOL     C148019   1.576   6.493   2.922  0.2947  0.1596  0.6522
  160MOL     C248020   1.649   6.365   2.939  0.1846  0.6492 -0.5464
  160MOL     C348021   1.546   6.248   2.941 -0.3213  0.3222  0.2940
  160MOL     C448022   1.742   6.351   2.817  0.9632  0.5335 -0.3883
  160MOL     O548023   1.749   6.246   2.756  0.3366  0.4042  0.0369
  160MOL     O648024   1.815   6.460   2.799 -0.2529 -0.2391  0.0406
  160MOL     C748025   1.911   6.458   2.688 -0.4394  0.1150  0.2900
  160MOL     H848026   1.484   6.478   2.979 -0.1503 -0.9945 -0.3401
  160MOL     H948027   1.635   6.577   2.957  0.8089 -0.9708  2.5897
  160MOL    H1048028   1.495   6.247   3.037  0.2395 -1.4072  0.5826
  160MOL    H1148029   1.465   6.262   2.869  0.2162  1.9119 -0.0450
  160MOL    H1248030   1.590   6.149   2.938 -4.8759 -1.8737  1.7972
  160MOL    H1348031   1.955   6.359   2.677 -1.0813  0.0454 -2.2276
  160MOL    H1448032   1.988   6.531   2.711 -1.5119  1.3584  0.0126
  160MOL    H1548033   1.851   6.471   2.597 -1.1255 -1.7265  0.4583
  160MOL    H1648034   1.547   6.510   2.818  2.9552  1.5868  0.1042
  160MOL    C1748035   1.728   6.373   3.083 -0.1121 -0.0374 -0.2082
  160MOL    C1848036   1.850   6.275   3.127 -0.4149 -0.8912  0.2789
  160MOL    C1948037   1.799   6.129   3.115 -0.5626 -0.7626 -0.0102
  160MOL    C2048038   1.970   6.288   3.032 -0.5237  0.2413 -0.6721
  160MOL    O2148039   2.023   6.194   2.984 -0.0005  0.5349 -0.1966
  160MOL    O2248040   2.009   6.413   3.004  0.0187  0.6429  0.0458
  160MOL    C2348041   2.134   6.435   2.930 -0.1826  0.1398 -0.0013
  160MOL    H2448042   1.651   6.374   3.160 -0.2887  0.1839 -0.3867
  160MOL    H2548043   1.749   6.480   3.094 -1.7151  0.0941  1.8729
  160MOL    H2648044   1.703   6.127   3.167 -0.4267  1.1645  0.3503
  160MOL    H2748045   1.787   6.106   3.009  1.3087 -1.9503  0.0195
  160MOL    H2848046   1.864   6.056   3.162 -1.1639 -0.1495  1.8309
  160MOL    H2948047   2.132   6.540   2.903 -0.3068  0.0059 -0.5225
  160MOL    H3048048   2.139   6.383   2.834  0.9457 -0.0563  0.1552
  160MOL    H3148049   2.226   6.403   2.979 -1.5190 -1.5621  1.4343
  160MOL    C3248050   1.881   6.303   3.283 -0.4447 -0.4539  0.0192
  160MOL    C3348051   2.027   6.280   3.342 -0.0465  0.3704  0.4373
  160MOL    C3448052   2.086   6.142   3.299 -0.4973 -0.0106  0.4384
  160MOL    C3548053   2.128   6.391   3.298 -0.7286 -0.6519  0.3096
  160MOL    O3648054   2.243   6.363   3.269 -0.3689  0.1698 -0.2139
  160MOL    O3748055   2.080   6.513   3.306  0.1186  0.0458  0.3011
  160MOL    C3848056   2.163   6.626   3.291 -0.4521 -0.5436  0.2808
  160MOL    H3948057   1.813   6.237   3.337 -1.4719  1.5607  1.2445
  160MOL    H4048058   1.850   6.405   3.307 -0.2719 -0.5575  0.6815
  160MOL    H4148059   2.182   6.121   3.345 -0.2377  0.9012  0.3180
  160MOL    H4248060   2.016   6.063   3.327 -0.6153 -0.0856 -0.0567
  160MOL    H4348061   2.103   6.140   3.191 -1.9740 -1.0110  0.2080
  160MOL    H4448062   2.208   6.607   3.193  0.4781  3.5175 -0.1566
  160MOL    H4548063   2.245   6.630   3.363  0.8324  0.4560 -1.1698
  160MOL    H4648064   2.100   6.713   3.277 -0.5932 -1.1274 -3.4214
  160MOL    C4748065   2.020   6.268   3.498  0.0165  0.3204 -0.4491
  160MOL    C4848066   2.017   6.391   3.603 -0.4322  0.5889 -0.1324
  160MOL    C4948067   2.163   6.452   3.620  0.4446  0.1038 -0.2056
  160MOL    C5048068   1.916   6.505   3.566 -0.4696 -0.2119  0.3351
  160MOL    O5148069   1.951   6.620   3.548  0.2365  0.2555 -0.1019
  160MOL    O5248070   1.787   6.458   3.555  0.3593 -0.2999 -0.5150
  160MOL    C5348071   1.692   6.542   3.493  0.7237 -0.1369  0.3468
  160MOL    H5448072   2.108   6.213   3.531  0.3827  1.0397 -0.1979
  160MOL    H5548073   1.937   6.202   3.522  0.2773  0.3945  0.7006
  160MOL    H5648074   2.164   6.546   3.676  0.9246  0.9909 -1.6933
  160MOL    H5748075   2.230   6.382   3.670  2.0107  1.2174 -0.7199
  160MOL    H5848076   2.211   6.476   3.526 -0.5951  0.9193 -0.5352
  160MOL    H5948077   1.681   6.542   3.385 -1.7985 -2.1559  0.5417
  160MOL    H6048078   1.707   6.647   3.517  0.1566 -0.2171  1.0847
  160MOL    H6148079   1.595   6.507   3.529  0.3317  0.9070  0.3289
  160MOL    C6248080   1.977   6.321   3.752 -0.6489 -0.7363  0.4446
  160MOL    C6348081   1.947   6.407   3.890 -0.6224  0.2081  0.5675
  160MOL    C6448082   2.028   6.540   3.906 -0.2533  0.1990 -0.1489
  160MOL    C6548083   1.795   6.457   3.877  0.2006  0.1146 -1.2777
  160MOL    O6648084   1.760   6.576   3.856 -0.1319  0.0789 -0.0237
  160MOL    O6748085   1.707   6.354   3.896  0.3229  0.2501  0.0117
  160MOL    C6848086   1.569   6.371   3.864  0.1427  0.1701 -0.1129
  160MOL    H6948087   2.059   6.254   3.778  0.0155  0.5160  1.6989
  160MOL    H7048088   1.896   6.251   3.733 -0.2075 -1.1098 -0.0700
  160MOL    H7148089   2.129   6.503   3.888 -0.4132 -0.4699  0.2979
  160MOL    H7248090   2.020   6.622   3.835 -0.1012  0.7134  0.4215
  160MOL    H7348091   2.019   6.587   4.004  0.5348  0.7056 -0.3124
  160MOL    H7448092   1.525   6.286   3.914  2.5961 -0.2200  1.4962
  160MOL    H7548093   1.564   6.353   3.756  0.0394 -0.1913 -0.0464
  160MOL    H7648094   1.535   6.471   3.890 -0.4728 -0.1601  0.3453
  160MOL    C7748095   1.968   6.318   4.017  0.1146 -0.3769 -0.5559
  160MOL    C7848096   2.109   6.266   4.078  0.6615  0.1064  0.1146
  160MOL    C7948097   2.175   6.159   3.992  0.7275  0.0534  0.7855
  160MOL    C8048098   2.207   6.383   4.099 -0.4766  0.0862  0.0704
  160MOL    O8148099   2.302   6.401   4.025 -0.0570 -0.6117 -0.0656
  160MOL    O8248100   2.178   6.475   4.191 -0.1404 -0.0865 -0.0735
  160MOL    C8348101   2.249   6.598   4.201 -0.1409 -0.0300  0.9766
  160MOL    H8448102   1.901   6.235   3.994 -0.0272 -0.3465 -0.2529
  160MOL    H8548103   1.926   6.377   4.098 -0.0261 -2.3627  0.8478
  160MOL    H8648104   2.108   6.079   3.962  0.1802  1.3034 -1.4669
  160MOL    H8748105   2.213   6.193   3.896 -1.4440 -0.4118 -0.2679
  160MOL    H8848106   2.268   6.125   4.037  1.3923  1.0659  0.1991
  160MOL    H8948107   2.254   6.634   4.099 -1.5457 -0.2474  0.8210
  160MOL    H9048108   2.347   6.581   4.245 -0.0500 -1.6638  0.1839
  160MOL    H9148109   2.192   6.666   4.265 -2.5921 -1.1453  0.0473
  160MOL    C9248110   2.074   6.219   4.221 -0.3034  0.2124  0.4294
  160MOL    C9348111   1.982   6.089   4.249 -0.5864  0.1512  0.0614
  160MOL    C9448112   1.862   6.066   4.162  0.6416 -0.1694 -0.4701
  160MOL    C9548113   2.073   5.964   4.241 -0.0884 -0.7003  0.2081
  160MOL    O9648114   2.074   5.904   4.135  0.0121 -0.0272 -0.8565
  160MOL    O9748115   2.154   5.946   4.344 -0.0692 -0.1407  0.0004
  160MOL    C9848116   2.241   5.839   4.352 -0.5212 -0.0694 -0.0177
  160MOL    H9948117   2.026   6.303   4.271  0.3759  0.1417  1.2051
  160MOL   H10048118   2.170   6.214   4.273 -0.8042 -0.7604  1.2765
  160MOL   H10148119   1.874   6.054   4.055 -1.8032  1.6505 -0.9893
  160MOL   H10248120   1.828   5.966   4.186  2.4195 -0.2841  1.8569
  160MOL   H10348121   1.790   6.144   4.185  0.3507 -1.2337  2.4161
  160MOL   H10448122   2.187   5.745   4.347  0.8288 -0.8191 -1.0167
  160MOL   H10548123   2.292   5.836   4.448 -1.9002  0.7796  0.7554
  160MOL   H10648124   2.314   5.844   4.271  0.3338 -0.5026  0.7234
  160MOL   C10748125   1.920   6.108   4.397 -0.0762  0.1778 -0.2794
  160MOL   C10848126   1.817   6.013   4.468  0.0458  0.1846 -0.8038
  160MOL   C10948127   1.866   5.871   4.443  0.5745 -0.6280  0.6804
  160MOL   C11048128   1.842   6.032   4.623 -0.1578  0.9726  0.7034
  160MOL   O11148129   1.818   5.944   4.705  0.2369  0.1060  0.1737
  160MOL   O11248130   1.860   6.159   4.658  0.0019 -0.0582  0.1253
  160MOL   C11348131   1.895   6.184   4.794  0.1921  0.0949 -0.2017
  160MOL   H11448132   1.876   6.208   4.401  0.8777  0.6824 -1.8430
  160MOL   H11548133   2.001   6.117   4.468  0.4516 -1.5318 -0.6320
  160MOL   H11648134   1.857   5.852   4.336 -1.6325  0.5197  0.6368
  160MOL   H11748135   1.972   5.865   4.469  0.7165  1.1833  0.6254
  160MOL   H11848136   1.811   5.794   4.496  1.1355 -0.9964  0.7316
  160MOL   H11948137   1.966   6.264   4.813 -0.0335  0.1082  0.5870
  160MOL   H12048138   1.918   6.099   4.858 -0.4522  0.5829  0.6791
  160MOL   H12148139   1.802   6.229   4.829 -0.7486  0.2174 -2.7305
  160MOL   C12248140   1.664   6.018   4.433 -0.4597 -0.6597 -0.4338
  160MOL   C12348141   1.561   6.135   4.477 -0.3392  0.3815  0.0619
  160MOL   C12448142   1.541   6.134   4.634 -0.1366  0.7913 -0.2756
  160MOL   C12548143   1.621   6.264   4.433 -1.1945 -0.7577  0.0091
  160MOL   O12648144   1.672   6.345   4.508  0.1912 -0.4632  0.0931
  160MOL   O12748145   1.618   6.289   4.304  0.2450  0.3913  0.2728
  160MOL   C12848146   1.669   6.418   4.260  0.5947  0.4375 -0.6552
  160MOL   H12948147   1.613   5.928   4.466  1.3416 -1.9010 -0.9748
  160MOL   H13048148   1.659   6.030   4.325  0.8388 -0.8817 -0.5285
  160MOL   H13148149   1.466   6.207   4.663 -0.1356  1.0234 -0.8679
  160MOL   H13248150   1.523   6.035   4.677  0.7486  0.1577 -1.3630
  160MOL   H13348151   1.627   6.160   4.696 -0.3910 -1.1229  0.9263
  160MOL   H13448152   1.666   6.406   4.152  1.5081  2.0524 -0.8686
  160MOL   H13548153   1.774   6.425   4.290  0.7885 -1.2321 -0.9143
  160MOL   H13648154   1.608   6.501   4.296  1.5823  0.7727  0.2997
  160MOL   C13748155   1.420   6.095   4.405 -0.8736  0.5015 -0.0376
  160MOL   C13848156   1.278   6.166   4.414 -0.4998 -0.4573 -0.4601
  160MOL   C13948157   1.193   6.089   4.309  0.2895  0.1681  0.4050
  160MOL   C14048158   1.231   6.135   4.562  0.8742 -0.5784 -0.0861
  160MOL   O14148159   1.230   6.227   4.637  1.1777 -0.1863  0.2755
  160MOL   O14248160   1.189   6.009   4.585 -0.3264  0.6937  0.4207
  160MOL   C14348161   1.159   5.966   4.713 -0.1516 -0.0886  0.4147
  160MOL   H14448162   1.404   5.988   4.420 -2.7786  0.6322 -0.9205
  160MOL   H14548163   1.443   6.089   4.299 -3.0650  0.6610 -0.5442
  160MOL   H14648164   1.185   5.983   4.330  0.3313 -0.0950 -0.9222
  160MOL   H14748165   1.087   6.116   4.320  0.3887  0.8956 -0.3897
  160MOL   H14848166   1.220   6.108   4.205 -0.0874  2.5716  0.7020
  160MOL   H14948167   1.250   5.971   4.772  0.3359 -0.7933 -0.2625
  160MOL   H15048168   1.129   5.861   4.709 -1.9890  0.3935  1.0353
  160MOL   H15148169   1.072   6.015   4.757 -0.7839 -0.2911 -0.5948
  160MOL   C15248170   1.299   6.315   4.369  0.0838  0.0226  0.0684
  160MOL   C15348171   1.180   6.419   4.344 -0.0598  0.8268  0.1513
  160MOL   C15448172   1.049   6.399   4.431 -0.0797  0.9861  0.8683
  160MOL   C15548173   1.246   6.560   4.384 -0.0272 -0.8777 -0.2543
  160MOL   O15648174   1.184   6.635   4.457  0.2020  0.0234 -0.1080
  160MOL   O15748175   1.375   6.581   4.342  0.4785 -0.4914 -0.6686
  160MOL   C15848176   1.430   6.714   4.364  0.2128 -0.3105 -0.0125
  160MOL   H15948177   1.354   6.313   4.275  0.2543  0.1484  0.1675
  160MOL   H16048178   1.361   6.350   4.451 -1.0896 -0.9409  1.4028
  160MOL   H16148179   1.007   6.300   4.416 -0.3118  1.4009 -1.2982
  160MOL   H16248180   1.072   6.408   4.538 -2.0203  0.3623  1.3642
  160MOL   H16348181   0.965   6.464   4.410 -0.9814 -0.2300  0.6642
  160MOL   H16448182   1.470   6.716   4.465  1.4154 -0.8135 -0.4705
  160MOL   H16548183   1.356   6.793   4.351  0.1845 -0.0780  1.4810
  160MOL   H16648184   1.514   6.733   4.298 -1.3187  0.4899 -1.7572
  160MOL   C16748185   1.144   6.424   4.185 -0.3261  0.6795  0.1007
  160MOL   C16848186   1.010   6.455   4.112 -0.4776 -0.2565 -0.5021
  160MOL   C16948187   0.918   6.328   4.133 -0.0505  0.3197  0.1591
  160MOL   C17048188   0.948   6.585   4.170  0.0005 -0.1160  0.0430
  160MOL   O17148189   0.837   6.573   4.215  0.2688 -0.0211  0.3804
  160MOL   O17248190   1.017   6.694   4.173 -0.1372  0.1294 -0.1076
  160MOL   C17348191   0.972   6.805   4.249  0.0963  0.6752 -0.6204
  160MOL   H17448192   1.171   6.324   4.151 -0.3410  0.1711  1.5408
  160MOL   H17548193   1.229   6.477   4.142  0.0076 -1.3597 -1.8777
  160MOL   H17648194   0.887   6.310   4.236 -0.3257 -0.1333  0.0043
  160MOL   H17748195   0.826   6.344   4.076  0.5480 -2.3758 -1.6893
  160MOL   H17848196   0.952   6.232   4.093  0.7153  0.0122  1.5349
  160MOL   H17948197   0.899   6.778   4.325 -1.1373 -2.1692 -2.7514
  160MOL   H18048198   0.955   6.898   4.195  0.6545  0.6418 -0.8517
  160MOL   H18148199   1.061   6.824   4.309 -0.8510  2.3674  0.2804
  160MOL   C18248200   1.041   6.467   3.954  0.3428 -0.5182 -0.1764
  160MOL   C18348201   1.079   6.588   3.861  0.0459 -0.4990  0.1653
  160MOL   C18448202   0.961   6.679   3.830  0.0789 -0.2921  0.4773
  160MOL   C18548203   1.194   6.670   3.931 -0.1748 -0.4840 -0.2401
  160MOL   O18648204   1.181   6.787   3.966 -0.1421  0.6077  0.0450
  160MOL   O18748205   1.305   6.599   3.951 -0.2810 -0.5745  0.4061
  160MOL   C18848206   1.416   6.663   4.017 -1.0812  0.0916  0.1559
  160MOL   H18948207   0.947   6.429   3.915 -0.6180  0.3086  1.3038
  160MOL   H19048208   1.109   6.385   3.928 -0.2513 -1.1032  0.1147
  160MOL   H19148209   0.921   6.717   3.924 -2.4840  0.3195 -0.8131
  160MOL   H19248210   0.991   6.763   3.768 -1.9892 -0.3449 -0.6706
  160MOL   H19348211   0.895   6.615   3.771  0.6839 -1.5539  1.1471
  160MOL   H19448212   1.382   6.739   4.086  0.1350  1.3814 -0.6461
  160MOL   H19548213   1.481   6.717   3.948 -2.3524  0.2475 -0.9438
  160MOL   H19648214   1.463   6.575   4.060 -1.9464 -1.6025 -2.1980
  160MOL   C19748215   1.130   6.513   3.731  0.1081 -0.1615 -0.2692
  160MOL   C19848216   1.137   6.570   3.585 -0.1068 -0.4387  0.3358
  160MOL   C19948217   0.992   6.595   3.531 -0.4328  0.6649  0.1247
  160MOL   C20048218   1.219   6.703   3.588  0.7443 -0.3750 -0.3889
  160MOL   O20148219   1.170   6.807   3.538  0.4953 -0.3892  0.0903
  160MOL   O20248220   1.345   6.692   3.639  0.0551  0.2714  0.7122
  160MOL   C20348221   1.425   6.806   3.664  0.7113  0.8720  0.2122
  160MOL   H20448222   1.083   6.415   3.725 -0.0324 -0.1334  0.3935
  160MOL   H20548223   1.234   6.486   3.747 -0.6522 -1.6598  2.3759
  160MOL   H20648224   0.967   6.614   3.426  1.8080  0.6274 -0.4548
  160MOL   H20748225   0.950   6.497   3.551  0.3484  0.2704 -0.1291
  160MOL   H20848226   0.935   6.674   3.579 -0.6431 -0.7050  2.1801
  160MOL   H20948227   1.524   6.761   3.673  0.6083  0.3647 -1.1069
  160MOL   H21048228   1.379   6.849   3.753  0.6789 -3.0705  2.1806
  160MOL   H21148229   1.419   6.876   3.580  0.6053  0.1380 -0.3994
  160MOL   C21248230   1.205   6.462   3.496 -0.3421  0.7073 -0.0195
  160MOL   C21348231   1.255   6.484   3.347  0.2670 -0.8701  0.1448
  160MOL   C21448232   1.356   6.607   3.333  0.1659  0.8423  0.0055
  160MOL   C21548233   1.325   6.350   3.317  0.4459  0.0060 -0.1933
  160MOL   O21648234   1.447   6.334   3.309  0.4707  0.0354  0.0135
  160MOL   O21748235   1.235   6.255   3.305  0.4618 -0.0804  0.0102
  160MOL   C21848236   1.281   6.122   3.250 -0.1262  0.4925 -0.1945
  160MOL   H21948237   1.133   6.380   3.483 -0.4059  0.4686  1.6836
  160MOL   H22048238   1.287   6.417   3.553  0.7277 -0.2336 -2.2474
  160MOL   H22148239   1.313   6.704   3.358 -0.6599  1.2474 -2.8793
  160MOL   H22248240   1.438   6.592   3.403  0.0312  0.4518  0.0802
  160MOL   H22348241   1.400   6.609   3.233 -0.3629  0.4686 -0.2356
  160MOL   H22448242   1.338   6.130   3.157  1.2338 -0.5918  0.5411
  160MOL   H22548243   1.199   6.061   3.211  0.1624  0.5153 -0.8536
  160MOL   H22648244   1.320   6.057   3.327  1.3467 -0.0867 -1.4062
  160MOL   C22748245   1.138   6.512   3.246  0.9204  0.5171  0.3539
  160MOL   C22848246   1.132   6.504   3.084 -0.3361  0.2192 -0.2211
  160MOL   C22948247   1.203   6.385   3.030 -0.0362 -0.4941  0.0742
  160MOL   C23048248   0.981   6.506   3.055 -0.2638 -0.0896 -0.1948
  160MOL   O23148249   0.931   6.443   2.958 -0.1279 -0.1101 -0.2223
  160MOL   O23248250   0.906   6.588   3.137 -0.2540 -0.0050  0.7495
  160MOL   C23348251   0.769   6.567   3.147  0.1216  0.1761  0.5710
  160MOL   H23448252   1.101   6.610   3.276  1.6346  0.4236  1.5688
  160MOL   H23548253   1.067   6.436   3.278  1.7145 -0.7007 -0.6981
  160MOL   H23648254   1.187   6.367   2.923 -0.7915 -1.6491  0.3821
  160MOL   H23748255   1.310   6.400   3.047 -0.3118  0.6092  0.8471
  160MOL   H23848256   1.175   6.292   3.078 -1.0698 -0.1371  0.1761
  160MOL   H23948257   0.735   6.486   3.210  0.2354  0.4945  1.0426
  160MOL   H24048258   0.740   6.544   3.044  1.1463  2.1734 -0.2068
  160MOL   H24148259   0.734   6.670   3.160 -0.1227  0.1723 -0.0119
  160MOL   C24248260   1.197   6.633   3.034  0.1804  0.4386  0.3761
  160MOL   C24348261   1.183   6.694   2.883  0.3472 -0.6534 -0.3143
  160MOL   C24448262   1.209   6.579   2.782 -0.2151 -0.3064  0.4627
  160MOL   C24548263   1.047   6.761   2.857 -0.3069 -0.2841  0.0230
  160MOL   O24648264   1.000   6.762   2.743 -0.0976 -0.6443  0.1696
  160MOL   O24748265   0.989   6.820   2.961 -0.4296  0.2635  0.1929
  160MOL   C24848266   0.864   6.887   2.950 -0.0319  0.1805 -0.3363
  160MOL   H24948267   1.304   6.609   3.034  0.1201  0.1610  0.6723
  160MOL   H25048268   1.189   6.710   3.111 -2.1875  0.9674 -0.3755
  160MOL   H25148269   1.219   6.626   2.684  1.8381 -2.0645 -0.2169
  160MOL   H25248270   1.303   6.528   2.803  1.0445  1.4245 -0.8852
  160MOL   H25348271   1.134   6.506   2.751  0.7668 -0.3552 -1.8555
  160MOL   H25448272   0.852   6.944   3.042  0.4595  0.8397 -0.6839
  160MOL   H25548273   0.787   6.809   2.951 -0.0630  0.1935  2.0194
  160MOL   H25648274   0.861   6.946   2.858 -1.3250 -0.8436 -0.9784
  160MOL   C25748275   1.310   6.797   2.854  0.7182  0.7454  0.0956
  160MOL   C25848276   1.345   6.942   2.919  0.2468 -0.0984  0.4568
  160MOL   C25948277   1.225   7.036   2.904 -0.0613  0.5250 -0.0445
  160MOL   C26048278   1.371   6.914   3.068  0.0523  0.3809  0.5303
  160MOL   O26148279   1.460   6.841   3.105 -0.5906  0.1997 -0.7574
  160MOL   O26248280   1.288   6.973   3.158  0.3087 -0.2237  0.1467
  160MOL   C26348281   1.329   6.982   3.294 -0.3876 -0.4725  0.8249
  160MOL   H26448282   1.287   6.830   2.753  0.4591 -0.8642 -0.3816
  160MOL   H26548283   1.403   6.744   2.835  1.0527  1.4514 -0.2578
  160MOL   H26648284   1.142   7.008   2.969  1.1813 -1.9815  0.5544
  160MOL   H26748285   1.255   7.134   2.941  0.6797  0.6395 -0.9385
  160MOL   H26848286   1.184   7.061   2.806 -0.2273  1.7141  0.3136
  160MOL   H26948287   1.341   6.878   3.326 -0.9758 -0.2895  1.6622
  160MOL   H27048288   1.245   7.022   3.350  0.0711 -0.5887  1.6058
  160MOL   H27148289   1.411   7.052   3.313  0.2743 -1.2065  0.7116
  160MOL   C27248290   1.487   6.995   2.853 -0.1474 -0.3142 -0.0506
  160MOL   C27348291   1.528   7.142   2.881  0.2187 -0.3601  0.8232
  160MOL   C27448292   1.469   7.240   2.763 -0.0792 -0.2789  0.2367
  160MOL   C27548293   1.502   7.195   3.021 -0.5782 -0.2124  0.1414
  160MOL   O27648294   1.564   7.145   3.116  0.3634 -0.2117  0.5105
  160MOL   O27748295   1.405   7.277   3.031  0.1573  0.2642 -0.4603
  160MOL   C27848296   1.362   7.327   3.155  0.3602  0.5111  0.0758
  160MOL   H27948297   1.482   6.976   2.746 -1.5357 -1.4165  0.1818
  160MOL   H28048298   1.561   6.925   2.891 -0.3928 -0.9448 -0.7104
  160MOL   H28148299   1.484   7.203   2.661 -0.3665  0.5810 -0.1192
  160MOL   H28248300   1.361   7.230   2.770 -0.0878 -1.0190 -0.7677
  160MOL   H28348301   1.494   7.345   2.773 -0.2322 -0.1691 -0.5219
  160MOL   H28448302   1.354   7.435   3.149 -0.1559  0.6020  2.0741
  160MOL   H28548303   1.417   7.291   3.242  0.6774  0.4904 -0.1346
  160MOL   H28648304   1.263   7.281   3.163 -0.5805  2.2925 -1.0113
  160MOL   C28748305   1.687   7.146   2.869  0.1833  0.1321  0.8560
  160MOL   C28848306   1.763   7.283   2.886  0.3052  0.4649 -0.0419
  160MOL   C28948307   1.835   7.290   3.020  0.0052  0.0515  0.0365
  160MOL   C29048308   1.839   7.334   2.762  0.2736  0.5214  0.0938
  160MOL   O29148309   1.956   7.367   2.763  0.7597  0.0138  0.0145
  160MOL   O29248310   1.761   7.318   2.654  0.2571 -0.4328  0.0968
  160MOL   C29348311   1.813   7.323   2.525 -0.4377  0.2908 -0.0631
  160MOL   H29448312   1.696   7.101   2.770 -1.0541  1.5492  0.0924
  160MOL   H29548313   1.731   7.066   2.930  0.8601 -0.0917  0.0789
  160MOL   H29648314   1.880   7.388   3.035 -0.2002  0.0538  0.6196
  160MOL   H29748315   1.776   7.265   3.108 -0.5804 -0.0034 -0.3707
  160MOL   H29848316   1.914   7.214   3.012 -1.2736 -1.1015 -2.3212
  160MOL   H29948317   1.789   7.229   2.474  0.5045  0.8404 -1.5483
  160MOL   H30048318   1.921   7.336   2.517 -0.1030 -0.7651  2.1763
  160MOL   H30148319   1.762   7.401   2.468 -0.9536 -0.3442 -0.4837
  160MOL   H30248320   1.680   7.354   2.888  0.9290  1.1956  0.3121
  161MOL     C148321   4.408   6.529   5.463  0.5191  0.6240 -0.4536
  161MOL     C248322   4.355   6.652   5.390  0.2662 -0.5900  0.1119
  161MOL     C348323   4.396   6.772   5.482  0.3511  0.0356  0.2968
  161MOL     C448324   4.420   6.671   5.256  0.0235 -0.1641 -0.4451
  161MOL     O548325   4.514   6.598   5.220  0.5562  0.0310 -0.3832
  161MOL     O648326   4.373   6.781   5.200  0.1857  0.2560  0.4775
  161MOL     C748327   4.420   6.802   5.065 -0.1841 -0.2186  0.6954
  161MOL     H848328   4.333   6.511   5.540  0.6980 -1.8401 -0.8108
  161MOL     H948329   4.413   6.442   5.397  0.2923 -0.3421  0.7859
  161MOL    H1048330   4.350   6.865   5.450  0.7190 -0.0434 -0.4682
  161MOL    H1148331   4.368   6.769   5.587 -1.0811  0.8602 -0.0558
  161MOL    H1248332   4.503   6.790   5.470 -0.0466  1.3949 -1.3266
  161MOL    H1348333   4.516   6.853   5.074 -0.6138  1.0435 -1.5354
  161MOL    H1448334   4.357   6.859   4.996  0.7874 -1.8680 -1.6383
  161MOL    H1548335   4.431   6.706   5.013  2.7424 -0.5075  1.7561
  161MOL    H1648336   4.508   6.543   5.503  1.9173 -2.8307 -2.4926
  161MOL    C1748337   4.200   6.652   5.376 -0.3194 -0.5716 -0.2826
  161MOL    C1848338   4.113   6.538   5.302 -1.0850  0.0841 -0.4704
  161MOL    C1948339   4.167   6.527   5.155  0.2944  0.4721  0.0445
  161MOL    C2048340   4.118   6.398   5.365  0.4608 -0.0307  0.2467
  161MOL    O2148341   4.121   6.300   5.295 -0.4207 -0.3881  0.2306
  161MOL    O2248342   4.117   6.401   5.496  0.2282  0.4721 -0.2881
  161MOL    C2348343   4.120   6.280   5.563 -0.0500  0.1630 -0.0338
  161MOL    H2448344   4.167   6.740   5.321 -1.4056 -1.5962 -1.3042
  161MOL    H2548345   4.173   6.672   5.480  1.7629  0.9749 -0.0035
  161MOL    H2648346   4.112   6.444   5.110  0.1227  0.6940 -0.1563
  161MOL    H2748347   4.145   6.620   5.102 -1.6673 -1.1079 -2.0144
  161MOL    H2848348   4.273   6.501   5.149  0.6298  1.6692  0.6805
  161MOL    H2948349   4.096   6.291   5.669 -0.0295 -1.6142  0.1715
  161MOL    H3048350   4.211   6.224   5.541  1.6766  2.9130 -0.1847
  161MOL    H3148351   4.037   6.224   5.519 -0.0673  1.5713 -1.8950
  161MOL    C3248352   3.957   6.580   5.288  0.0425 -0.0960 -0.5587
  161MOL    C3348353   3.873   6.651   5.401 -0.2014 -0.7211  0.1557
  161MOL    C3448354   3.883   6.565   5.532 -0.0829  0.1291  0.3093
  161MOL    C3548355   3.923   6.789   5.450  0.6576  0.2700  0.4461
  161MOL    O3648356   3.906   6.832   5.565 -0.0990  0.1982 -0.3010
  161MOL    O3748357   3.964   6.871   5.351 -0.6052  0.3851 -0.0856
  161MOL    C3848358   4.034   6.991   5.372 -0.5458  0.5875  0.4971
  161MOL    H3948359   3.900   6.491   5.262 -0.4904 -0.0118  0.2860
  161MOL    H4048360   3.958   6.647   5.202 -1.4357 -0.3162 -0.7685
  161MOL    H4148361   3.857   6.463   5.505  1.3432  0.4728 -2.6165
  161MOL    H4248362   3.980   6.576   5.580  0.1740 -0.7176 -0.0107
  161MOL    H4348363   3.801   6.586   5.601  0.7469  0.1996  1.2715
  161MOL    H4448364   3.988   7.059   5.443 -0.5248  0.0889  0.9876
  161MOL    H4548365   4.042   7.052   5.282 -2.1498  1.1446  0.7275
  161MOL    H4648366   4.135   6.966   5.403 -0.8812 -0.4702  0.7518
  161MOL    C4748367   3.718   6.670   5.377  0.4233 -0.0839  0.0703
  161MOL    C4848368   3.642   6.713   5.244  0.0093  0.3642 -0.1192
  161MOL    C4948369   3.714   6.840   5.190 -0.3240 -0.2849 -0.2606
  161MOL    C5048370   3.642   6.606   5.134 -0.3431 -0.5826  0.1613
  161MOL    O5148371   3.676   6.485   5.155  0.1828  0.1744 -0.0697
  161MOL    O5248372   3.599   6.662   5.013  0.0561  0.0738 -0.2854
  161MOL    C5348373   3.599   6.588   4.895  0.0415  0.3208  0.5416
  161MOL    H5448374   3.669   6.726   5.456 -1.8431  0.7382 -1.8275
  161MOL    H5548375   3.667   6.575   5.395 -2.6322  1.5863  0.4921
  161MOL    H5648376   3.815   6.816   5.157 -1.0381 -2.3276 -1.0604
  161MOL    H5748377   3.662   6.896   5.112  1.0242  1.1280 -0.1586
  161MOL    H5848378   3.717   6.906   5.276 -0.0607 -2.3207  1.3389
  161MOL    H5948379   3.578   6.482   4.912 -1.5383  0.2378 -1.6209
  161MOL    H6048380   3.693   6.594   4.840 -0.9624 -1.4597 -1.4737
  161MOL    H6148381   3.523   6.625   4.826  0.5550  2.9694  1.3428
  161MOL    C6248382   3.491   6.753   5.269 -0.4126 -0.3185  0.6625
  161MOL    C6348383   3.376   6.656   5.318 -0.5945  0.0077  0.0788
  161MOL    C6448384   3.371   6.534   5.221  0.4190  0.5306 -0.0826
  161MOL    C6548385   3.395   6.607   5.462  0.5001  0.6545  0.1175
  161MOL    O6648386   3.352   6.499   5.494 -0.3216  0.0013 -0.4662
  161MOL    O6748387   3.442   6.705   5.537  0.2771  0.3600 -0.5632
  161MOL    C6848388   3.454   6.679   5.676 -0.7322 -0.1967 -0.2855
  161MOL    H6948389   3.452   6.786   5.173  0.3564  0.6195  0.6613
  161MOL    H7048390   3.498   6.843   5.330  0.1356  0.7174 -0.9189
  161MOL    H7148391   3.436   6.453   5.256  2.9454  2.4117 -0.2842
  161MOL    H7248392   3.275   6.484   5.207  0.4789  1.0571 -2.4399
  161MOL    H7348393   3.387   6.558   5.116  1.3425  0.3372  0.0073
  161MOL    H7448394   3.531   6.604   5.697  1.0408  1.9070  0.9061
  161MOL    H7548395   3.364   6.652   5.732 -0.6752  3.0547  1.4803
  161MOL    H7648396   3.481   6.775   5.719 -0.0882 -0.5523  0.1155
  161MOL    C7748397   3.245   6.738   5.294  0.3210 -0.2742  0.0721
  161MOL    C7848398   3.092   6.713   5.346 -0.2219 -0.1386 -0.2815
  161MOL    C7948399   3.046   6.574   5.306 -0.8114 -0.3054  0.2504
  161MOL    C8048400   3.092   6.735   5.497  0.3981  0.2229 -0.2801
  161MOL    O8148401   3.047   6.646   5.569  0.9950 -0.3000 -0.3876
  161MOL    O8248402   3.148   6.847   5.547 -0.5634  0.1145  0.4370
  161MOL    C8348403   3.149   6.869   5.690 -0.0297 -0.0024  0.8819
  161MOL    H8448404   3.234   6.753   5.187 -0.5077  0.1613  0.2102
  161MOL    H8548405   3.279   6.836   5.328  1.1175 -0.1734 -1.0091
  161MOL    H8648406   3.112   6.494   5.340 -0.9780 -0.1274  1.0114
  161MOL    H8748407   2.946   6.548   5.339 -0.7141 -0.4782  0.4091
  161MOL    H8848408   3.059   6.565   5.198 -1.1076 -0.8873  0.2655
  161MOL    H8948409   3.156   6.978   5.694  1.9209 -0.0507 -0.3355
  161MOL    H9048410   3.230   6.828   5.751  1.2559  0.4566 -0.4871
  161MOL    H9148411   3.061   6.832   5.742 -2.1058  2.1480 -0.9990
  161MOL    C9248412   3.010   6.817   5.265  0.3536  0.1434  0.0514
  161MOL    C9348413   2.864   6.868   5.311  0.4713  0.1960 -0.3928
  161MOL    C9448414   2.777   6.743   5.354 -0.3413 -0.6987  0.4637
  161MOL    C9548415   2.892   6.977   5.418 -0.0861 -0.3177  0.4450
  161MOL    O9648416   2.839   6.977   5.529  0.3841 -0.4270 -0.7952
  161MOL    O9748417   2.977   7.074   5.381  0.0515  0.0267  0.1186
  161MOL    C9848418   3.011   7.192   5.461  0.2363  0.2928  0.6838
  161MOL    H9948419   3.005   6.777   5.164  0.7850  1.2810 -0.4288
  161MOL   H10048420   3.072   6.904   5.243 -0.1202  0.2383 -0.9297
  161MOL   H10148421   2.820   6.685   5.435  0.6038 -0.1610  0.3535
  161MOL   H10248422   2.679   6.766   5.397 -1.5524 -2.7946 -1.1072
  161MOL   H10348423   2.766   6.668   5.276  1.2523  1.1740 -1.6307
  161MOL   H10448424   2.927   7.259   5.482 -1.6760 -1.4799 -1.0703
  161MOL   H10548425   3.090   7.246   5.408  1.1257 -0.0221  1.6914
  161MOL   H10648426   3.037   7.163   5.562 -1.3810  0.1863  1.0868
  161MOL   C10748427   2.809   6.932   5.178 -0.3141  0.4076 -0.1080
  161MOL   C10848428   2.683   7.025   5.175  0.1034  0.7698 -0.2906
  161MOL   C10948429   2.568   6.971   5.266  0.6767  0.1860 -0.1289
  161MOL   C11048430   2.716   7.168   5.223 -0.2513 -0.2538  0.2472
  161MOL   O11148431   2.656   7.224   5.317 -0.0470  0.6022  0.1154
  161MOL   O11248432   2.809   7.229   5.145 -0.1524 -0.1838  0.0842
  161MOL   C11348433   2.842   7.363   5.188 -0.2162 -0.2159  0.0253
  161MOL   H11448434   2.785   6.847   5.114 -1.5696 -0.1730  1.1010
  161MOL   H11548435   2.889   6.994   5.137  1.8260 -0.8347  2.0128
  161MOL   H11648436   2.479   7.034   5.261  0.8774  0.4562 -0.3159
  161MOL   H11748437   2.543   6.868   5.241  0.8218  0.1767 -0.2386
  161MOL   H11848438   2.603   6.971   5.370 -1.8790 -0.7871  0.7635
  161MOL   H11948439   2.927   7.418   5.148 -0.7373 -0.5971 -1.6347
  161MOL   H12048440   2.854   7.371   5.296  4.7693  0.5111 -0.5026
  161MOL   H12148441   2.750   7.415   5.158 -1.2806 -1.6967  0.6426
  161MOL   C12248442   2.633   7.027   5.024  0.7354  0.0030  0.2863
  161MOL   C12348443   2.486   7.073   4.967  0.3715  0.0577  0.4170
  161MOL   C12448444   2.361   6.984   5.010  0.6331  0.0992  0.1979
  161MOL   C12548445   2.455   7.222   4.999  0.0733  0.6036  0.0123
  161MOL   O12648446   2.505   7.310   4.927 -0.1886 -0.0468  0.0380
  161MOL   O12748447   2.383   7.249   5.111 -0.1360  0.6838 -0.6008
  161MOL   C12848448   2.366   7.380   5.158  0.9262  0.3795 -0.3312
  161MOL   H12948449   2.627   6.922   4.995  0.9468 -0.3674  1.5678
  161MOL   H13048450   2.708   7.075   4.961  1.2428  1.6508  2.0933
  161MOL   H13148451   2.352   6.953   5.114 -1.2331  1.2329  0.3794
  161MOL   H13248452   2.280   7.056   5.000 -0.1012 -0.1496  3.7860
  161MOL   H13348453   2.348   6.899   4.942  0.5676 -1.4789  2.1217
  161MOL   H13448454   2.271   7.375   5.210 -0.3002 -2.5269 -2.6992
  161MOL   H13548455   2.358   7.461   5.085 -1.0998  1.3523  0.9346
  161MOL   H13648456   2.449   7.406   5.224  0.1589 -2.8851  2.0343
  161MOL   C13748457   2.506   7.053   4.803  0.7930  0.8089 -0.0691
  161MOL   C13848458   2.412   7.096   4.683  0.7517 -0.1879  0.0758
  161MOL   C13948459   2.439   6.984   4.573 -0.0684 -0.6355 -0.3415
  161MOL   C14048460   2.269   7.088   4.736 -0.1634  0.6266  0.8943
  161MOL   O14148461   2.199   6.988   4.707  0.6288  0.6753 -0.1184
  161MOL   O14248462   2.232   7.195   4.807 -0.0794  0.0275 -0.6440
  161MOL   C14348463   2.099   7.212   4.865  0.4661  0.7364 -0.3559
  161MOL   H14448464   2.540   6.950   4.788 -1.8332 -0.0463 -0.4015
  161MOL   H14548465   2.598   7.102   4.771  0.3190  0.9660 -1.1977
  161MOL   H14648466   2.541   7.004   4.540  0.5232  0.7746  2.1723
  161MOL   H14748467   2.436   6.882   4.611  0.5468 -0.4104  0.3190
  161MOL   H14848468   2.361   6.978   4.497 -0.3467  1.4561 -0.2517
  161MOL   H14948469   2.084   7.319   4.881 -0.2768  0.2390  2.6254
  161MOL   H15048470   2.097   7.155   4.958 -1.3021 -0.0566 -0.8641
  161MOL   H15148471   2.013   7.178   4.809 -0.4099  2.0677  0.1660
  161MOL   C15248472   2.445   7.239   4.614 -0.2355 -0.2335  0.3249
  161MOL   C15348473   2.383   7.287   4.481 -0.7639 -0.0616 -0.3664
  161MOL   C15448474   2.234   7.250   4.477  0.2268  0.5103  0.2733
  161MOL   C15548475   2.392   7.440   4.479 -0.7576 -0.1500 -0.2676
  161MOL   O15648476   2.297   7.517   4.489  0.4636  1.1204  0.1624
  161MOL   O15748477   2.518   7.483   4.480  0.7965 -0.1358  0.0564
  161MOL   C15848478   2.531   7.625   4.497  0.6891  0.0193 -0.6330
  161MOL   H15948479   2.554   7.243   4.612 -0.1730 -1.0414  1.4176
  161MOL   H16048480   2.422   7.313   4.691  0.2123  0.2943 -0.0475
  161MOL   H16148481   2.206   7.145   4.475  0.4980  0.4716 -1.7746
  161MOL   H16248482   2.193   7.296   4.567  3.2191 -1.4486  2.7862
  161MOL   H16348483   2.182   7.294   4.393  2.1588 -0.3242 -1.4080
  161MOL   H16448484   2.471   7.683   4.427  0.4888  0.6973  0.0937
  161MOL   H16548485   2.634   7.654   4.481  0.9118  0.1515  0.9245
  161MOL   H16648486   2.507   7.641   4.602 -0.1547 -0.3973 -0.7544
  161MOL   C16748487   2.454   7.221   4.357  0.3361 -0.3825 -0.0305
  161MOL   C16848488   2.436   7.256   4.203  0.8626 -0.3735 -0.9436
  161MOL   C16948489   2.511   7.145   4.127 -0.6755  0.4789  0.5788
  161MOL   C17048490   2.287   7.240   4.165 -0.6220  0.4780  0.2355
  161MOL   O17148491   2.217   7.325   4.116  0.1204  0.2961 -0.3648
  161MOL   O17248492   2.246   7.109   4.182 -0.1174  0.1744 -0.5246
  161MOL   C17348493   2.113   7.066   4.162 -0.2670 -0.9556 -0.3819
  161MOL   H17448494   2.436   7.114   4.362 -3.6160  0.1621 -0.6669
  161MOL   H17548495   2.559   7.244   4.373  0.5982 -1.0284 -0.7682
  161MOL   H17648496   2.482   7.048   4.167 -1.9327  0.1578 -1.0799
  161MOL   H17748497   2.489   7.132   4.021  0.0442  3.0493  0.0890
  161MOL   H17848498   2.618   7.153   4.147 -0.5402  3.9996 -1.2193
  161MOL   H17948499   2.103   6.959   4.142 -3.8988 -0.5187 -1.2880
  161MOL   H18048500   2.050   7.108   4.084  0.1235  0.7265  0.1989
  161MOL   H18148501   2.064   7.086   4.257 -2.1036 -0.3430 -1.4320
  161MOL   C18248502   2.503   7.395   4.171 -0.3099  0.5724  0.8222
  161MOL   C18348503   2.473   7.487   4.044  0.0756 -0.1302 -0.1111
  161MOL   C18448504   2.489   7.385   3.923 -0.0914  0.6452 -0.5241
  161MOL   C18548505   2.347   7.566   4.049  0.3399 -0.2723 -0.1440
  161MOL   O18648506   2.269   7.568   3.955 -0.2482  0.6177 -0.4135
  161MOL   O18748507   2.328   7.619   4.174 -0.1479 -0.6086  0.8400
  161MOL   C18848508   2.203   7.686   4.197  0.5041 -0.1112 -0.7363
  161MOL   H18948509   2.609   7.374   4.178 -0.2645  0.0450 -1.2448
  161MOL   H19048510   2.486   7.465   4.253 -1.1360  1.2939  0.0474
  161MOL   H19148511   2.409   7.312   3.920 -1.2130  1.7121  1.5413
  161MOL   H19248512   2.496   7.438   3.828  1.1934 -0.2978 -0.9683
  161MOL   H19348513   2.582   7.330   3.937 -0.4136 -0.1853 -1.6007
  161MOL   H19448514   2.196   7.781   4.144 -0.8735  0.1046 -0.1967
  161MOL   H19548515   2.199   7.710   4.303  1.9265 -2.7636 -0.0310
  161MOL   H19648516   2.123   7.615   4.175 -0.3644  1.3241 -2.3642
  161MOL   C19748517   2.596   7.591   4.051 -0.1644  0.7549  0.4046
  161MOL   C19848518   2.614   7.715   3.953  0.1257  0.2573  0.1058
  161MOL   C19948519   2.568   7.679   3.814 -0.1283  0.5271  0.1956
  161MOL   C20048520   2.528   7.834   4.003  0.5941  0.4065  0.8817
  161MOL   O20148521   2.436   0.001   3.941  0.0805  0.5693 -0.1208
  161MOL   O20248522   2.574   0.014   4.113  0.1510 -0.6377  0.1658
  161MOL   C20348523   2.504   0.121   4.171  0.0973  0.5733 -0.3079
  161MOL   H20448524   2.686   7.533   4.031  0.3046  0.1945  3.8451
  161MOL   H20548525   2.601   7.623   4.156  0.5937 -1.6019  1.1182
  161MOL   H20648526   2.633   7.598   3.782  1.1807  1.7706 -0.3172
  161MOL   H20748527   2.461   7.658   3.803 -0.1849  0.4568  0.9224
  161MOL   H20848528   2.567   7.767   3.749 -2.5789 -0.3169 -0.9871
  161MOL   H20948529   2.536   0.141   4.274  1.1773 -0.2181 -0.4761
  161MOL   H21048530   2.396   0.107   4.167  0.2474 -0.7093 -0.2218
  161MOL   H21148531   2.510   0.211   4.110 -3.4416  0.7988 -0.4177
  161MOL   C21248532   2.765   7.748   3.947  0.0454  0.1968 -0.7520
  161MOL   C21348533   2.832   7.855   3.857  0.1818  0.1087  0.0303
  161MOL   C21448534   2.982   7.863   3.912  0.4263  0.4492  0.2957
  161MOL   C21548535   2.843   7.803   3.713  0.5915 -0.0665 -0.1828
  161MOL   O21648536   2.765   7.837   3.627 -0.2052 -0.3480  0.1456
  161MOL   O21748537   2.937   7.703   3.694 -0.1226 -0.6487  0.6894
  161MOL   C21848538   2.956   7.657   3.558  0.2748  0.2254  0.1952
  161MOL   H21948539   2.819   7.655   3.929  0.6587  0.2707  0.6696
  161MOL   H22048540   2.791   7.775   4.049 -1.7027  1.5799 -0.6524
  161MOL   H22148541   3.042   0.048   3.846  0.3414  0.8224  0.5711
  161MOL   H22248542   2.989   0.020   4.015  0.1811  1.2051  0.0563
  161MOL   H22348543   3.033   7.767   3.908  0.6630  0.3784  3.5677
  161MOL   H22448544   2.871   7.676   3.494 -0.3298  0.2310  0.9907
  161MOL   H22548545   2.999   7.558   3.545  1.2866  0.8720 -1.4792
  161MOL   H22648546   3.031   7.730   3.528  0.1235  1.1552  1.9790
  161MOL   C22748547   2.763   0.117   3.872 -0.4764  0.0880 -0.4277
  161MOL   C22848548   2.829   0.261   3.827  0.2050  0.4039  0.4265
  161MOL   C22948549   2.710   0.352   3.811 -0.4352 -0.7478 -0.0233
  161MOL   C23048550   2.912   0.306   3.946 -0.7200 -0.4827  0.0779
  161MOL   O23148551   2.856   0.344   4.049  0.0350  0.2474  0.2551
  161MOL   O23248552   3.039   0.294   3.937  0.4069 -0.1595  0.2970
  161MOL   C23348553   3.124   0.338   4.048 -0.0877 -0.1077 -0.6969
  161MOL   H23448554   2.741   0.122   3.979  0.2964  0.2644 -0.2704
  161MOL   H23548555   2.669   0.100   3.820  0.8267 -1.7304 -2.2503
  161MOL   H23648556   2.639   0.316   3.738 -1.4736 -1.8891  1.5114
  161MOL   H23748557   2.661   0.343   3.908 -0.0887 -2.2576  0.0323
  161MOL   H23848558   2.727   0.458   3.793 -0.3396 -1.1320 -2.3170
  161MOL   H23948559   3.122   0.444   4.071  0.9170  0.0545 -1.3483
  161MOL   H24048560   3.226   0.322   4.014 -0.7804 -2.0482 -1.9594
  161MOL   H24148561   3.114   0.278   4.139 -0.3363  2.6190  1.1185
  161MOL   C24248562   2.914   0.250   3.687 -0.8732  0.3654 -0.1038
  161MOL   C24348563   2.953   0.376   3.591 -0.9899 -0.4882 -0.2645
  161MOL   C24448564   3.077   0.327   3.503  0.2021  0.3888 -0.8652
  161MOL   C24548565   2.835   0.399   3.503 -1.0294 -0.7654  0.0103
  161MOL   O24648566   2.752   0.481   3.524  0.3927 -0.0470  0.4525
  161MOL   O24748567   2.824   0.300   3.410 -0.0050  0.3787  0.0756
  161MOL   C24848568   2.723   0.291   3.314 -0.0388 -0.5015 -0.1052
  161MOL   H24948569   2.868   0.173   3.627  1.0170 -1.5607  0.8548
  161MOL   H25048570   3.011   0.205   3.709 -0.7255  0.4876 -0.5094
  161MOL   H25148571   3.081   0.385   3.411  1.1612 -0.9371 -1.6610
  161MOL   H25248572   3.173   0.331   3.555 -0.1056  2.4880 -0.4035
  161MOL   H25348573   3.062   0.224   3.473 -1.9952 -0.0283  1.4440
  161MOL   H25448574   2.634   0.254   3.365 -1.0454  1.5236 -0.3561
  161MOL   H25548575   2.762   0.209   3.253  1.5578  0.2349 -0.0855
  161MOL   H25648576   2.713   0.381   3.254  0.8294 -2.1817 -2.8539
  161MOL   C25748577   3.000   0.494   3.682 -0.2408  0.4576 -0.0317
  161MOL   C25848578   3.046   0.635   3.635 -0.8536  0.6023 -0.0507
  161MOL   C25948579   3.066   0.719   3.761  0.3128 -0.0514  0.5617
  161MOL   C26048580   3.190   0.619   3.571  0.1192  0.6584  0.0091
  161MOL   O26148581   3.292   0.644   3.634 -0.1121  0.8565  0.8463
  161MOL   O26248582   3.185   0.575   3.445 -0.2770  0.4506  0.0528
  161MOL   C26348583   3.308   0.532   3.388  0.7645 -0.0634 -0.4411
  161MOL   H26448584   3.075   0.466   3.756 -0.6710 -0.0760  0.2109
  161MOL   H26548585   2.922   0.521   3.754  0.5593  1.5216  0.4420
  161MOL   H26648586   2.972   0.744   3.808 -0.2466  1.0500 -1.1144
  161MOL   H26748587   3.124   0.668   3.838  0.3810 -4.2905 -2.1175
  161MOL   H26848588   3.127   0.808   3.745  0.3994  0.1374  1.8627
  161MOL   H26948589   3.363   0.490   3.472  1.5862 -0.5992 -1.2369
  161MOL   H27048590   3.360   0.615   3.339 -0.9499  1.1196 -0.2819
  161MOL   H27148591   3.283   0.448   3.324  0.0089 -0.2916  0.1527
  161MOL   C27248592   2.948   0.712   3.534 -0.1006 -0.4656  1.0540
  161MOL   C27348593   2.956   0.870   3.500  0.3944 -0.1307  0.3914
  161MOL   C27448594   2.873   0.939   3.613  0.3230  0.3366  0.4455
  161MOL   C27548595   3.103   0.923   3.503 -0.3454  0.4179  0.1858
  161MOL   O27648596   3.135   1.019   3.580  0.3543 -0.4204  0.0039
  161MOL   O27748597   3.182   0.871   3.408  0.0064  0.1032 -0.5356
  161MOL   C27848598   3.314   0.928   3.393  0.1844 -0.1092 -0.2772
  161MOL   H27948599   2.845   0.704   3.568 -1.5946 -0.6612 -3.2696
  161MOL   H28048600   2.937   0.646   3.448  0.1515 -0.3765  0.9539
  161MOL   H28148601   2.765   0.920   3.609  0.5881 -1.2237  0.5860
  161MOL   H28248602   2.901   0.908   3.714 -1.4718 -0.9637  0.5629
  161MOL   H28348603   2.882   1.048   3.610 -2.6946  0.5948 -1.7385
  161MOL   H28448604   3.358   0.941   3.492 -1.5238 -0.1579  0.4978
  161MOL   H28548605   3.292   1.026   3.352 -1.4144  0.8478  2.7706
  161MOL   H28648606   3.376   0.864   3.330 -0.2104 -2.2379  1.4250
  161MOL   C28748607   2.895   0.893   3.363 -0.1050 -0.0247 -0.1746
  161MOL   C28848608   2.904   1.029   3.293  0.1900 -0.2977  0.5963
  161MOL   C28948609   2.847   1.021   3.152 -0.0632 -0.1678 -0.8311
  161MOL   C29048610   2.854   1.152   3.366 -0.7517  0.3025 -0.3798
  161MOL   O29148611   2.933   1.236   3.407 -0.3806  0.3230 -0.3985
  161MOL   O29248612   2.718   1.158   3.366 -0.4132  0.0935  0.1018
  161MOL   C29348613   2.663   1.282   3.401 -0.1969 -0.8122 -0.4840
  161MOL   H29448614   2.795   0.853   3.379  0.1456  0.3291  2.4557
  161MOL   H29548615   2.936   0.818   3.296 -1.2421 -0.4660 -0.3935
  161MOL   H29648616   2.844   1.125   3.118 -1.7077  0.1900  0.3680
  161MOL   H29748617   2.902   0.954   3.085  1.4371 -0.4516  0.6495
  161MOL   H29848618   2.744   0.985   3.157 -0.5975  1.2720 -1.0968
  161MOL   H29948619   2.554   1.281   3.393 -0.2882 -0.1058  0.4701
  161MOL   H30048620   2.717   1.354   3.340 -1.6005 -1.3874 -2.4267
  161MOL   H30148621   2.681   1.304   3.507 -1.5454 -1.3033 -0.1409
  161MOL   H30248622   3.012   1.035   3.277 -0.2670  1.8196 -2.1436
  162MOL     C148623   6.637   5.814   0.192  0.1321  0.1279 -0.1346
  162MOL     C248624   6.634   5.755   0.333 -0.0527  0.6776  0.0225
  162MOL     C348625   6.611   5.872   0.417  0.0708  0.4938 -0.3412
  162MOL     C448626   6.524   5.652   0.353  0.1177 -0.1325  0.1125
  162MOL     O548627   6.461   5.640   0.460  0.1748 -0.3844  0.1063
  162MOL     O648628   6.501   5.576   0.253 -0.1544 -0.2379 -0.3240
  162MOL     C748629   6.406   5.471   0.261  0.3438  0.6428 -0.2242
  162MOL     H848630   6.726   5.875   0.178  1.6549 -1.7388  1.1284
  162MOL     H948631   6.647   5.734   0.119 -2.2057 -1.0474  0.7733
  162MOL    H1048632   6.636   5.851   0.521 -2.1113 -1.4807 -0.1885
  162MOL    H1148633   6.681   5.956   0.409  1.3158 -0.0977  3.2064
  162MOL    H1248634   6.509   5.909   0.413  0.6830  2.5706  1.9053
  162MOL    H1348635   6.446   5.389   0.202  0.6584  1.9294 -1.8368
  162MOL    H1448636   6.320   5.509   0.206  0.5301 -0.3784 -1.2353
  162MOL    H1548637   6.367   5.427   0.353 -1.4775 -3.0144 -2.6193
  162MOL    H1648638   6.545   5.865   0.162 -0.2794  0.6648  1.9556
  162MOL    C1748639   6.778   5.695   0.379 -0.6525  0.0991 -0.3967
  162MOL    C1848640   6.868   5.587   0.311 -0.3484 -0.1191  0.2243
  162MOL    C1948641   6.801   5.448   0.321 -0.2804 -1.0884  0.3044
  162MOL    C2048642   6.887   5.620   0.163  0.3063 -0.4078 -0.3477
  162MOL    O2148643   6.866   5.537   0.077 -0.0038 -0.8006 -0.0138
  162MOL    O2248644   6.940   5.739   0.147 -0.2809  0.1540  0.1128
  162MOL    C2348645   6.949   5.783   0.009  0.2701  0.3302 -0.0412
  162MOL    H2448646   6.748   5.645   0.471 -0.1665  0.4890 -0.0264
  162MOL    H2548647   6.844   5.779   0.397 -0.0680 -0.3955 -0.1990
  162MOL    H2648648   6.866   5.368   0.285  0.1429 -0.5029 -0.2460
  162MOL    H2748649   6.780   5.423   0.425  0.2900 -1.1944  0.3951
  162MOL    H2848650   6.711   5.440   0.261  1.5296  0.1366 -2.6566
  162MOL    H2948651   7.044   5.835   7.877 -1.2443  3.2760  0.5216
  162MOL    H3048652   6.875   5.857   7.856  0.6420  0.4361 -0.7057
  162MOL    H3148653   6.963   5.700   7.816  5.1304  0.8967  0.0791
  162MOL    C3248654   7.002   5.588   0.391 -0.7068 -0.2937 -0.1646
  162MOL    C3348655   7.130   5.496   0.363  0.3761  0.1358  0.4886
  162MOL    C3448656   7.157   5.482   0.209 -0.7133  0.3893 -0.3716
  162MOL    C3548657   7.255   5.569   0.425 -0.3524  0.3932 -0.2057
  162MOL    O3648658   7.244   5.607   0.541 -0.5095  0.5011  0.1992
  162MOL    O3748659   7.370   5.555   0.345  0.7083  0.5165  0.0196
  162MOL    C3848660   7.483   5.627   0.386 -0.6677 -0.6787  0.6654
  162MOL    H3948661   6.977   5.572   0.496 -1.2466  0.8994 -0.0955
  162MOL    H4048662   7.032   5.693   0.391 -1.4275 -0.0773  0.7227
  162MOL    H4148663   7.235   5.409   0.190 -0.8586  0.3639 -0.8730
  162MOL    H4248664   7.073   5.440   0.155 -0.8613 -2.4067  1.8992
  162MOL    H4348665   7.184   5.574   0.157 -0.8414  0.4045 -0.4100
  162MOL    H4448666   7.567   5.617   0.316 -0.6069 -4.5705  1.2170
  162MOL    H4548667   7.521   5.611   0.487  2.1319 -0.6773 -0.3320
  162MOL    H4648668   7.463   5.734   0.387  0.9658 -0.3569  0.9561
  162MOL    C4748669   7.110   5.359   0.441 -0.7001 -0.3867 -0.2982
  162MOL    C4848670   7.176   5.221   0.403  0.0187  0.1476 -0.4492
  162MOL    C4948671   7.140   5.166   0.259 -0.1292 -0.0583  0.2460
  162MOL    C5048672   7.331   5.233   0.414  0.0918 -0.4212  0.0137
  162MOL    O5148673   7.407   5.173   0.335  0.1733 -0.0567  0.5275
  162MOL    O5248674   7.379   5.303   0.528 -0.4932  0.2127 -0.2652
  162MOL    C5348675   7.511   5.324   0.551 -0.2996  0.0314 -0.2973
  162MOL    H5448676   7.003   5.342   0.451 -1.2106  2.8189  0.2111
  162MOL    H5548677   7.118   5.381   0.548  1.3444 -0.5250 -0.3926
  162MOL    H5648678   7.038   5.128   0.260 -0.2196  0.1994  1.6262
  162MOL    H5748679   7.134   5.231   0.171 -0.2178 -1.1010 -0.5298
  162MOL    H5848680   7.194   5.075   0.234  1.0928  0.7205  0.0291
  162MOL    H5948681   7.537   5.368   0.647 -3.1609  0.5991  0.2729
  162MOL    H6048682   7.567   5.380   0.476  0.3946  0.0643  0.2459
  162MOL    H6148683   7.562   5.228   0.545  0.0908  0.2564 -0.6209
  162MOL    C6248684   7.123   5.118   0.517  0.2508  0.0100  0.0733
  162MOL    C6348685   7.180   4.980   0.561  0.2257  0.1480  0.3445
  162MOL    C6448686   7.224   4.900   0.433 -0.6036 -0.1046 -0.1311
  162MOL    C6548687   7.304   5.006   0.661 -0.1160  0.1322  0.1887
  162MOL    O6648688   7.416   4.970   0.628  0.4106  0.2688  0.3723
  162MOL    O6748689   7.280   5.083   0.757  0.0499 -0.2426  0.0521
  162MOL    C6848690   7.390   5.131   0.828 -0.0739  0.3823 -1.4584
  162MOL    H6948691   7.031   5.083   0.470  0.0824  1.0135 -0.3561
  162MOL    H7048692   7.096   5.174   0.606  1.3946  0.7497 -0.0277
  162MOL    H7148693   7.306   4.958   0.391 -0.1375 -1.8020 -1.6599
  162MOL    H7248694   7.246   4.794   0.450  1.7584 -0.0138 -2.2532
  162MOL    H7348695   7.144   4.899   0.360  0.0632 -2.7041 -0.8858
  162MOL    H7448696   7.440   5.055   0.888  1.5330  1.1346 -1.8065
  162MOL    H7548697   7.358   5.213   0.892  0.8331 -1.4864  1.5025
  162MOL    H7648698   7.458   5.181   0.759  0.8536  0.4775 -0.4894
  162MOL    C7748699   7.063   4.903   0.640 -0.3169  0.2807  0.1880
  162MOL    C7848700   7.061   4.750   0.681  0.4179  0.5876 -0.2501
  162MOL    C7948701   7.198   4.707   0.731 -0.4821  0.2354 -0.2662
  162MOL    C8048702   6.962   4.728   0.798  0.1960  0.2333 -0.2822
  162MOL    O8148703   6.846   4.769   0.787  0.3267 -0.4938 -1.1021
  162MOL    O8248704   7.013   4.663   0.905 -0.0437  0.5866  0.1666
  162MOL    C8348705   6.919   4.631   1.001  0.9244 -0.1087 -0.4443
  162MOL    H8448706   6.968   4.928   0.592 -1.0173 -2.2719  0.1556
  162MOL    H8548707   7.061   4.964   0.730  1.2489  1.7149 -0.7204
  162MOL    H8648708   7.202   4.604   0.768 -1.4542 -0.1797 -1.2724
  162MOL    H8748709   7.272   4.717   0.652  1.1244  0.3771  1.2325
  162MOL    H8848710   7.225   4.768   0.817 -2.3101  2.0271 -0.9135
  162MOL    H8948711   6.903   4.720   1.062  0.4463 -0.2081 -0.4248
  162MOL    H9048712   6.958   4.550   1.063  1.3138 -1.6971 -2.7281
  162MOL    H9148713   6.826   4.589   0.964  1.1381  0.1726 -1.3086
  162MOL    C9248714   7.013   4.664   0.562  0.1201 -0.3116 -0.2084
  162MOL    C9348715   7.012   4.505   0.538 -0.3587 -0.7940  0.0858
  162MOL    C9448716   7.154   4.454   0.525 -0.1966 -0.3708  0.0636
  162MOL    C9548717   6.944   4.425   0.655  0.0776  0.3280  0.2611
  162MOL    O9648718   7.011   4.375   0.745 -0.5630 -0.0630  0.3037
  162MOL    O9748719   6.809   4.427   0.652  0.0669 -0.2378 -0.3055
  162MOL    C9848720   6.739   4.355   0.752 -0.0680  0.5358 -0.2865
  162MOL    H9948721   7.062   4.710   0.476 -2.5351 -0.0238 -1.6089
  162MOL   H10048722   6.911   4.697   0.544  0.6219  1.9341  0.8755
  162MOL   H10148723   7.210   4.495   0.442 -1.1860 -1.3804 -1.1337
  162MOL   H10248724   7.209   4.489   0.612  1.1840 -0.2148 -0.8553
  162MOL   H10348725   7.165   4.345   0.522  3.8831 -0.0099 -0.5951
  162MOL   H10448726   6.782   4.258   0.779  0.8344  1.2909  1.0765
  162MOL   H10548727   6.636   4.346   0.718 -0.4380  0.8841  0.7241
  162MOL   H10648728   6.746   4.410   0.846  1.2680 -0.1134  0.0119
  162MOL   C10748729   6.939   4.477   0.400 -0.3165 -0.8343 -0.2802
  162MOL   C10848730   6.949   4.345   0.313  0.0522  0.7990 -0.0563
  162MOL   C10948731   7.071   4.354   0.222 -0.3795 -0.0552  0.5999
  162MOL   C11048732   6.956   4.219   0.406 -0.8388  0.1062 -0.2802
  162MOL   O11148733   6.863   4.194   0.487 -0.3597 -0.1122  0.2491
  162MOL   O11248734   7.071   4.146   0.395  0.0476  0.4805  0.1655
  162MOL   C11348735   7.089   4.035   0.489  0.2962 -0.5298  0.0123
  162MOL   H11448736   6.974   4.564   0.344 -0.5590  0.9063  2.1628
  162MOL   H11548737   6.834   4.496   0.422  0.2296  0.4545  1.4595
  162MOL   H11648738   7.166   4.375   0.272 -0.9410  0.2194  1.5571
  162MOL   H11748739   7.110   4.259   0.185  1.7487  0.7309  0.7558
  162MOL   H11848740   7.062   4.415   0.132  0.5890 -1.9355 -0.8070
  162MOL   H11948741   7.066   4.072   0.589  1.0897  0.4680 -0.1676
  162MOL   H12048742   7.192   3.999   0.492  0.5248  0.1584  0.9028
  162MOL   H12148743   7.028   3.956   0.445 -2.4346  2.0944 -1.1323
  162MOL   C12248744   6.817   4.347   0.227  0.3621 -0.2492 -0.5002
  162MOL   C12348745   6.769   4.246   0.116 -0.1766 -0.1866  0.8031
  162MOL   C12448746   6.848   4.290   7.865  0.1855  0.2239 -0.0849
  162MOL   C12548747   6.803   4.101   0.150 -0.4963 -0.8845  0.9973
  162MOL   O12648748   6.877   4.036   0.072 -1.0343 -0.0038  0.1178
  162MOL   O12748749   6.746   4.046   0.264 -0.6771  0.4465  0.4238
  162MOL   C12848750   6.780   3.913   0.285 -0.3366 -0.2112  0.0300
  162MOL   H12948751   6.807   4.452   0.201 -0.3035 -0.2228 -0.1489
  162MOL   H13048752   6.734   4.340   0.298 -2.3676  2.2657 -3.2629
  162MOL   H13148753   6.812   4.388   7.834 -1.6094  0.2433  1.9448
  162MOL   H13248754   6.956   4.281   7.871  0.1937  1.3220  1.6143
  162MOL   H13348755   6.814   4.231   7.779  1.1833 -1.4124  0.6132
  162MOL   H13448756   6.728   3.879   0.375 -1.4662  2.0254  0.2741
  162MOL   H13548757   6.887   3.898   0.302 -0.3169  1.2046  1.2933
  162MOL   H13648758   6.762   3.858   0.193  4.2935 -2.6702  0.4611
  162MOL   C13748759   6.612   4.265   0.107  0.8864  0.2992 -0.5763
  162MOL   C13848760   6.512   4.207   0.001  0.2524  0.2536 -0.2584
  162MOL   C13948761   6.565   4.218   7.733 -0.3979 -0.0044  0.3945
  162MOL   C14048762   6.481   4.055   0.019  0.0462 -0.2135 -0.3799
  162MOL   O14148763   6.529   3.981   0.103 -0.4120  0.4011  0.1787
  162MOL   O14248764   6.374   4.016   7.813  0.2054  0.0680 -0.0707
  162MOL   C14348765   6.301   3.893   7.841  1.1722 -0.7042 -0.8771
  162MOL   H14448766   6.596   4.373   0.097  0.1351  0.6102  3.2664
  162MOL   H14548767   6.565   4.232   0.199  0.1281  4.1871  0.5371
  162MOL   H14648768   6.634   4.138   7.706 -0.6026  0.4514 -1.5088
  162MOL   H14748769   6.486   4.210   7.658 -0.0781  0.4711  0.0043
  162MOL   H14848770   6.614   4.314   7.717 -0.4743  0.1465  1.0583
  162MOL   H14948771   6.374   3.812   7.830  0.7733 -1.2680  0.4273
  162MOL   H15048772   6.227   3.867   7.766 -1.2635 -1.4478  1.6997
  162MOL   H15148773   6.252   3.894   0.061  1.2368  0.0653 -0.8557
  162MOL   C15248774   6.377   4.293   0.006 -0.1789  0.1337  0.5445
  162MOL   C15348775   6.278   4.311   0.141 -0.9222  0.4451 -0.5815
  162MOL   C15448776   6.337   4.436   0.230 -0.0724  0.3884  0.1282
  162MOL   C15548777   6.142   4.341   0.093  0.0340  0.1127 -0.1302
  162MOL   O15648778   6.086   4.448   0.109 -0.2555  0.8444  0.5284
  162MOL   O15748779   6.087   4.241   0.031  0.3056 -0.0344 -0.4351
  162MOL   C15848780   5.954   4.240   7.873  0.1704 -0.2434  0.1802
  162MOL   H15948781   6.322   4.256   7.797 -3.4140 -0.8091  2.8838
  162MOL   H16048782   6.410   4.392   7.853  1.7081 -0.9290 -0.9951
  162MOL   H16148783   6.427   4.416   0.288 -2.2619 -1.0203  3.1655
  162MOL   H16248784   6.372   4.514   0.163  0.1685 -1.2606 -1.7248
  162MOL   H16348785   6.261   4.470   0.300  0.2202  1.1161  0.0948
  162MOL   H16448786   5.912   4.340   7.867  1.5374  0.4450  1.6697
  162MOL   H16548787   5.899   4.173   0.062 -0.5487  1.4526  1.3194
  162MOL   H16648788   5.950   4.194   7.775 -1.1104  1.8507 -0.7919
  162MOL   C16748789   6.276   4.181   0.238 -0.3451 -0.5650 -0.6602
  162MOL   C16848790   6.198   4.159   0.379 -0.1946  0.2617  0.3336
  162MOL   C16948791   6.180   4.287   0.472 -0.7661 -0.2888  0.0586
  162MOL   C17048792   6.063   4.117   0.337 -0.2443  0.0626  0.0571
  162MOL   O17148793   5.968   4.195   0.333 -0.3944 -0.0236 -0.1761
  162MOL   O17248794   6.062   3.988   0.293  0.3038  0.2908  1.1973
  162MOL   C17348795   5.947   3.922   0.238 -0.1735 -0.4846  0.4172
  162MOL   H17448796   6.380   4.165   0.263 -0.0286  0.6370 -1.1702
  162MOL   H17548797   6.247   4.106   0.164  0.4988  1.8339 -3.5355
  162MOL   H17648798   6.270   4.338   0.506  0.3663  0.3108 -3.6133
  162MOL   H17748799   6.120   4.366   0.426  0.3268  0.2978 -0.3654
  162MOL   H17848800   6.121   4.263   0.560  2.1593 -0.8885  1.9107
  162MOL   H17948801   5.959   3.821   0.198 -1.7211 -0.1363 -0.9829
  162MOL   H18048802   5.902   3.987   0.163 -1.4944 -0.1574  1.4731
  162MOL   H18148803   5.875   3.930   0.319 -0.8673 -1.9326 -0.0448
  162MOL   C18248804   6.263   4.036   0.466 -0.2416  0.4900  0.5759
  162MOL   C18348805   6.397   4.043   0.552 -0.3598  0.1558  0.2022
  162MOL   C18448806   6.498   4.141   0.479 -0.8281 -0.2727  0.0077
  162MOL   C18548807   6.393   4.108   0.687  0.2092 -0.3084 -0.2880
  162MOL   O18648808   6.289   4.161   0.727 -0.6831  0.3276  0.4960
  162MOL   O18748809   6.517   4.104   0.757 -0.4632 -0.5956 -0.0741
  162MOL   C18848810   6.531   4.163   0.887  0.9223 -0.5588  0.0593
  162MOL   H18948811   6.283   3.955   0.396  1.1821 -1.6048  3.2979
  162MOL   H19048812   6.184   4.000   0.533 -1.3436 -0.4302 -1.1877
  162MOL   H19148813   6.467   4.246   0.481  0.0617 -0.0185  1.6133
  162MOL   H19248814   6.598   4.128   0.521 -1.5545 -0.6447  1.6869
  162MOL   H19348815   6.519   4.107   0.378 -0.6479 -0.2798  0.0465
  162MOL   H19448816   6.481   4.260   0.886  0.9467 -0.5473 -1.2778
  162MOL   H19548817   6.629   4.178   0.932  1.0206 -0.1446 -0.2963
  162MOL   H19648818   6.474   4.110   0.963  0.2246  1.6345  1.1005
  162MOL   C19748819   6.467   3.894   0.555 -0.7697  0.2711  0.3895
  162MOL   C19848820   6.398   3.764   0.615  0.1757 -0.1557  0.3797
  162MOL   C19948821   6.388   3.783   0.770  0.2074 -0.0800  0.7559
  162MOL   C20048822   6.250   3.728   0.554  0.3919 -0.0454  0.3736
  162MOL   O20148823   6.237   3.668   0.443 -0.3017 -0.1083 -0.3550
  162MOL   O20248824   6.149   3.776   0.622  0.5506 -0.0923  0.4580
  162MOL   C20348825   6.013   3.752   0.574  0.4540 -0.3287  0.0457
  162MOL   H20448826   6.558   3.918   0.609 -1.3372  1.2405  0.9313
  162MOL   H20548827   6.490   3.874   0.451  0.9967  0.5852  0.7044
  162MOL   H20648828   6.360   3.885   0.795  0.1744  0.2221 -0.4858
  162MOL   H20748829   6.322   3.713   0.822 -0.2017  0.0964  0.4782
  162MOL   H20848830   6.485   3.775   0.820  1.2172  2.3329 -0.7344
  162MOL   H20948831   6.003   3.651   0.536  0.0995 -0.4965  0.5752
  162MOL   H21048832   5.998   3.829   0.497  0.8782  1.5189  1.7605
  162MOL   H21148833   5.939   3.768   0.652 -1.2267  1.2732 -1.7856
  162MOL   C21248834   6.481   3.633   0.576 -0.8078  0.7773 -0.3329
  162MOL   C21348835   6.611   3.584   0.647 -0.5647 -0.0331 -0.7465
  162MOL   C21448836   6.708   3.694   0.675 -0.2855  0.6158  0.0478
  162MOL   C21548837   6.588   3.522   0.786  0.4734  0.0427  0.0294
  162MOL   O21648838   6.478   3.507   0.839  0.4684 -0.5511  0.3863
  162MOL   O21748839   6.697   3.481   0.844 -0.3377  0.0918  0.0854
  162MOL   C21848840   6.682   3.414   0.970  0.0338  0.4463 -0.4415
  162MOL   H21948841   6.489   3.640   0.468  0.8554 -0.5011 -0.3068
  162MOL   H22048842   6.412   3.551   0.598  0.4461 -0.7309 -1.9274
  162MOL   H22148843   6.805   3.660   0.710 -1.2898 -0.4274  1.9303
  162MOL   H22248844   6.739   3.750   0.587  3.3658  0.3503  1.1235
  162MOL   H22348845   6.665   3.771   0.740 -2.2481 -0.2659 -0.1581
  162MOL   H22448846   6.658   3.491   1.044  3.8381  0.9369  0.3878
  162MOL   H22548847   6.784   3.385   0.996 -0.1893 -0.2781 -0.3613
  162MOL   H22648848   6.611   3.332   0.984  0.4731  0.0077 -0.8037
  162MOL   C22748849   6.690   3.484   0.558 -0.1767  0.4766  1.0485
  162MOL   C22848850   6.609   3.362   0.489  0.6546  0.0128 -0.7976
  162MOL   C22948851   6.537   3.274   0.594  0.4555 -0.3072 -0.8688
  162MOL   C23048852   6.510   3.407   0.375  0.1927 -0.1056  0.0036
  162MOL   O23148853   6.386   3.396   0.383 -0.1872  0.4446 -0.2273
  162MOL   O23248854   6.570   3.484   0.283  0.5074 -0.3450 -0.5147
  162MOL   C23348855   6.508   3.563   0.190 -0.5267 -0.3078 -0.9254
  162MOL   H23448856   6.775   3.449   0.616  1.0159  2.2579  0.4238
  162MOL   H23548857   6.743   3.544   0.484 -0.5944 -0.2013  0.1854
  162MOL   H23648858   6.488   3.189   0.545 -2.9604  0.8845  0.3027
  162MOL   H23748859   6.611   3.242   0.667 -0.8645 -2.1858 -0.3130
  162MOL   H23848860   6.451   3.316   0.645  0.4261  0.6768 -1.7014
  162MOL   H23948861   6.561   3.550   0.096  0.0514 -3.9060 -0.1596
  162MOL   H24048862   6.501   3.670   0.213 -0.4098 -0.5639  0.3660
  162MOL   H24148863   6.409   3.528   0.160 -0.3375 -2.3197  0.6525
  162MOL   C24248864   6.715   3.269   0.415 -0.2052  0.2480 -0.1351
  162MOL   C24348865   6.803   3.152   0.472 -0.1023 -0.4999 -0.4705
  162MOL   C24448866   6.873   3.210   0.601  0.0515  0.1184 -0.8373
  162MOL   C24548867   6.716   3.025   0.505  0.4610 -0.5140  0.2425
  162MOL   O24648868   6.715   2.975   0.620 -0.0541  0.1212  0.5617
  162MOL   O24748869   6.655   2.983   0.399  0.3110  0.2078 -0.0202
  162MOL   C24848870   6.573   2.865   0.406 -0.4530  0.2419  0.7305
  162MOL   H24948871   6.783   3.338   0.365  0.1109  0.0283 -0.0161
  162MOL   H25048872   6.663   3.220   0.333  0.1925 -1.5713  0.6858
  162MOL   H25148873   6.941   3.131   0.635  2.1120  1.4459 -1.7562
  162MOL   H25248874   6.933   3.300   0.590  1.1620 -0.6336 -1.1277
  162MOL   H25348875   6.813   3.228   0.690  0.3914 -2.3376 -0.0604
  162MOL   H25448876   6.498   2.874   0.485 -0.8844 -3.3378  0.7786
  162MOL   H25548877   6.625   2.770   0.403  0.5456  0.8249 -1.7972
  162MOL   H25648878   6.519   2.864   0.311 -0.6167 -0.6790  0.8344
  162MOL   C25748879   6.909   3.113   0.364  0.2119 -0.1953 -0.2987
  162MOL   C25848880   7.022   3.003   0.387  0.6798 -0.5573  0.6541
  162MOL   C25948881   6.994   2.898   0.494 -0.3062  0.1389  0.2008
  162MOL   C26048882   7.034   2.930   0.248 -0.6945  0.3874 -0.1082
  162MOL   O26148883   7.060   2.990   0.146  0.3386 -0.1830  0.0194
  162MOL   O26248884   7.002   2.799   0.248 -0.1431  0.6797  0.1557
  162MOL   C26348885   7.035   2.721   0.137 -0.1362 -0.4197 -0.1083
  162MOL   H26448886   6.956   3.204   0.328  1.7776 -0.7973  0.1792
  162MOL   H26548887   6.849   3.090   0.276  2.0566  0.1081 -1.6868
  162MOL   H26648888   7.081   2.834   0.508  2.4596  3.8691  0.9229
  162MOL   H26748889   6.977   2.937   0.594  0.6671  1.1747 -0.0216
  162MOL   H26848890   6.909   2.835   0.471 -0.5366  0.6758 -0.4339
  162MOL   H26948891   6.956   2.746   0.066 -0.2796  2.5862  1.0279
  162MOL   H27048892   7.014   2.617   0.161 -0.2867 -0.1725  0.8882
  162MOL   H27148893   7.139   2.729   0.105  0.4475 -1.7555  1.3403
  162MOL   C27248894   7.156   3.072   0.428 -0.6544  0.5208 -0.2500
  162MOL   C27348895   7.309   3.030   0.407  0.3576  0.4975  0.2356
  162MOL   C27448896   7.389   3.112   0.518  0.7512 -0.5036  0.0846
  162MOL   C27548897   7.334   2.876   0.429  0.7768 -0.0262 -0.1809
  162MOL   O27648898   7.280   2.786   0.365 -0.5889 -0.2600  0.5566
  162MOL   O27748899   7.442   2.850   0.510  0.7538  0.1869 -0.0808
  162MOL   C27848900   7.503   2.718   0.512  0.3525  0.2505  0.1760
  162MOL   H27948901   7.148   3.090   0.535  0.4164 -0.2865 -0.0250
  162MOL   H28048902   7.152   3.175   0.392 -2.3911  0.2824 -0.7568
  162MOL   H28148903   7.498   3.101   0.516  0.8053 -0.4432  1.8548
  162MOL   H28248904   7.382   3.221   0.514  2.9304 -0.1931  2.9445
  162MOL   H28348905   7.367   3.092   0.623  3.8070  0.3095  0.9540
  162MOL   H28448906   7.439   2.653   0.573 -0.6567  0.3258 -0.7772
  162MOL   H28548907   7.598   2.730   0.563  0.0164  1.6929  0.4653
  162MOL   H28648908   7.517   2.667   0.416 -1.1339  3.4394 -1.7984
  162MOL   C28748909   7.356   3.065   0.261 -0.7601 -0.0841  0.2982
  162MOL   C28848910   7.505   3.035   0.216  0.3414 -0.2666  0.0052
  162MOL   C28948911   7.504   2.930   0.097 -0.2089 -0.1674 -0.0279
  162MOL   C29048912   7.580   3.162   0.199  0.1194 -0.4098 -0.1481
  162MOL   O29148913   7.662   3.197   0.286 -0.3120  0.3455 -0.0760
  162MOL   O29248914   7.543   3.226   0.091  0.2656  0.2308 -0.4764
  162MOL   C29348915   7.630   3.328   0.044 -0.1438  0.0504  0.4462
  162MOL   H29448916   7.316   3.162   0.233 -1.4934 -0.3895  0.2847
  162MOL   H29548917   7.296   3.006   0.192 -1.8776  0.6511  0.6209
  162MOL   H29648918   7.610   2.913   0.079 -0.4159 -0.8182 -0.6407
  162MOL   H29748919   7.460   2.837   0.132  1.6341 -0.9764  0.1839
  162MOL   H29848920   7.456   2.964   0.005 -0.1179  0.1772  0.0508
  162MOL   H29948921   7.653   3.393   0.128  1.2170 -1.2209  1.0898
  162MOL   H30048922   7.580   3.378   7.839  2.1063  0.9728 -0.3991
  162MOL   H30148923   7.728   3.291   0.010 -0.2345 -0.9087  1.2007
  162MOL   H30248924   7.560   2.986   0.296  1.2695  1.2425  0.2929
  163MOL     C148925   1.595   7.160   6.061 -0.3486 -0.5004 -0.2715
  163MOL     C248926   1.685   7.248   5.977 -0.4824  0.5982 -0.1494
  163MOL     C348927   1.632   7.387   5.980 -0.1503  0.4625  0.7645
  163MOL     C448928   1.830   7.256   6.052 -0.8834 -0.5245  0.4090
  163MOL     O548929   1.886   7.362   6.088  0.4289  0.0182 -0.5292
  163MOL     O648930   1.888   7.137   6.063 -0.6163 -0.4424  0.5799
  163MOL     C748931   2.022   7.128   6.121 -0.1793 -0.6435  0.2603
  163MOL     H848932   1.615   7.053   6.055 -1.7370 -0.7614 -0.5498
  163MOL     H948933   1.601   7.192   6.165  0.0926 -0.1706 -0.3938
  163MOL    H1048934   1.530   7.388   5.944  1.2469  2.8176 -3.4132
  163MOL    H1148935   1.622   7.417   6.085  0.7768  3.3450  0.0770
  163MOL    H1248936   1.694   7.468   5.940  0.5773 -0.3126  0.3067
  163MOL    H1348937   2.039   7.209   6.192 -2.8458 -0.1335  0.3776
  163MOL    H1448938   2.109   7.130   6.056  0.2590  2.3871  0.8490
  163MOL    H1548939   2.010   7.029   6.164 -0.5140 -0.6086  0.2510
  163MOL    H1648940   1.496   7.178   6.018 -0.1449  1.3608  0.0012
  163MOL    C1748941   1.692   7.187   5.832  0.5276 -0.0284 -0.1720
  163MOL    C1848942   1.763   7.258   5.710  0.0843  0.6208 -0.1456
  163MOL    C1948943   1.762   7.143   5.609 -0.2356  0.1026  0.0581
  163MOL    C2048944   1.686   7.376   5.656 -0.1309 -0.6454  0.4697
  163MOL    O2148945   1.717   7.491   5.684  0.5081 -0.1639  0.5023
  163MOL    O2248946   1.579   7.345   5.589  0.1036  0.0131 -0.2510
  163MOL    C2348947   1.498   7.454   5.551 -0.6589  0.4532 -0.4169
  163MOL    H2448948   1.589   7.163   5.806  0.4501  1.4264 -1.2742
  163MOL    H2548949   1.748   7.097   5.855  0.1249 -0.1609  0.2869
  163MOL    H2648950   1.667   7.093   5.592 -0.5923  0.9821 -0.6244
  163MOL    H2748951   1.768   7.168   5.503  1.7180 -1.1582 -0.1559
  163MOL    H2848952   1.832   7.065   5.636 -0.6630  1.0711  4.4032
  163MOL    H2948953   1.498   7.533   5.626 -1.8826 -0.4618  0.5809
  163MOL    H3048954   1.393   7.423   5.546 -1.0476  1.6720 -0.1643
  163MOL    H3148955   1.520   7.487   5.450  0.8518  0.6446 -0.0330
  163MOL    C3248956   1.910   7.297   5.742  0.8236 -0.3041  1.0730
  163MOL    C3348957   2.032   7.314   5.636  0.2244  0.5000 -0.1283
  163MOL    C3448958   2.111   7.177   5.626  0.1925  0.0715  0.2947
  163MOL    C3548959   1.991   7.361   5.496  0.0339 -0.4277  0.4350
  163MOL    O3648960   2.016   7.298   5.396 -0.0675 -0.0958  0.4142
  163MOL    O3748961   1.936   7.478   5.495 -0.5706 -0.4951  0.5449
  163MOL    C3848962   1.902   7.545   5.374  0.0010 -0.0183  0.0198
  163MOL    H3948963   1.943   7.212   5.802 -1.2592 -1.5080  0.5727
  163MOL    H4048964   1.906   7.386   5.805 -1.7743  1.4817 -1.4836
  163MOL    H4148965   2.039   7.096   5.618  0.3830 -0.1419  0.7708
  163MOL    H4248966   2.174   7.166   5.538  1.2560  0.1305  1.0511
  163MOL    H4348967   2.171   7.160   5.715 -1.0730 -1.0806  0.9497
  163MOL    H4448968   1.821   7.483   5.337  1.0206 -1.5149  0.2278
  163MOL    H4548969   1.986   7.526   5.307 -1.3611 -1.7185 -1.2697
  163MOL    H4648970   1.886   7.650   5.399  0.3227 -0.0751  0.4837
  163MOL    C4748971   2.132   7.417   5.704  0.5645 -0.0642  0.0869
  163MOL    C4848972   2.271   7.483   5.643  0.4662  0.6388  0.8708
  163MOL    C4948973   2.353   7.369   5.579 -0.3424  1.1527 -0.6246
  163MOL    C5048974   2.236   7.594   5.540  0.3846 -0.0430 -0.6107
  163MOL    O5148975   2.267   7.582   5.422  0.1654  0.1538 -0.3200
  163MOL    O5248976   2.184   7.703   5.592 -0.2132  0.1235 -0.5253
  163MOL    C5348977   2.156   7.815   5.504 -0.0974  0.4178 -0.0347
  163MOL    H5448978   2.144   7.374   5.804 -2.8069  3.0109  1.9487
  163MOL    H5548979   2.078   7.505   5.740  0.6489 -0.3153  0.8454
  163MOL    H5648980   2.317   7.344   5.479  0.4987  0.6597 -0.8129
  163MOL    H5748981   2.447   7.419   5.555 -0.0385  0.5988 -0.6062
  163MOL    H5848982   2.370   7.275   5.632 -2.5038  1.7941  1.2677
  163MOL    H5948983   2.077   7.874   5.550 -0.7896 -1.8488  1.7914
  163MOL    H6048984   2.120   7.778   5.408 -0.0344  1.5738 -0.5124
  163MOL    H6148985   2.244   7.877   5.485 -0.7816  0.8896 -1.7052
  163MOL    C6248986   2.345   7.559   5.756  1.1859 -0.8833 -0.0194
  163MOL    C6348987   2.432   7.484   5.864  0.1509 -0.4947 -0.6786
  163MOL    C6448988   2.364   7.363   5.937  0.1596  0.8134 -0.0514
  163MOL    C6548989   2.559   7.426   5.802 -0.2019  0.7816  0.1245
  163MOL    O6648990   2.596   7.307   5.829 -0.3239  0.3279  0.0079
  163MOL    O6748991   2.626   7.516   5.724 -0.9559 -0.4047 -0.1579
  163MOL    C6848992   2.749   7.475   5.668  0.6137  0.1778 -0.3067
  163MOL    H6948993   2.279   7.629   5.808  2.6278  1.1609 -0.8602
  163MOL    H7048994   2.418   7.629   5.713 -0.4167  3.1513  3.4533
  163MOL    H7148995   2.331   7.282   5.872  1.8871 -1.6587  2.0596
  163MOL    H7248996   2.434   7.316   6.005 -2.6018 -2.5109  0.6100
  163MOL    H7348997   2.281   7.385   6.004  0.9333 -0.8678  1.4932
  163MOL    H7448998   2.778   7.530   5.578 -0.3254  1.6742  0.2790
  163MOL    H7548999   2.735   7.371   5.641 -0.5320  0.5270 -1.1024
  163MOL    H7649000   2.832   7.483   5.739  0.7333  1.4932 -0.5696
  163MOL    C7749001   2.470   7.595   5.971 -0.0933 -0.2899  0.4967
  163MOL    C7849002   2.377   7.630   6.100  0.1641 -0.1237 -0.1368
  163MOL    C7949003   2.385   7.527   6.209  0.3820 -0.0338  0.2444
  163MOL    C8049004   2.453   7.757   6.152 -0.1137 -0.1926  0.6493
  163MOL    O8149005   2.533   7.761   6.243  0.0562  0.6234  0.1192
  163MOL    O8249006   2.428   7.872   6.082  0.1077 -0.1566  0.0064
  163MOL    C8349007   2.461   0.117   6.149  0.2237  0.2326 -0.0591
  163MOL    H8449008   2.474   7.686   5.911  1.0353 -0.5365  0.1887
  163MOL    H8549009   2.577   7.589   5.993 -0.1494 -2.5192  0.2110
  163MOL    H8649010   2.488   7.495   6.223  0.0692 -1.7719 -1.2357
  163MOL    H8749011   2.358   7.574   6.304  3.0428  1.0749  0.4934
  163MOL    H8849012   2.320   7.441   6.193  0.5819  0.1984 -2.0505
  163MOL    H8949013   2.566   0.137   6.127 -0.2868  1.0526 -1.8445
  163MOL    H9049014   2.438   0.114   6.256 -1.5271  1.3493 -0.3750
  163MOL    H9149015   2.394   0.198   6.118 -0.5383 -0.0722  0.7557
  163MOL    C9249016   2.225   7.662   6.066  0.0021  0.1079  1.0052
  163MOL    C9349017   2.116   7.714   6.176 -0.0765  0.7022  0.4398
  163MOL    C9449018   2.161   7.836   6.260  0.1938  0.2928  0.5602
  163MOL    C9549019   1.994   7.772   6.092  0.4907 -0.0145  0.0743
  163MOL    O9649020   1.956   0.007   6.112  0.5055 -0.4081  0.8044
  163MOL    O9749021   1.957   7.689   6.000 -0.0322 -0.3116 -0.2487
  163MOL    C9849022   1.854   7.736   5.907  0.0879  0.4438 -0.8570
  163MOL    H9949023   2.189   7.575   6.011  1.9011  0.7861 -1.3955
  163MOL   H10049024   2.230   7.735   5.985  0.8620 -0.0759  0.8923
  163MOL   H10149025   2.247   7.808   6.321  1.7594 -0.4939 -1.9351
  163MOL   H10249026   2.187   0.048   6.204 -0.5233  0.9704  1.2945
  163MOL   H10349027   2.085   7.869   6.330 -0.8563  0.2748 -0.5474
  163MOL   H10449028   1.888   7.830   5.863 -0.0425  1.5454  1.3091
  163MOL   H10549029   1.754   7.747   5.948  0.5281  3.4764 -0.5289
  163MOL   H10649030   1.842   7.658   5.831  1.3842 -0.6957  0.0756
  163MOL   C10749031   2.057   7.591   6.267 -0.1059 -0.2526 -0.3123
  163MOL   C10849032   1.980   7.606   6.400 -0.5952  0.1645 -0.0767
  163MOL   C10949033   1.934   7.465   6.438  0.3842  0.3587 -0.1405
  163MOL   C11049034   2.075   7.655   6.509 -0.7023 -0.2705  0.5480
  163MOL   O11149035   2.080   7.770   6.552 -0.0920  0.1161  0.1002
  163MOL   O11249036   2.160   7.551   6.542 -0.0039 -0.6629 -0.0561
  163MOL   C11349037   2.275   7.578   6.625 -0.2887 -0.2564  0.0422
  163MOL   H11449038   2.122   7.504   6.277  0.5852  0.1607 -1.1374
  163MOL   H11549039   1.988   7.534   6.205 -1.2582 -0.5571  1.2291
  163MOL   H11649040   1.892   7.459   6.538 -1.0568 -0.3150 -0.7701
  163MOL   H11749041   1.866   7.415   6.370  1.7377 -0.4173 -0.9607
  163MOL   H11849042   2.014   7.391   6.444 -0.4846 -0.7298 -1.5862
  163MOL   H11949043   2.356   7.545   6.560  1.3838  0.8076  1.5648
  163MOL   H12049044   2.274   7.506   6.706  0.1259 -0.9323 -0.5481
  163MOL   H12149045   2.293   7.679   6.661  2.2946 -0.8406  0.5065
  163MOL   C12249046   1.849   7.707   6.384 -0.3940  0.2475  0.3235
  163MOL   C12349047   1.729   7.708   6.481 -0.5894 -0.3139 -0.6300
  163MOL   C12449048   1.629   7.816   6.425  0.1910 -0.5285  0.2719
  163MOL   C12549049   1.656   7.571   6.487 -0.0357 -0.4019 -0.0459
  163MOL   O12649050   1.632   7.509   6.588 -0.2758  0.6299  0.0965
  163MOL   O12749051   1.612   7.521   6.364 -0.3402 -0.1469 -0.1081
  163MOL   C12849052   1.551   7.392   6.357  0.0065 -0.4810 -0.7171
  163MOL   H12949053   1.805   7.666   6.293  2.5499  0.5042 -1.2754
  163MOL   H13049054   1.886   7.806   6.358 -0.4215 -0.3914 -2.2460
  163MOL   H13149055   1.541   7.845   6.481 -0.8525  0.5587 -1.8768
  163MOL   H13249056   1.687   0.029   6.406 -0.4588  0.2191  1.7550
  163MOL   H13349057   1.596   7.783   6.327 -2.1299  0.1519  0.7973
  163MOL   H13449058   1.618   7.307   6.348 -0.4756 -0.9170 -0.2241
  163MOL   H13549059   1.479   7.387   6.275  0.9506 -1.0877 -1.5304
  163MOL   H13649060   1.494   7.365   6.445  1.1563  3.3282  1.2731
  163MOL   C13749061   1.786   7.760   6.619 -0.1327  0.9064  0.5166
  163MOL   C13849062   1.707   7.828   6.736  0.4938 -0.0854 -0.0188
  163MOL   C13949063   1.569   7.759   6.761  0.7827 -0.1052  0.0294
  163MOL   C14049064   1.805   7.803   6.859  0.1076 -0.3925  0.4489
  163MOL   O14149065   1.766   7.751   6.959 -0.0738  0.9879 -0.2054
  163MOL   O14249066   1.931   7.848   6.841  0.7300  0.7621 -0.8469
  163MOL   C14349067   2.019   7.823   6.945  0.1444  0.2364  0.4484
  163MOL   H14449068   1.860   7.840   6.606 -0.7732  1.1790 -1.8576
  163MOL   H14549069   1.841   7.672   6.652 -0.0909 -0.2914 -2.5438
  163MOL   H14649070   1.580   7.650   6.764  2.0172  0.0021 -0.2706
  163MOL   H14749071   1.532   7.787   6.859  3.7458 -0.0955  1.1843
  163MOL   H14849072   1.484   7.782   6.697  0.0256  2.2205  1.8024
  163MOL   H14949073   1.988   7.859   7.043 -1.9968 -1.9950  0.6533
  163MOL   H15049074   2.116   7.863   6.917 -0.2705 -1.6213 -4.1186
  163MOL   H15149075   2.022   7.714   6.949  0.2312  0.2284  0.2025
  163MOL   C15249076   1.698   0.109   6.713  0.0323 -0.2852 -0.7375
  163MOL   C15349077   1.611   0.219   6.787 -0.1755 -0.2417 -0.0402
  163MOL   C15449078   1.459   0.173   6.790 -0.2236  0.2846 -0.8879
  163MOL   C15549079   1.662   0.239   6.927  0.5508  0.3320  0.3185
  163MOL   O15649080   1.586   0.269   7.020 -0.0936 -0.1982 -0.0795
  163MOL   O15749081   1.791   0.214   6.949  0.1080  0.2155  0.2017
  163MOL   C15849082   1.848   0.234   7.076 -0.5403  0.8705 -0.0297
  163MOL   H15949083   1.657   0.112   6.612 -3.6219 -1.7722  0.6344
  163MOL   H16049084   1.802   0.140   6.703 -0.0367 -0.1864 -1.1525
  163MOL   H16149085   1.386   0.251   6.811 -0.4026 -0.5423  1.7703
  163MOL   H16249086   1.438   0.125   6.695  0.0060 -3.6756  0.9503
  163MOL   H16349087   1.436   0.103   6.870 -1.0101  1.1763 -0.3213
  163MOL   H16449088   1.954   0.256   7.069 -0.4144 -0.0065 -0.9030
  163MOL   H16549089   1.846   0.145   7.138  1.1077  0.2611 -0.8307
  163MOL   H16649090   1.789   0.310   7.128  0.5827  2.2488 -0.7503
  163MOL   C16749091   1.616   0.360   6.702 -0.8808 -0.0507 -0.0175
  163MOL   C16849092   1.739   0.458   6.691 -0.1054  0.1161 -0.7397
  163MOL   C16949093   1.752   0.544   6.820  0.3428 -0.2025  0.7730
  163MOL   C17049094   1.869   0.379   6.656  1.0463 -0.5181 -0.0786
  163MOL   O17149095   1.966   0.389   6.728  0.1844  0.0010 -0.2162
  163MOL   O17249096   1.854   0.308   6.541 -0.0602  0.2902  0.2186
  163MOL   C17349097   1.951   0.211   6.490 -0.9499 -0.2621  0.1151
  163MOL   H17449098   1.526   0.415   6.731 -1.3311 -0.2308 -1.0313
  163MOL   H17549099   1.593   0.331   6.600  0.1379 -0.9711  0.0102
  163MOL   H17649100   1.658   0.589   6.850  0.8576  1.2116  0.2676
  163MOL   H17749101   1.800   0.479   6.894  0.6030 -2.3731 -1.2588
  163MOL   H17849102   1.820   0.629   6.815  0.8949 -0.7691 -1.6349
  163MOL   H17949103   2.029   0.266   6.437 -1.2610 -2.7602 -3.0768
  163MOL   H18049104   1.910   0.148   6.411  3.7443 -1.5905 -1.4476
  163MOL   H18149105   1.996   0.148   6.567  0.0830  0.9107  0.4833
  163MOL   C18249106   1.698   0.559   6.575 -0.0019 -0.1698  0.8689
  163MOL   C18349107   1.784   0.681   6.531  0.0146 -0.9623  0.1583
  163MOL   C18449108   1.752   0.717   6.389 -0.3999 -0.3210 -0.2933
  163MOL   C18549109   1.748   0.804   6.616  0.1106 -0.1233 -0.3843
  163MOL   O18649110   1.824   0.851   6.699  0.0420  0.2132 -0.0166
  163MOL   O18749111   1.623   0.851   6.594 -0.2848  0.4338 -0.3770
  163MOL   C18849112   1.607   0.987   6.624  0.6965 -0.3106 -0.5998
  163MOL   H18949113   1.593   0.585   6.586 -0.1247  0.2687 -1.0942
  163MOL   H19049114   1.679   0.496   6.488 -0.6868 -3.1014  3.0610
  163MOL   H19149115   1.785   0.819   6.368 -0.7358 -0.0713  0.3894
  163MOL   H19249116   1.797   0.647   6.319 -1.5452 -0.7099 -0.6561
  163MOL   H19349117   1.644   0.727   6.376 -0.8210 -2.5326  1.2448
  163MOL   H19449118   1.614   1.002   6.732 -2.3243  1.9374 -0.6598
  163MOL   H19549119   1.510   1.029   6.599  0.6851  0.8346  1.2573
  163MOL   H19649120   1.685   1.051   6.582  0.5013  0.5145  0.2615
  163MOL   C19749121   1.945   0.645   6.543 -0.6130 -0.2435 -0.6188
  163MOL   C19849122   2.071   0.734   6.481  0.3360 -0.2727  0.2129
  163MOL   C19949123   2.054   0.747   6.323 -0.2235 -0.0642 -0.7909
  163MOL   C20049124   2.071   0.881   6.543 -0.2492 -0.2334  0.5305
  163MOL   O20149125   2.079   0.983   6.471  0.2476 -0.0785 -0.6005
  163MOL   O20249126   2.089   0.884   6.678 -0.1470 -0.2644 -0.1506
  163MOL   C20349127   2.076   1.003   6.738 -0.1433  0.0478 -0.8526
  163MOL   H20449128   1.973   0.557   6.485 -0.9434 -0.5880 -0.2623
  163MOL   H20549129   1.969   0.625   6.648 -3.4554  0.9643  0.3133
  163MOL   H20649130   1.983   0.824   6.292 -0.6552 -0.0259  0.2707
  163MOL   H20749131   2.149   0.771   6.276  2.1083 -4.3418  1.4509
  163MOL   H20849132   2.036   0.650   6.277 -0.3052  0.1557 -1.2309
  163MOL   H20949133   1.997   1.068   6.701 -1.0175  0.6513  1.9479
  163MOL   H21049134   2.174   1.051   6.741 -0.1535  0.0430 -0.4013
  163MOL   H21149135   2.058   0.982   6.844 -1.5793 -0.6121 -1.2177
  163MOL   C21249136   2.195   0.648   6.505  0.1290 -0.4022 -0.5113
  163MOL   C21349137   2.348   0.698   6.514  0.2050 -0.0697  0.1494
  163MOL   C21449138   2.387   0.774   6.395  0.2833  0.4891 -0.4590
  163MOL   C21549139   2.376   0.779   6.640  0.4579 -0.6050  0.6531
  163MOL   O21649140   2.440   0.878   6.623 -0.3453 -0.3112 -1.3971
  163MOL   O21749141   2.338   0.735   6.759 -0.2241  0.0508  0.3076
  163MOL   C21849142   2.373   0.815   6.875 -0.1338 -0.3465  0.7260
  163MOL   H21949143   2.191   0.581   6.419 -2.1373 -0.0231 -0.7239
  163MOL   H22049144   2.170   0.586   6.591 -0.1563 -0.6444 -0.7684
  163MOL   H22149145   2.329   0.866   6.383  1.4086  1.3159  0.3029
  163MOL   H22249146   2.494   0.798   6.401  0.6190 -0.7294 -1.3980
  163MOL   H22349147   2.375   0.727   6.297  0.4861  0.9853 -0.7268
  163MOL   H22449148   2.481   0.828   6.869 -0.1172 -1.6876 -2.7767
  163MOL   H22549149   2.342   0.763   6.966 -2.0748  1.3725  1.0888
  163MOL   H22649150   2.328   0.912   6.856  1.0000  0.0203 -0.0855
  163MOL   C22749151   2.442   0.571   6.539  0.7234 -0.5052 -0.2101
  163MOL   C22849152   2.450   0.439   6.454  0.4668  0.1312  0.6688
  163MOL   C22949153   2.330   0.355   6.502 -0.2514 -0.2468 -0.3032
  163MOL   C23049154   2.440   0.459   6.305  0.7699  0.4444  0.2116
  163MOL   O23149155   2.341   0.415   6.244 -0.3959 -0.3315  0.9043
  163MOL   O23249156   2.545   0.529   6.255 -0.2250  0.1389  0.3082
  163MOL   C23349157   2.541   0.552   6.116  0.5589 -0.4502  0.2311
  163MOL   H23449158   2.422   0.546   6.643  0.6440 -0.9061 -0.3192
  163MOL   H23549159   2.541   0.615   6.524  1.2444 -2.2295 -2.1787
  163MOL   H23649160   2.232   0.381   6.463 -0.6110 -0.3262  0.5331
  163MOL   H23749161   2.341   0.258   6.453  1.0257 -0.8850  1.2020
  163MOL   H23849162   2.319   0.339   6.610  1.6160 -0.8027 -0.1806
  163MOL   H23949163   2.480   0.640   6.100 -0.9156 -0.9078  3.0086
  163MOL   H24049164   2.506   0.464   6.061  1.4867  0.1912 -1.4304
  163MOL   H24149165   2.641   0.586   6.087 -0.4069  1.9606 -0.3338
  163MOL   C24249166   2.597   0.378   6.471 -0.7899 -0.0057 -0.6935
  163MOL   C24349167   2.632   0.286   6.595  0.3017 -0.3432 -0.4624
  163MOL   C24449168   2.781   0.271   6.581  0.4672 -0.1594 -0.4306
  163MOL   C24549169   2.601   0.368   6.728 -0.2065 -0.2888  0.5350
  163MOL   O24649170   2.516   0.331   6.812  0.2951  0.5328  0.1549
  163MOL   O24749171   2.687   0.472   6.756  0.2722  0.0780  0.1627
  163MOL   C24849172   2.693   0.532   6.884 -1.2157 -0.7552 -0.3428
  163MOL   H24949173   2.666   0.462   6.469  0.3999 -0.9977 -1.7829
  163MOL   H25049174   2.616   0.322   6.379  0.4932 -0.5768 -0.0845
  163MOL   H25149175   2.821   0.246   6.679  0.2750  0.2284 -0.2488
  163MOL   H25249176   2.816   0.218   6.493 -0.1361 -3.4906  1.2740
  163MOL   H25349177   2.831   0.367   6.565  0.1778 -0.1409 -1.2469
  163MOL   H25449178   2.751   0.625   6.886 -0.0643 -1.4348 -1.7389
  163MOL   H25549179   2.721   0.455   6.956 -1.5775  0.3560  1.0260
  163MOL   H25649180   2.591   0.564   6.908 -0.7405  0.2889  0.3249
  163MOL   C25749181   2.560   0.151   6.593 -0.3209  0.7228  0.5451
  163MOL   C25849182   2.618   0.024   6.662 -0.0619 -0.0522  0.0430
  163MOL   C25949183   2.502   7.796   6.651  0.1995 -0.2920  0.0275
  163MOL   C26049184   2.741   7.844   6.596 -0.0451  0.0828  0.1907
  163MOL   O26149185   2.856   7.859   6.644 -0.4161  0.7091 -0.2229
  163MOL   O26249186   2.714   7.780   6.480 -0.2826 -0.4162  0.0892
  163MOL   C26349187   2.813   7.701   6.422 -0.5432 -0.4638  0.3676
  163MOL   H26449188   2.557   0.123   6.488  2.6219  2.0565  0.0711
  163MOL   H26549189   2.453   0.150   6.617 -0.4382  0.1824  0.0244
  163MOL   H26649190   2.451   7.790   6.554 -0.5383  1.9250  0.2519
  163MOL   H26749191   2.536   7.695   6.675  1.3732  0.0119 -0.3335
  163MOL   H26849192   2.422   7.820   6.721  1.2716  1.4989  0.6643
  163MOL   H26949193   2.765   7.659   6.334 -1.8119  1.1779  0.2443
  163MOL   H27049194   2.849   7.626   6.492  1.2268  1.6628  1.8418
  163MOL   H27149195   2.890   7.767   6.383 -0.4387 -0.1144  1.1506
  163MOL   C27249196   2.650   0.044   6.814  0.1482 -0.3507 -0.9439
  163MOL   C27349197   2.670   7.810   6.925  0.3786  0.1195  0.0138
  163MOL   C27449198   2.684   0.019   7.054 -1.0210  0.3559 -0.0030
  163MOL   C27549199   2.541   7.722   6.943  0.4034 -0.6207  0.4661
  163MOL   O27649200   2.548   7.601   6.915 -0.0912  0.0875 -0.3453
  163MOL   O27749201   2.438   7.782   7.003 -0.0577 -0.0240 -0.0302
  163MOL   C27849202   2.334   7.704   7.048 -0.4223 -0.6447 -0.2720
  163MOL   H27949203   2.564   0.101   6.851  2.0755  1.5637  0.7774
  163MOL   H28049204   2.738   0.108   6.826 -1.6313  2.0980 -0.3332
  163MOL   H28149205   2.768   0.087   7.067 -2.0809  1.5644  0.6393
  163MOL   H28249206   2.596   0.083   7.062 -0.0006  1.9515 -1.2675
  163MOL   H28349207   2.685   7.830   7.140  2.5775 -0.1699 -0.4100
  163MOL   H28449208   2.362   7.634   7.127 -0.4497  1.0278  1.2801
  163MOL   H28549209   2.289   7.639   6.973  0.7675 -1.4744 -0.2789
  163MOL   H28649210   2.260   7.770   7.093  1.0061  0.7408  0.1220
  163MOL   C28749211   2.801   7.730   6.920  0.2647  0.6711  0.4507
  163MOL   C28849212   2.850   7.639   7.037  0.9367  0.7978 -0.2785
  163MOL   C28949213   2.896   7.504   6.993  0.9472  0.0799  0.7035
  163MOL   C29049214   2.944   7.697   7.146 -0.1198 -0.6921 -0.4879
  163MOL   O29149215   2.995   7.807   7.133 -0.1663  0.1662  0.4971
  163MOL   O29249216   2.957   7.613   7.251 -0.2471 -0.5932  0.9925
  163MOL   C29349217   3.053   7.653   7.347 -0.6034  0.3627 -0.3679
  163MOL   H29449218   2.878   7.803   6.894  1.7027 -0.4158  1.5965
  163MOL   H29549219   2.791   7.670   6.829 -1.0266  0.5519  0.6653
  163MOL   H29649220   2.961   7.439   7.051  3.2844  0.5804 -1.2931
  163MOL   H29749221   2.807   7.447   6.964  1.2064 -1.9328  3.7046
  163MOL   H29849222   2.953   7.512   6.900  1.4220 -0.4259  0.9488
  163MOL   H29949223   3.126   7.722   7.302  0.1245  0.1421  0.4517
  163MOL   H30049224   3.100   7.567   7.395  1.1473  0.9145 -1.0379
  163MOL   H30149225   3.005   7.709   7.427  2.9032 -1.5079  3.2744
  163MOL   H30249226   2.763   7.622   7.100  1.1482  1.8429  0.3133
  164MOL     C149227   0.426   2.950   7.535  0.2411  0.4031 -0.5854
  164MOL     C249228   0.526   2.840   7.496  0.4964  0.7046  0.2179
  164MOL     C349229   0.537   2.753   7.625 -0.4325 -0.2033 -0.3557
  164MOL     C449230   0.470   2.744   7.389  0.4357 -0.2940 -0.1909
  164MOL     O549231   0.503   2.623   7.391 -0.4819  0.2293 -0.4874
  164MOL     O649232   0.406   2.791   7.286  0.0571  0.0575 -0.1404
  164MOL     C749233   0.355   2.712   7.182 -0.5562  0.4410 -0.4850
  164MOL     H849234   0.479   3.012   7.607  1.6148 -1.2620 -0.1262
  164MOL     H949235   0.409   3.008   7.444 -0.3322 -0.6533 -1.1761
  164MOL    H1049236   0.611   2.674   7.622  1.8596  1.8418  0.8559
  164MOL    H1149237   0.551   2.812   7.715 -4.3264  0.7577 -0.2593
  164MOL    H1249238   0.451   2.687   7.636  0.2047 -1.2430 -1.5308
  164MOL    H1349239   0.390   2.609   7.185 -2.0974 -0.0999 -0.2915
  164MOL    H1449240   0.375   2.762   7.088  1.0210 -0.0491 -0.4290
  164MOL    H1549241   0.246   2.703   7.188 -0.4566 -1.3071 -0.9323
  164MOL    H1649242   0.327   2.921   7.570 -0.6631  1.3474 -2.3094
  164MOL    C1749243   0.667   2.894   7.472 -0.0657 -0.2671 -0.1494
  164MOL    C1849244   0.714   2.998   7.358  0.6451 -0.3308 -0.7338
  164MOL    C1949245   0.667   2.962   7.214  0.1638 -0.1296 -0.0294
  164MOL    C2049246   0.660   3.141   7.382  0.1012 -0.0593  0.6014
  164MOL    O2149247   0.643   3.220   7.288  0.1698 -0.0512 -0.6906
  164MOL    O2249248   0.638   3.165   7.505  0.0190  0.0589 -0.2495
  164MOL    C2349249   0.566   3.282   7.547 -0.3833 -0.3853  1.0356
  164MOL    H2449250   0.735   2.811   7.457  1.4250  0.5513  1.8823
  164MOL    H2549251   0.701   2.940   7.565 -0.4555 -0.5719  0.1428
  164MOL    H2649252   0.560   2.978   7.199  0.5640  0.2531 -2.6626
  164MOL    H2749253   0.709   3.024   7.135  0.3547  0.1079  0.2591
  164MOL    H2849254   0.693   2.857   7.199  1.2578 -0.0334  1.0858
  164MOL    H2949255   0.642   3.354   7.578  0.9987 -1.7130  0.8091
  164MOL    H3049256   0.507   3.255   7.634 -0.4738  1.4614  1.5684
  164MOL    H3149257   0.497   3.317   7.470 -0.1111 -4.0807 -1.0117
  164MOL    C3249258   0.878   2.991   7.342 -0.1182 -0.6989  0.8307
  164MOL    C3349259   0.986   3.034   7.462  0.1185  0.2057 -0.3697
  164MOL    C3449260   0.976   2.926   7.573 -0.2940  0.1040  0.5372
  164MOL    C3549261   1.126   3.038   7.394 -0.4318 -0.0838 -0.3530
  164MOL    O3649262   1.160   3.116   7.302  0.5641 -1.1766 -0.1087
  164MOL    O3749263   1.207   2.934   7.433 -0.3011  0.0277 -0.4816
  164MOL    C3849264   1.326   2.913   7.359  0.0231 -0.1961 -0.2166
  164MOL    H3949265   0.899   3.037   7.246 -1.8607 -2.3615 -0.3958
  164MOL    H4049266   0.893   2.892   7.300  0.6793 -1.2767  2.4054
  164MOL    H4149267   0.912   2.954   7.657  0.4273 -0.2551  1.2190
  164MOL    H4249268   0.948   2.828   7.536  2.0950 -0.9210  1.3700
  164MOL    H4349269   1.071   2.920   7.627 -1.4247 -1.0096  2.4570
  164MOL    H4449270   1.299   2.903   7.254  1.0992  0.1527 -0.5362
  164MOL    H4549271   1.385   2.826   7.388  0.0214 -0.6155 -1.4698
  164MOL    H4649272   1.390   3.001   7.369  0.5765 -0.5313 -0.7552
  164MOL    C4749273   0.954   3.176   7.524  0.3765 -0.5177 -0.0796
  164MOL    C4849274   1.051   3.269   7.606 -0.0984 -0.2366 -0.3533
  164MOL    C4949275   1.133   3.184   7.712 -0.0074  0.0125  0.3144
  164MOL    C5049276   1.152   3.351   7.516 -0.2392 -0.3979 -0.0177
  164MOL    O5149277   1.273   3.332   7.525  0.0318  0.0432  0.1383
  164MOL    O5249278   1.087   3.428   7.437  0.5257  0.7112  0.3129
  164MOL    C5349279   1.159   3.520   7.348  0.0205 -0.5277 -0.4049
  164MOL    H5449280   0.864   3.164   7.584  0.7154 -2.9403 -0.0397
  164MOL    H5549281   0.912   3.241   7.447  0.6950  0.5372  0.6146
  164MOL    H5649282   1.202   3.245   7.770 -0.0748  1.1889 -0.8050
  164MOL    H5749283   1.062   3.141   7.783  1.2869  0.3594  1.8352
  164MOL    H5849284   1.190   3.108   7.660  0.9250  0.9540 -0.0585
  164MOL    H5949285   1.111   3.586   7.275 -1.7685  0.1992  1.3683
  164MOL    H6049286   1.227   3.455   7.295  0.0506 -0.6905 -0.1632
  164MOL    H6149287   1.211   3.600   7.401 -1.4201  1.2390 -1.5675
  164MOL    C6249288   0.959   3.364   7.688  0.5635 -0.1085  0.0160
  164MOL    C6349289   0.990   3.483   7.780 -0.1525  0.1200  0.0087
  164MOL    C6449290   1.058   3.599   7.704 -0.2817 -0.6451  0.3128
  164MOL    C6549291   0.848   3.533   7.822  0.0410 -0.4309 -0.1358
  164MOL    O6649292   0.807   3.653   7.809  0.0972 -0.0585 -0.1798
  164MOL    O6749293   0.771   3.444   7.877  0.2165 -0.3236 -0.4870
  164MOL    C6849294   0.641   3.480   0.042  0.0720 -0.4960  0.4173
  164MOL    H6949295   0.899   3.300   7.753  0.0442  0.0306 -0.3204
  164MOL    H7049296   0.892   3.402   7.611  0.4892  0.9400  0.5864
  164MOL    H7149297   1.039   3.695   7.751  0.5315 -0.0950 -0.4687
  164MOL    H7249298   1.164   3.587   7.681 -0.4927 -1.1501 -0.4097
  164MOL    H7349299   1.018   3.606   7.602  2.1137 -2.4475 -0.8061
  164MOL    H7449300   0.565   3.431   7.860  0.9469  2.9951 -3.8424
  164MOL    H7549301   0.615   3.586   0.039  0.8820 -0.3221 -1.9608
  164MOL    H7649302   0.625   3.453   0.146  1.6124  0.4441  0.9103
  164MOL    C7749303   1.081   3.446   0.018  0.4659  0.5918  0.3134
  164MOL    C7849304   1.089   3.515   0.158  1.1189 -0.1110 -0.2324
  164MOL    C7949305   1.090   3.672   0.148  0.2258  0.0336  0.1514
  164MOL    C8049306   0.963   3.474   0.245 -0.2813  0.4341 -0.0717
  164MOL    O8149307   0.868   3.550   0.270  0.3057  0.0209  0.4228
  164MOL    O8249308   0.973   3.341   0.299 -0.0025 -0.1845 -0.2832
  164MOL    C8349309   0.874   3.314   0.400 -0.4998 -0.6291  0.6906
  164MOL    H8449310   1.182   3.455   7.853 -0.1813  2.0229 -0.9615
  164MOL    H8549311   1.061   3.340   0.033 -2.5435  1.1291  0.4200
  164MOL    H8649312   1.058   3.719   0.241  0.7746 -0.3265  0.5289
  164MOL    H8749313   1.194   3.706   0.143  0.4059 -0.3269  1.2673
  164MOL    H8849314   1.024   3.723   0.079  0.1831  3.2516  2.4315
  164MOL    H8949315   0.890   3.229   0.468  1.9664  0.6293  1.7679
  164MOL    H9049316   0.779   3.297   0.350  0.0504 -1.8921  0.0273
  164MOL    H9149317   0.866   3.398   0.468  0.8585  0.9532 -1.0582
  164MOL    C9249318   1.231   3.468   0.225 -0.5288 -0.3102 -0.0999
  164MOL    C9349319   1.280   3.493   0.374 -0.0869 -0.5356 -0.5061
  164MOL    C9449320   1.197   3.610   0.441 -0.4192 -0.3622  0.2763
  164MOL    C9549321   1.266   3.365   0.469 -0.7335  0.2370 -0.6922
  164MOL    O9649322   1.200   3.266   0.444  0.2421  0.0179  0.0631
  164MOL    O9749323   1.342   3.388   0.575  0.5752  0.1771  0.1319
  164MOL    C9849324   1.349   3.300   0.684  0.6224  1.2011  0.0634
  164MOL    H9949325   1.300   3.528   0.167  3.1223 -3.8257  0.3985
  164MOL   H10049326   1.250   3.367   0.189 -1.6106  0.2616 -2.3311
  164MOL   H10149327   1.089   3.600   0.453 -0.4462 -0.3898 -0.0032
  164MOL   H10249328   1.236   3.631   0.541 -0.9358 -1.3146  0.6931
  164MOL   H10349329   1.221   3.698   0.383  0.6654 -0.6841  0.2322
  164MOL   H10449330   1.423   3.219   0.689 -2.5454 -1.7646  0.8848
  164MOL   H10549331   1.248   3.259   0.686  0.5563  1.2195 -1.8381
  164MOL   H10649332   1.366   3.355   0.777 -0.3659  0.7144  0.5343
  164MOL   C10749333   1.428   3.540   0.365 -0.9169 -0.5554 -0.2755
  164MOL   C10849334   1.555   3.470   0.311 -0.0647  1.1906  0.9054
  164MOL   C10949335   1.610   3.384   0.422  0.3055  0.0366 -0.1902
  164MOL   C11049336   1.527   3.375   0.186 -0.3097 -0.4983  0.1447
  164MOL   O11149337   1.518   3.251   0.191  0.1371  0.6039 -0.3308
  164MOL   O11249338   1.522   3.441   0.070 -0.2672 -1.0553  0.0379
  164MOL   C11349339   1.510   3.373   7.823 -0.0471 -0.3794 -0.0415
  164MOL   H11449340   1.457   3.583   0.461 -0.7177 -1.3014 -0.0028
  164MOL   H11549341   1.420   3.637   0.314  1.8470 -0.3887 -0.4728
  164MOL   H11649342   1.632   3.430   0.518  0.2472  0.5000 -0.3962
  164MOL   H11749343   1.538   3.305   0.447  0.3372  0.2329  0.5426
  164MOL   H11849344   1.697   3.329   0.389  0.4650 -0.5276  1.1364
  164MOL   H11949345   1.592   3.394   7.755  1.5267  1.4835  2.3270
  164MOL   H12049346   1.421   3.410   7.771 -1.4454 -2.6916  0.6178
  164MOL   H12149347   1.491   3.266   7.831 -2.0158  0.1055  2.9361
  164MOL   C12249348   1.665   3.574   0.258 -0.4094 -0.7430 -0.6775
  164MOL   C12349349   1.773   3.649   0.349  0.0610  0.0335  0.1633
  164MOL   C12449350   1.698   3.720   0.458 -0.0805  1.0308 -0.2674
  164MOL   C12549351   1.872   3.551   0.411 -0.3021  0.0913  0.0274
  164MOL   O12649352   1.921   3.461   0.335 -0.5183 -0.0215 -0.7030
  164MOL   O12749353   1.905   3.567   0.537  0.5036  0.0162  0.1329
  164MOL   C12849354   1.976   3.463   0.604  0.4711 -0.1026 -0.4626
  164MOL   H12949355   1.610   3.643   0.194  0.5501  0.6944  0.0393
  164MOL   H13049356   1.728   3.522   0.186  0.3494  0.4935 -0.8967
  164MOL   H13149357   1.763   3.788   0.513  0.3715 -0.6369  1.2969
  164MOL   H13249358   1.614   3.780   0.422 -0.4718  0.6179 -0.0500
  164MOL   H13349359   1.658   3.647   0.528 -0.0105  1.4736  0.2358
  164MOL   H13449360   1.985   3.473   0.713 -1.3988 -0.3336 -0.2746
  164MOL   H13549361   2.080   3.470   0.574  0.0012  1.6730 -1.7380
  164MOL   H13649362   1.923   3.371   0.579 -3.0082  1.2007  1.7597
  164MOL   C13749363   1.850   3.740   0.249  0.1215 -0.0300  0.8254
  164MOL   C13849364   1.987   3.825   0.284  0.4809  0.0227 -0.1708
  164MOL   C13949365   1.985   3.914   0.410 -0.1658 -0.0565  0.1349
  164MOL   C14049366   2.106   3.723   0.291  0.1600 -0.5249 -0.6338
  164MOL   O14149367   2.154   3.698   0.398 -0.4013  0.5746  0.1054
  164MOL   O14249368   2.141   3.669   0.175 -0.1942 -0.0165 -0.4960
  164MOL   C14349369   2.243   3.577   0.157 -0.4624 -0.2154  0.7545
  164MOL   H14449370   1.772   3.804   0.208  2.2737  3.2511  1.6475
  164MOL   H14549371   1.865   3.689   0.154  0.1014 -0.2041  0.9141
  164MOL   H14649372   1.990   3.869   0.509  0.0114  1.4420  0.8215
  164MOL   H14749373   2.069   3.983   0.419  0.5631 -0.9925  0.5830
  164MOL   H14849374   1.893   3.972   0.423 -1.4125 -1.5218 -1.8452
  164MOL   H14949375   2.212   3.478   0.192 -0.9366 -0.4022 -0.1813
  164MOL   H15049376   2.330   3.609   0.213  0.8727 -0.5021 -1.1065
  164MOL   H15149377   2.266   3.574   0.051  0.1952 -1.2387  0.9244
  164MOL   C15249378   2.000   3.921   0.160  0.6510 -0.1432  0.7114
  164MOL   C15349379   2.115   4.032   0.151  0.5794 -0.4527 -0.4210
  164MOL   C15449380   2.252   3.982   0.202 -0.3745 -0.0380 -0.3066
  164MOL   C15549381   2.124   4.045   7.869 -0.0562 -0.0854 -0.0704
  164MOL   O15649382   2.223   4.046   7.804 -0.3654  0.0823  0.3128
  164MOL   O15749383   2.007   4.073   7.811 -0.1383 -0.1033 -0.2151
  164MOL   C15849384   1.998   4.068   7.669 -0.3187  0.4274 -0.4475
  164MOL   H15949385   1.904   3.970   0.143  0.0449 -1.0752  1.3996
  164MOL   H16049386   2.005   3.851   0.077  2.2410 -1.0299  1.5352
  164MOL   H16149387   2.341   4.041   0.180 -0.7294  1.0971  1.2662
  164MOL   H16249388   2.247   3.958   0.308  0.4288 -1.6479 -0.6215
  164MOL   H16349389   2.256   3.885   0.152 -1.3542  0.7563 -1.9719
  164MOL   H16449390   2.091   4.099   7.622  0.1062 -0.6889 -0.3571
  164MOL   H16549391   1.916   4.130   7.634 -0.4052  0.8029  0.4167
  164MOL   H16649392   1.987   3.962   7.644  0.0613  0.0326  1.0060
  164MOL   C16749393   2.062   4.171   0.216  0.0283  0.2266 -0.8807
  164MOL   C16849394   2.141   4.309   0.232  0.3433  0.2545  0.1912
  164MOL   C16949395   2.267   4.275   0.315 -0.4710 -0.3452  0.2708
  164MOL   C17049396   2.193   4.356   0.093  0.9978  0.5606 -0.2259
  164MOL   O17149397   2.307   4.397   0.073 -0.1153  0.2443 -0.2504
  164MOL   O17249398   2.094   4.356   7.871 -0.0749 -0.0174  0.7367
  164MOL   C17349399   2.132   4.396   7.741  0.0109  0.3279 -0.2607
  164MOL   H17449400   2.017   4.151   0.313  1.4135 -0.7257 -0.4039
  164MOL   H17549401   1.973   4.202   0.162 -0.2776  1.9694  0.5894
  164MOL   H17649402   2.340   4.230   0.248  0.5900  1.0323  0.4629
  164MOL   H17749403   2.304   4.362   0.370 -1.5575  1.1981 -1.3983
  164MOL   H17849404   2.247   4.197   0.388  0.9287 -0.8134  0.1824
  164MOL   H17949405   2.219   4.336   7.716 -0.0192  0.1676  0.0162
  164MOL   H18049406   2.142   4.505   7.739  1.4287  0.1970 -1.3062
  164MOL   H18149407   2.055   4.365   7.671 -1.3845 -2.0641  2.2488
  164MOL   C18249408   2.053   4.416   0.307  0.1382  0.3032 -0.2872
  164MOL   C18349409   2.082   4.567   0.318  0.1078 -0.3221  0.5437
  164MOL   C18449410   2.236   4.596   0.329  0.4407 -0.2918  0.5337
  164MOL   C18549411   2.032   4.648   0.194  0.6838  0.4567 -0.6522
  164MOL   O18649412   1.990   4.595   0.091 -0.2587 -0.7224 -0.0897
  164MOL   O18749413   2.055   4.783   0.200  0.2829 -0.4336  0.3239
  164MOL   C18849414   2.014   4.872   0.098 -0.2642 -0.2243  0.2041
  164MOL   H18949415   2.029   4.365   0.401 -0.2994 -1.0100 -1.0900
  164MOL   H19049416   1.959   4.408   0.253 -0.7559  2.0167  1.0112
  164MOL   H19149417   2.297   4.558   0.412  0.0686 -0.9887  0.4955
  164MOL   H19249418   2.287   4.549   0.245  0.6120  1.6397 -0.4462
  164MOL   H19349419   2.258   4.702   0.322 -0.8736 -0.0672 -0.1815
  164MOL   H19449420   2.084   4.956   0.096  1.6739 -1.8005  0.9231
  164MOL   H19549421   1.914   4.903   0.131 -0.2502  0.3004 -0.2452
  164MOL   H19649422   2.018   4.823   0.001  0.9098  1.1726 -0.4737
  164MOL   C19749423   2.027   4.623   0.460 -0.7218  0.3300 -0.5661
  164MOL   C19849424   1.868   4.616   0.504 -0.9187 -0.8040 -0.1208
  164MOL   C19949425   1.791   4.680   0.383 -0.1336  0.2168  0.0242
  164MOL   C20049426   1.811   4.474   0.540  0.5133  0.1738  0.0800
  164MOL   O20149427   1.883   4.379   0.572  0.2170 -0.5117 -0.4196
  164MOL   O20249428   1.676   4.471   0.546 -0.2315 -0.8606 -0.1098
  164MOL   C20349429   1.613   4.353   0.573  0.2259 -0.6302  0.0549
  164MOL   H20449430   2.060   4.727   0.468  0.8276 -0.1470 -0.4622
  164MOL   H20549431   2.076   4.571   0.543  2.9163  2.0772 -1.4738
  164MOL   H20649432   1.827   4.777   0.348  1.8570 -0.3906  0.3353
  164MOL   H20749433   1.778   4.616   0.296 -2.2456 -0.1549  0.5659
  164MOL   H20849434   1.691   4.700   0.423 -0.6834  0.0094 -1.2168
  164MOL   H20949435   1.632   4.315   0.674  2.7168 -1.1307 -0.5694
  164MOL   H21049436   1.645   4.281   0.498 -1.0562  0.0280 -1.1400
  164MOL   H21149437   1.505   4.358   0.560  0.0505 -2.4640  0.5938
  164MOL   C21249438   1.849   4.714   0.632 -0.2976  0.4004  1.0024
  164MOL   C21349439   1.875   4.687   0.781  0.4718  0.2280  0.4920
  164MOL   C21449440   2.015   4.621   0.794 -0.2649  0.3707 -0.0219
  164MOL   C21549441   1.884   4.829   0.848  0.0357  0.0952 -0.0755
  164MOL   O21649442   1.996   4.879   0.874 -0.2260  0.3476  0.0364
  164MOL   O21749443   1.780   4.900   0.836 -0.4422  0.0825  0.3266
  164MOL   C21849444   1.774   5.034   0.874  0.1938 -0.3982 -0.1139
  164MOL   H21949445   1.744   4.737   0.613 -0.1890  0.4030  0.3895
  164MOL   H22049446   1.899   4.807   0.605 -0.5222 -0.0224 -0.9487
  164MOL   H22149447   2.023   4.526   0.741  1.9726  1.4301 -1.7013
  164MOL   H22249448   2.098   4.678   0.752 -0.0222  0.3719  0.4573
  164MOL   H22349449   2.051   4.609   0.896 -0.1392 -2.0936 -0.3188
  164MOL   H22449450   1.865   5.060   0.927  1.2169  1.2453 -2.5945
  164MOL   H22549451   1.687   5.047   0.939  0.4738 -0.2004  0.2213
  164MOL   H22649452   1.768   5.104   0.790 -0.7019  1.6834  1.6151
  164MOL   C22749453   1.752   4.600   0.836 -1.1475 -0.2211 -0.3903
  164MOL   C22849454   1.747   4.535   0.976  0.7500 -0.9310 -0.2181
  164MOL   C22949455   1.804   4.634   1.084 -0.2001 -0.4082  0.3120
  164MOL   C23049456   1.597   4.525   1.013  0.9105  0.0483  0.1008
  164MOL   O23149457   1.541   4.577   1.112 -0.1820 -0.4376  0.6351
  164MOL   O23249458   1.535   4.441   0.925 -0.1815 -0.2784 -0.3032
  164MOL   C23349459   1.403   4.406   0.930  0.3099 -0.1819 -0.8226
  164MOL   H23449460   1.726   4.516   0.771 -1.2210 -0.3287 -0.2208
  164MOL   H23549461   1.672   4.671   0.813 -2.3425 -1.4559 -0.0973
  164MOL   H23649462   1.741   4.723   1.087 -1.4401 -1.3157  1.5951
  164MOL   H23749463   1.804   4.603   1.188  0.7012  2.1862  1.1364
  164MOL   H23849464   1.908   4.661   1.063 -1.0015  0.1400 -3.3597
  164MOL   H23949465   1.342   4.419   0.841 -2.0134  0.2381  0.7693
  164MOL   H24049466   1.350   4.476   0.994  0.0721 -2.0529  1.1092
  164MOL   H24149467   1.393   4.301   0.960 -1.1069 -0.2526 -1.5166
  164MOL   C24249468   1.811   4.395   0.968 -0.8865  0.2306 -0.0214
  164MOL   C24349469   1.861   4.305   1.082 -0.3000 -0.5652  0.2971
  164MOL   C24449470   1.994   4.358   1.137 -0.1903  0.1857  0.1319
  164MOL   C24549471   1.756   4.301   1.192 -0.2135 -0.4552 -0.3623
  164MOL   O24649472   1.773   4.353   1.306 -0.2876 -0.4401 -0.1823
  164MOL   O24749473   1.637   4.235   1.150 -0.6568 -0.5641 -0.1444
  164MOL   C24849474   1.524   4.216   1.234 -0.6805 -0.0385 -0.6256
  164MOL   H24949475   1.898   4.419   0.906 -0.9324  0.4067 -0.0193
  164MOL   H25049476   1.742   4.336   0.908 -2.9632  0.2655  2.2377
  164MOL   H25149477   2.025   4.306   1.227  1.8020 -0.7029 -1.0351
  164MOL   H25249478   2.077   4.345   1.068 -0.0539  1.3458  0.0669
  164MOL   H25349479   1.994   4.465   1.161  0.3063  0.4547 -0.9893
  164MOL   H25449480   1.559   4.236   1.335  0.2316 -0.3437 -0.8761
  164MOL   H25549481   1.501   4.110   1.223  2.6727 -0.7978 -0.7802
  164MOL   H25649482   1.434   4.271   1.205 -0.6642  0.8786  1.0337
  164MOL   C25749483   1.887   4.162   1.026 -0.3261 -0.2039  0.1904
  164MOL   C25849484   1.961   4.044   1.099  0.7541  0.5080  0.1439
  164MOL   C25949485   1.935   3.924   1.011 -0.1612 -0.0061  0.2387
  164MOL   C26049486   2.116   4.071   1.092  0.2084 -0.4617 -0.2655
  164MOL   O26149487   2.182   4.089   1.190 -0.8819  0.0424 -0.2644
  164MOL   O26249488   2.158   4.080   0.962 -0.1782 -0.2177 -0.4351
  164MOL   C26349489   2.283   4.121   0.929  0.1543 -0.1208  0.0691
  164MOL   H26449490   1.923   4.173   0.924 -0.5886  0.3322  0.1553
  164MOL   H26549491   1.783   4.129   1.012 -0.2340 -1.5832  2.4385
  164MOL   H26649492   1.830   3.897   1.008 -0.3383  0.8468 -2.2683
  164MOL   H26749493   1.959   3.927   0.905  0.1029 -0.6666  0.2766
  164MOL   H26849494   1.980   3.832   1.047  0.5315  0.5175  0.7386
  164MOL   H26949495   2.360   4.091   1.000  0.5972  0.5919 -0.1129
  164MOL   H27049496   2.290   4.230   0.922  0.4772 -0.0737  0.9376
  164MOL   H27149497   2.301   4.074   0.833 -0.1126  0.0874 -0.0831
  164MOL   C27249498   1.898   4.015   1.238 -0.3547  0.0231  0.0447
  164MOL   C27349499   1.909   3.887   1.328 -0.2063 -0.8357 -0.0218
  164MOL   C27449500   2.054   3.851   1.341 -0.9151  0.0521 -0.8303
  164MOL   C27549501   1.856   3.932   1.469 -0.0657 -1.3081 -0.1051
  164MOL   O27649502   1.778   4.024   1.478 -0.4196 -0.0173 -0.0146
  164MOL   O27749503   1.879   3.851   1.576 -0.4548  0.4381  0.2943
  164MOL   C27849504   1.843   3.888   1.709 -0.3445  0.0848 -0.1015
  164MOL   H27949505   1.793   4.035   1.218 -0.1338 -0.4683 -1.7466
  164MOL   H28049506   1.928   4.098   1.301 -0.9552  0.0828  0.2507
  164MOL   H28149507   2.071   3.775   1.418 -2.0332 -1.2010 -1.8027
  164MOL   H28249508   2.091   3.813   1.246 -2.2182 -0.3815 -1.1725
  164MOL   H28349509   2.107   3.941   1.371 -1.4421 -0.1198  0.6297
  164MOL   H28449510   1.861   3.993   1.729  0.2320 -0.3612  1.8478
  164MOL   H28549511   1.915   3.835   1.773 -0.0116 -0.4538 -0.9058
  164MOL   H28649512   1.741   3.863   1.736 -0.6038  0.6148 -0.5884
  164MOL   C28749513   1.828   3.762   1.277 -0.1609 -0.6551 -0.3625
  164MOL   C28849514   1.677   3.777   1.228  0.2956 -0.7972  0.2543
  164MOL   C28949515   1.644   3.670   1.130  0.3501  0.4862 -0.0214
  164MOL   C29049516   1.570   3.776   1.343  0.1401 -0.3106 -0.4207
  164MOL   O29149517   1.588   3.751   1.466 -0.3942 -0.0491 -0.0233
  164MOL   O29249518   1.454   3.815   1.288 -0.1291 -0.1264 -0.7251
  164MOL   C29349519   1.329   3.797   1.356  0.7867  0.8107  0.0824
  164MOL   H29449520   1.838   3.682   1.350  2.9813 -1.6513 -1.7918
  164MOL   H29549521   1.892   3.721   1.199 -0.0978  0.9759 -1.1957
  164MOL   H29649522   1.539   3.640   1.126  0.5127  0.0978 -2.7906
  164MOL   H29749523   1.662   3.700   1.026 -1.3235  0.4329 -0.3362
  164MOL   H29849524   1.700   3.577   1.141  0.8793  0.6868 -0.9228
  164MOL   H29949525   1.247   3.827   1.290  0.1828 -0.4850  0.2203
  164MOL   H30049526   1.309   3.870   1.434 -1.7272 -0.9482  1.1462
  164MOL   H30149527   1.319   3.696   1.396  2.4480 -0.6422 -2.9924
  164MOL   H30249528   1.665   3.875   1.183 -0.5933 -1.5169 -1.0962
  165MOL     C149529   7.266   0.481   1.147  0.8905 -0.0540  0.4666
  165MOL     C249530   7.320   0.627   1.147 -0.3509 -0.3827 -0.1956
  165MOL     C349531   7.456   0.633   1.070  0.6038  0.4717  0.0804
  165MOL     C449532   7.219   0.712   1.064  0.1456 -0.2934 -0.0873
  165MOL     O549533   7.129   0.666   0.998 -0.2502 -0.1482  0.1182
  165MOL     O649534   7.251   0.839   1.065 -0.0381  0.0698  0.6232
  165MOL     C749535   7.179   0.941   0.996  0.2254  0.1275 -0.3281
  165MOL     H849536   7.321   0.412   1.212 -0.4673 -0.6724  0.9664
  165MOL     H949537   7.160   0.478   1.170  0.9659  1.1428  0.9947
  165MOL    H1049538   7.503   0.729   1.047 -0.5326  1.9548  3.4346
  165MOL    H1149539   7.522   0.558   1.113 -0.0902  0.6007  1.4355
  165MOL    H1249540   7.426   0.588   0.976  0.9147  1.1855 -0.3663
  165MOL    H1349541   7.161   0.920   0.890 -0.8438  0.5453 -0.2378
  165MOL    H1449542   7.245   1.026   1.012 -0.9356  0.8864  0.4919
  165MOL    H1549543   7.086   0.968   1.046 -0.3492  0.3919 -1.5099
  165MOL    H1649544   7.275   0.437   1.048 -2.5616  2.0173 -0.8374
  165MOL    C1749545   7.358   0.679   1.287  0.4936  0.5943  0.5426
  165MOL    C1849546   7.250   0.696   1.401 -0.0657  0.6428 -0.2680
  165MOL    C1949547   7.106   0.752   1.363  0.2712 -0.0208  0.3740
  165MOL    C2049548   7.219   0.555   1.459  0.3131 -0.8275 -0.8029
  165MOL    O2149549   7.107   0.497   1.451 -0.4388 -0.6064 -0.5114
  165MOL    O2249550   7.323   0.510   1.527 -0.3052 -0.2091  1.0377
  165MOL    C2349551   7.333   0.368   1.558  0.3635  0.4198  0.1459
  165MOL    H2449552   7.391   0.781   1.265 -0.5906  1.0351  0.9181
  165MOL    H2549553   7.437   0.622   1.336  0.2052  1.2912  1.8460
  165MOL    H2649554   7.051   0.762   1.456  1.1435 -0.2613  0.9241
  165MOL    H2749555   7.118   0.850   1.315  0.4016 -0.6642 -0.9422
  165MOL    H2849556   7.041   0.690   1.302  0.5193 -0.5691  0.6621
  165MOL    H2949557   7.427   0.338   1.511  1.2152 -0.5999  2.4350
  165MOL    H3049558   7.245   0.314   1.524  1.2052 -1.4032  0.7899
  165MOL    H3149559   7.348   0.365   1.666 -2.5843  0.2015  0.5805
  165MOL    C3249560   7.303   0.795   1.518  0.1070 -0.1696  0.1035
  165MOL    C3349561   7.303   0.950   1.529  0.6787  1.0214  0.2472
  165MOL    C3449562   7.338   1.016   1.391  0.5443 -0.6008 -0.0085
  165MOL    C3549563   7.165   1.005   1.582 -0.4761 -0.6769 -0.3709
  165MOL    O3649564   7.081   0.933   1.640 -0.4600  0.0534  0.1303
  165MOL    O3749565   7.153   1.146   1.566  1.0572  0.1501 -0.2038
  165MOL    C3849566   7.041   1.211   1.626 -0.3823  0.0732  0.1838
  165MOL    H3949567   7.406   0.764   1.538  0.0964 -0.4601 -0.2744
  165MOL    H4049568   7.250   0.757   1.605 -0.1103  1.2683  0.6200
  165MOL    H4149569   7.419   0.966   1.338  0.5606 -1.9024  1.1764
  165MOL    H4249570   7.247   1.010   1.332  1.5231 -0.6271 -1.5188
  165MOL    H4349571   7.348   1.124   1.401 -0.7600 -0.3958 -0.9001
  165MOL    H4449572   7.013   1.301   1.571 -0.8787 -1.1047 -1.5322
  165MOL    H4549573   7.052   1.237   1.731 -0.8331 -1.0903  0.5189
  165MOL    H4649574   6.949   1.154   1.619 -1.2268  1.3956  0.1737
  165MOL    C4749575   7.432   0.990   1.622  0.2704  0.3114  0.6989
  165MOL    C4849576   7.447   0.963   1.780 -0.5881 -0.3728  0.6802
  165MOL    C4949577   7.320   1.020   1.855 -0.5401  0.1138  0.5855
  165MOL    C5049578   7.460   0.811   1.806 -0.2952 -0.2491 -0.5677
  165MOL    O5149579   7.403   0.756   1.897 -0.3849 -0.0124  0.2265
  165MOL    O5249580   7.549   0.750   1.734  0.2880 -0.0394 -0.0106
  165MOL    C5349581   7.567   0.609   1.762  0.5141 -0.2406 -0.1043
  165MOL    H5449582   7.452   1.097   1.613  0.6510 -0.0296 -3.0973
  165MOL    H5549583   7.516   0.946   1.568  0.4354 -0.0700  1.2524
  165MOL    H5649584   7.334   1.035   1.962 -1.5008 -0.4430  0.7911
  165MOL    H5749585   7.301   1.120   1.818 -1.0878 -0.5423 -0.9611
  165MOL    H5849586   7.233   0.956   1.841 -1.3734  1.3956 -0.1520
  165MOL    H5949587   7.641   0.597   1.841 -1.2677  0.9389  1.7635
  165MOL    H6049588   7.591   0.552   1.672  0.1910 -1.5400  0.6205
  165MOL    H6149589   7.474   0.563   1.794  1.4776 -1.6669  0.7383
  165MOL    C6249590   7.573   1.039   1.837  0.0964  0.3740  0.3949
  165MOL    C6349591   7.730   1.024   1.807 -0.1606 -0.2299  0.9833
  165MOL    C6449592   7.784   1.152   1.864 -0.5419  0.0327  0.3938
  165MOL    C6549593   7.788   0.900   1.877  0.0224 -0.0540 -0.2910
  165MOL    O6649594   7.833   0.805   1.811  0.0560  0.4627  0.0651
  165MOL    O6749595   7.810   0.911   2.017 -0.5139  0.0169 -0.1996
  165MOL    C6849596   0.014   0.823   2.089 -0.5468 -0.0873  0.1595
  165MOL    H6949597   7.562   1.036   1.945 -0.7587 -1.0642  0.2819
  165MOL    H7049598   7.550   1.142   1.812  2.0710  0.8026  0.2437
  165MOL    H7149599   7.761   1.240   1.804 -0.2923 -0.6346 -0.6870
  165MOL    H7249600   7.747   1.165   1.966  2.0506  2.1455  1.1042
  165MOL    H7349601   0.014   1.139   1.873 -0.5722 -1.2494 -0.8782
  165MOL    H7449602   0.017   0.845   2.196  3.5568 -0.6278  0.2318
  165MOL    H7549603   0.115   0.832   2.049 -0.6626  0.1131 -0.0919
  165MOL    H7649604   7.845   0.725   2.077  0.3552 -0.6439  1.0976
  165MOL    C7749605   7.752   1.021   1.647 -0.4711  0.4885  0.2092
  165MOL    C7849606   0.005   1.065   1.568  0.0842  0.8947 -0.7463
  165MOL    C7949607   0.007   1.221   1.555  0.1347  0.3220  0.1698
  165MOL    C8049608   0.138   1.006   1.622  0.3143  0.2577 -0.8381
  165MOL    O8149609   0.215   1.078   1.690  0.1700 -0.0278  0.5708
  165MOL    O8249610   0.149   0.872   1.594 -0.3596 -0.6267 -0.1445
  165MOL    C8349611   0.240   0.800   1.669  0.6503 -0.0915  0.0385
  165MOL    H8449612   7.670   1.078   1.603 -0.3855  0.6652  0.2802
  165MOL    H8549613   7.729   0.918   1.619 -0.8428  0.4797  0.5391
  165MOL    H8649614   0.087   1.254   1.488  0.7848 -1.4350  0.0530
  165MOL    H8749615   7.784   1.252   1.527 -0.1098 -1.3816 -0.9265
  165MOL    H8849616   0.044   1.262   1.649 -0.1748 -1.9118  1.2717
  165MOL    H8949617   0.215   0.824   1.773  0.0548 -0.5851  0.0155
  165MOL    H9049618   0.341   0.834   1.651  1.1338 -1.0317  0.8682
  165MOL    H9149619   0.227   0.693   1.652  1.9132 -0.2399 -0.0105
  165MOL    C9249620   7.851   1.006   1.424 -0.0952  0.5605  0.5559
  165MOL    C9349621   0.039   1.042   1.283  0.0005 -0.3047  0.1344
  165MOL    C9449622   7.855   1.171   1.228  0.3450  0.0613 -0.5567
  165MOL    C9549623   0.196   1.044   1.289 -0.0508  0.2896  0.6271
  165MOL    O9649624   0.257   1.153   1.268 -0.6035  0.0811  0.6269
  165MOL    O9749625   0.261   0.928   1.325 -0.1295  0.0405 -0.2371
  165MOL    C9849626   0.403   0.930   1.341 -0.4182 -0.2845 -0.1308
  165MOL    H9949627   7.746   1.032   1.414  0.1234  1.8445  1.4470
  165MOL   H10049628   7.848   0.897   1.426  0.7438  0.5078 -0.6875
  165MOL   H10149629   7.748   1.151   1.231  0.6326 -1.8060 -1.6292
  165MOL   H10249630   0.003   1.264   1.278  1.4079 -2.1370  3.1914
  165MOL   H10349631   0.018   1.192   1.129 -0.3052 -1.0457 -1.0682
  165MOL   H10449632   0.443   0.831   1.363 -0.6309  0.1821  2.5017
  165MOL   H10549633   0.435   0.999   1.419 -1.2496 -0.4314  0.3437
  165MOL   H10649634   0.445   0.965   1.247  1.2877  0.2645  0.8295
  165MOL   C10749635   7.867   0.922   1.189 -0.5542  0.3587 -0.2198
  165MOL   C10849636   7.873   0.902   1.030  0.2634  0.0844 -0.2344
  165MOL   C10949637   7.742   0.961   0.991  0.1516 -0.5654  0.9787
  165MOL   C11049638   0.110   0.985   0.959 -0.1108 -0.1751  0.6029
  165MOL   O11149639   0.086   1.092   0.898 -0.0222  0.1203 -0.1635
  165MOL   O11249640   0.234   0.940   0.975  0.4345 -0.1839 -0.1904
  165MOL   C11349641   0.347   1.028   0.965 -0.2131 -0.0932 -0.2618
  165MOL   H11449642   7.766   0.888   1.211 -1.2726  1.2937 -2.0008
  165MOL   H11549643   0.043   0.835   1.226  0.9416  0.7944 -1.3319
  165MOL   H11649644   7.661   0.894   1.020  0.6107 -1.5998 -0.0591
  165MOL   H11749645   7.718   1.052   1.045 -0.0892 -0.2231  0.2945
  165MOL   H11849646   7.738   0.982   0.884  0.8479 -0.0493  1.0547
  165MOL   H11949647   0.349   1.026   0.856 -1.4526 -0.5334 -0.2764
  165MOL   H12049648   0.436   0.979   1.006 -0.3361 -0.3424 -0.2929
  165MOL   H12149649   0.336   1.133   0.995  1.4999  0.3260 -1.0220
  165MOL   C12249650   0.005   0.752   0.994 -0.7466  0.2093  0.1212
  165MOL   C12349651   7.849   0.676   0.862  0.4293  0.8022 -0.1371
  165MOL   C12449652   7.697   0.697   0.834 -0.0503  0.0467 -0.0100
  165MOL   C12549653   0.045   0.738   0.740 -0.0053  0.1853  0.5014
  165MOL   O12649654   7.864   0.769   0.636 -0.3730  0.0199  0.0994
  165MOL   O12749655   0.183   0.751   0.757 -0.4956  0.6518 -0.3161
  165MOL   C12849656   0.266   0.808   0.655  0.1391  0.5324 -0.4710
  165MOL   H12949657   7.811   0.709   1.065 -1.5780  1.4875  0.0737
  165MOL   H13049658   0.104   0.724   1.029  0.0448  1.1884 -1.2921
  165MOL   H13149659   7.671   0.649   0.740 -1.9242  0.0598  0.4789
  165MOL   H13249660   7.626   0.647   0.900 -0.6628  0.3024 -0.4713
  165MOL   H13349661   7.654   0.793   0.807 -3.2111 -1.2023  0.2575
  165MOL   H13449662   0.210   0.870   0.584  1.2577  0.5493 -1.3439
  165MOL   H13549663   0.315   0.740   0.585 -2.3371 -3.6350  1.6453
  165MOL   H13649664   0.340   0.870   0.705 -0.2668  1.3039 -0.8135
  165MOL   C13749665   0.008   0.526   0.892  0.0888  0.0137  0.3198
  165MOL   C13849666   7.850   0.397   0.815  0.3178 -0.0410 -0.2587
  165MOL   C13949667   0.057   0.287   0.885 -0.5485 -0.1676 -0.6753
  165MOL   C14049668   7.695   0.364   0.837 -0.2013 -0.0352  0.6348
  165MOL   O14149669   7.611   0.403   0.752 -0.8676 -0.3702  0.0356
  165MOL   O14249670   7.668   0.303   0.949  0.5894  0.1213  0.1323
  165MOL   C14349671   7.533   0.252   0.961 -1.0576  0.2424  0.0114
  165MOL   H14449672   7.854   0.509   0.995 -1.8844 -1.0760 -0.4442
  165MOL   H14549673   0.117   0.521   0.896  0.1211  0.2980 -0.1742
  165MOL   H14649674   0.016   0.191   0.855  0.3236  0.4561 -4.0959
  165MOL   H14749675   0.160   0.307   0.855  0.0584  2.4443  2.7378
  165MOL   H14849676   0.066   0.288   0.994  1.2971 -2.2400 -0.7815
  165MOL   H14949677   7.503   0.217   1.059 -1.5271  0.7036  0.0333
  165MOL   H15049678   7.517   0.167   0.894  0.0669  0.0228  0.0190
  165MOL   H15149679   7.454   0.317   0.922 -1.5975  1.4398  2.9905
  165MOL   C15249680   0.017   0.416   0.664 -1.0879  0.0299  0.7195
  165MOL   C15349681   0.025   0.304   0.551 -0.8849  0.0807  0.3762
  165MOL   C15449682   0.131   0.195   0.575  0.5212  1.0015 -0.1264
  165MOL   C15549683   7.767   0.235   0.517 -0.2091  1.2578  0.1614
  165MOL   O15649684   7.756   0.115   0.520  0.7358  0.4966 -0.4731
  165MOL   O15749685   7.673   0.321   0.484 -0.2419  0.4291  0.0920
  165MOL   C15849686   7.545   0.288   0.459  0.2394  0.0313 -0.4694
  165MOL   H15949687   0.100   0.487   0.657 -0.9118 -0.1870  0.6012
  165MOL   H16049688   7.805   0.466   0.627 -1.1279  0.6683  1.6470
  165MOL   H16149689   0.107   0.134   0.661 -0.5414  2.7475  0.8415
  165MOL   H16249690   0.146   0.119   0.499  2.9559  0.6197  0.7036
  165MOL   H16349691   0.232   0.234   0.589  0.6172  0.7212 -0.0447
  165MOL   H16449692   7.508   0.245   0.552  0.4902  0.8879  0.0324
  165MOL   H16549693   7.533   0.229   0.368  1.2899 -1.1417  0.1440
  165MOL   H16649694   7.506   0.389   0.442  2.4186  1.0692  0.4880
  165MOL   C16749695   0.062   0.377   0.415 -0.3585  0.6103 -0.7243
  165MOL   C16849696   0.205   0.421   0.368  0.3414 -0.2635  0.0254
  165MOL   C16949697   0.271   0.506   0.481  0.2986 -0.6482  0.8405
  165MOL   C17049698   0.279   0.294   0.324  0.2198  0.6229  0.1430
  165MOL   O17149699   0.222   0.211   0.250 -0.2840  0.4490 -0.1069
  165MOL   O17249700   0.400   0.291   0.362 -0.7010  0.3698 -0.5360
  165MOL   C17349701   0.478   0.180   0.322 -0.9857  0.5509 -0.3510
  165MOL   H17449702   0.003   0.469   0.417 -0.3296  0.8789 -5.7562
  165MOL   H17549703   0.015   0.320   0.334 -0.1722  2.7637 -2.3946
  165MOL   H17649704   0.201   0.587   0.504 -1.4483 -2.1019  0.7858
  165MOL   H17749705   0.295   0.443   0.566  0.4796 -1.1013  0.4564
  165MOL   H17849706   0.362   0.555   0.446  0.6886 -1.9359  0.0168
  165MOL   H17949707   0.500   0.182   0.215  0.9099  0.9982  0.0286
  165MOL   H18049708   0.448   0.086   0.369  1.7173 -1.0926 -1.7927
  165MOL   H18149709   0.570   0.204   0.375  0.0659 -0.9420 -1.4733
  165MOL   C18249710   0.185   0.515   0.243  0.5346  0.2357 -0.2229
  165MOL   C18349711   0.296   0.601   0.165  0.3726 -0.7991 -0.0632
  165MOL   C18449712   0.319   0.734   0.243  0.0903  0.8287  0.0807
  165MOL   C18549713   0.425   0.525   0.148  0.0865 -0.5082  0.3537
  165MOL   O18649714   0.441   0.428   0.065 -0.5764  0.1705 -1.3347
  165MOL   O18749715   0.524   0.562   0.231 -0.0096 -0.0508 -0.4186
  165MOL   C18849716   0.653   0.517   0.215 -0.3991  0.2200  0.2050
  165MOL   H18949717   0.114   0.590   0.277  0.1347 -0.7781  1.2350
  165MOL   H19049718   0.133   0.446   0.176  0.6129  0.4107 -0.4633
  165MOL   H19149719   0.252   0.811   0.205 -0.0744  0.7125  0.1355
  165MOL   H19249720   0.301   0.735   0.351  0.7740 -1.2873  0.2475
  165MOL   H19349721   0.414   0.785   0.229  1.2805 -1.4893 -0.5520
  165MOL   H19449722   0.692   0.519   0.317 -0.3255  2.1103  0.1529
  165MOL   H19549723   0.702   0.595   0.157 -0.6013  0.3707  0.2387
  165MOL   H19649724   0.658   0.415   0.176 -1.3207 -0.1224  0.9692
  165MOL   C19749725   0.232   0.623   0.029 -0.4696 -0.1178  0.1268
  165MOL   C19849726   0.277   0.742   7.805  0.2172  0.3326  0.3108
  165MOL   C19949727   0.223   0.700   7.666  0.4157  0.0252 -0.1772
  165MOL   C20049728   0.197   0.869   7.844 -0.0655 -0.3181 -0.5134
  165MOL   O20149729   0.261   0.976   7.874 -0.2644  0.1461 -0.1098
  165MOL   O20249730   0.061   0.857   7.849 -0.2595  0.4926 -0.4725
  165MOL   C20349731   7.860   0.962   0.026  0.4819  0.1144  0.4471
  165MOL   H20449732   0.124   0.636   0.033 -0.4840 -0.2984  0.2893
  165MOL   H20549733   0.242   0.527   7.855  0.8268 -1.0956  2.1369
  165MOL   H20649734   0.253   0.774   7.592  0.7633  0.2678  0.2093
  165MOL   H20749735   0.262   0.603   7.633  0.8649  0.3400 -0.5745
  165MOL   H20849736   0.114   0.688   7.662  0.5395 -2.1758  1.6054
  165MOL   H20949737   0.009   1.063   7.874  0.3376  0.6978  2.2394
  165MOL   H21049738   7.862   0.964   0.135  0.9375  0.3121  0.4365
  165MOL   H21149739   7.755   0.950   7.877 -0.2483  0.3060  3.0485
  165MOL   C21249740   0.433   0.771   7.804 -0.4402 -0.2630 -0.3176
  165MOL   C21349741   0.521   0.835   7.682 -0.4560  0.2368  0.0195
  165MOL   C21449742   0.536   0.723   7.570 -0.1133 -1.1511  0.1650
  165MOL   C21549743   0.461   0.967   7.629  0.5227  0.3011 -0.1992
  165MOL   O21649744   0.410   0.973   7.516  0.6080  0.5651  0.0891
  165MOL   O21749745   0.466   1.067   7.708 -0.0989  0.9333 -0.3750
  165MOL   C21849746   0.398   1.184   7.672  0.5881 -0.7060 -0.1216
  165MOL   H21949747   0.483   0.674   7.809  0.6340  0.2922 -0.0725
  165MOL   H22049748   0.455   0.822   0.020  0.7556 -2.0364  0.4028
  165MOL   H22149749   0.457   0.719   7.495 -0.1418 -2.9285  0.2745
  165MOL   H22249750   0.627   0.730   7.510 -0.7201  2.1239 -0.4965
  165MOL   H22349751   0.542   0.623   7.612 -0.3705 -1.1360  0.2427
  165MOL   H22449752   0.290   1.181   7.656  0.7321 -0.4061 -1.2321
  165MOL   H22549753   0.433   1.220   7.575  0.1330 -2.3901 -0.9430
  165MOL   H22649754   0.424   1.258   7.747 -0.6497  0.0165 -0.3890
  165MOL   C22749755   0.655   0.863   7.755 -0.1278 -0.2159 -0.2748
  165MOL   C22849756   0.790   0.915   7.682  0.1933 -0.2703  0.6322
  165MOL   C22949757   0.856   1.011   7.787 -0.2534 -0.3261 -0.1100
  165MOL   C23049758   0.875   0.785   7.647 -0.3610  0.2429 -0.0676
  165MOL   O23149759   0.864   0.731   7.538 -0.0986  0.1025 -0.4752
  165MOL   O23249760   0.958   0.744   7.751  0.4454 -0.9094 -0.2264
  165MOL   C23349761   1.037   0.636   7.718  0.3857 -0.1569 -0.2800
  165MOL   H23449762   0.685   0.776   7.813 -1.1078 -2.3038 -2.8061
  165MOL   H23549763   0.637   0.942   7.828 -0.3691 -1.1839  0.7237
  165MOL   H23649764   0.813   1.111   7.786  0.7186  0.1461  2.2517
  165MOL   H23749765   0.845   0.971   0.010  3.5416 -2.2065 -0.3480
  165MOL   H23849766   0.964   1.021   7.786 -0.3129  0.4522  0.3767
  165MOL   H23949767   1.012   0.591   7.622 -0.2141  0.5990 -0.4836
  165MOL   H24049768   1.038   0.570   7.805  2.1020 -0.4491 -0.5116
  165MOL   H24149769   1.140   0.671   7.711  0.8773 -1.7752 -1.2499
  165MOL   C24249770   0.752   1.008   7.562 -0.2719 -0.1701  0.2298
  165MOL   C24349771   0.856   1.078   7.467 -1.0254 -0.1593  0.6032
  165MOL   C24449772   0.755   1.149   7.361 -0.0553  0.0688 -0.3052
  165MOL   C24549773   0.943   1.189   7.536 -0.4734  0.4360 -0.4354
  165MOL   O24649774   0.920   1.307   7.510  0.2552  0.3528  0.6477
  165MOL   O24749775   1.052   1.147   7.599  0.0963  0.1329 -0.8044
  165MOL   C24849776   1.143   1.237   7.653 -0.6647  0.2492  0.5035
  165MOL   H24949777   0.695   1.092   7.603 -1.6130 -1.3249  0.7725
  165MOL   H25049778   0.692   0.950   7.491 -0.2645  2.2754 -1.8446
  165MOL   H25149779   0.703   1.075   7.299  0.9747  0.5468 -1.7718
  165MOL   H25249780   0.669   1.207   7.395 -0.3704  0.3877 -1.5954
  165MOL   H25349781   0.803   1.222   7.296 -0.2894 -0.3124 -0.9082
  165MOL   H25449782   1.088   1.320   7.698 -0.9680  1.8053 -2.5926
  165MOL   H25549783   1.215   1.270   7.578 -2.5163  3.5752  0.0678
  165MOL   H25649784   1.206   1.183   7.724  2.4173  2.6306 -0.3126
  165MOL   C25749785   0.946   0.965   7.402 -0.0481 -0.0625  0.2438
  165MOL   C25849786   1.047   0.977   7.278 -0.3080  0.0606  0.3233
  165MOL   C25949787   0.979   1.060   7.162 -0.1670  0.0389  0.0102
  165MOL   C26049788   1.181   1.045   7.320  0.0350 -0.5228 -0.0157
  165MOL   O26149789   1.212   1.156   7.279  0.3427 -0.0192 -0.4516
  165MOL   O26249790   1.255   0.973   7.408  0.5362 -0.1445  0.6739
  165MOL   C26349791   1.382   1.022   7.436 -0.0837 -0.2467  0.1278
  165MOL   H26449792   0.871   0.893   7.372 -1.4149  1.2832  0.3574
  165MOL   H26549793   1.022   0.937   7.476  0.7105  2.2722  0.4059
  165MOL   H26649794   1.045   1.056   7.076 -0.5302 -0.9298 -0.2266
  165MOL   H26749795   0.885   1.018   7.128 -0.7067  1.4750 -0.3008
  165MOL   H26849796   0.971   1.167   7.180  0.4446  0.2215 -0.8016
  165MOL   H26949797   1.433   1.090   7.369  0.8811 -1.7430 -0.6887
  165MOL   H27049798   1.441   0.931   7.447 -1.6919 -1.2083  1.0523
  165MOL   H27149799   1.381   1.054   7.541 -0.6113  1.5580 -0.4117
  165MOL   C27249800   1.076   0.831   7.230 -0.4596  0.5232  0.2525
  165MOL   C27349801   1.167   0.779   7.101 -0.4290 -0.5549  0.4977
  165MOL   C27449802   1.142   0.628   7.094  0.3479 -0.2583 -0.4431
  165MOL   C27549803   1.111   0.846   6.970 -0.1706  0.0892 -0.8218
  165MOL   O27649804   1.175   0.927   6.902 -0.5872 -0.6331 -0.0784
  165MOL   O27749805   0.990   0.812   6.939  0.3195  0.3010  0.0336
  165MOL   C27849806   0.925   0.880   6.829 -0.7748  0.0240 -0.6044
  165MOL   H27949807   0.976   0.799   7.200 -0.7500  2.3419 -0.8100
  165MOL   H28049808   1.102   0.768   7.315  0.4476  2.6139  1.5670
  165MOL   H28149809   1.038   0.598   7.085 -0.2642  1.8411 -0.7487
  165MOL   H28249810   1.199   0.569   7.023 -1.1003  0.2860 -2.0951
  165MOL   H28349811   1.175   0.579   7.186  1.5549 -2.5465 -2.0454
  165MOL   H28449812   0.820   0.858   6.850 -0.4654  1.4228  2.6569
  165MOL   H28549813   0.944   0.834   6.732 -1.7246  2.2019 -1.8601
  165MOL   H28649814   0.950   0.984   6.811 -0.0896 -0.4011 -2.2023
  165MOL   C28749815   1.313   0.810   7.137 -0.7055 -0.3525  0.1883
  165MOL   C28849816   1.423   0.733   7.055 -0.2336 -0.0269  0.0381
  165MOL   C28949817   1.440   0.795   6.914 -0.2426  0.2625 -0.0494
  165MOL   C29049818   1.552   0.743   7.135  0.2440  0.4728 -0.3412
  165MOL   O29149819   1.573   0.837   7.220  0.0283 -0.0352 -0.0751
  165MOL   O29249820   1.639   0.645   7.108  0.1400  0.6378 -0.4344
  165MOL   C29349821   1.767   0.635   7.168  0.1513 -0.2209  0.9309
  165MOL   H29449822   1.330   0.801   7.244  0.6982 -0.1275 -0.0005
  165MOL   H29549823   1.328   0.918   7.141 -5.7944  0.4804 -0.1664
  165MOL   H29649824   1.383   0.737   6.842 -1.6817  0.6294  0.7778
  165MOL   H29749825   1.415   0.900   6.902  0.6098  0.2257 -2.3860
  165MOL   H29849826   1.542   0.776   6.881 -0.9370 -0.2184 -1.9646
  165MOL   H29949827   1.768   0.556   7.243  1.1970 -2.4541 -1.3235
  165MOL   H30049828   1.802   0.727   7.215  0.3256  0.4266 -0.4330
  165MOL   H30149829   1.837   0.594   7.094 -0.1415 -0.5485  0.8346
  165MOL   H30249830   1.400   0.627   7.053  0.1119 -0.0899 -1.2062
   7.87769   7.87769   7.87769
